<event>
12    1  0.9028446E-003  0.2440168E+03  0.7818608E-02  0.1117178E+00
         21   -1    0    0  503  502  0.00000000000E+00  0.00000000000E+00  0.74663243226E+02  0.74663243226E+02  0.00000000000E+00 0.  1.
         21   -1    0    0  501  503 -0.00000000000E+00 -0.00000000000E+00 -0.84832020372E+03  0.84832020372E+03  0.00000000000E+00 0. -1.
          6    2    1    2  501    0 -0.10833987012E+03  0.13520335504E+03 -0.50034641280E+03  0.55659174898E+03  0.17155281276E+03 0.  0.
         24    2    3    3    0    0 -0.13045708049E+03  0.76040775073E+02 -0.27725416801E+03  0.32468309985E+03  0.75815515034E+02 0.  0.
         -6    2    1    2    0  502  0.10833987012E+03 -0.13520335504E+03 -0.27331054770E+03  0.36639169796E+03  0.17183348388E+03 0.  0.
        -24    2    5    5    0    0  0.21410746415E+02 -0.45934888605E+02 -0.40819580961E+02  0.10257420184E+03  0.79289309742E+02 0.  0.
          5    1    3    3  501    0  0.22117210374E+02  0.59162579970E+02 -0.22309224478E+03  0.23190864914E+03  0.47000000000E+01 0. -1.
        -11    1    4    4    0    0 -0.49232839350E+02  0.58606345003E+02 -0.80349857669E+02  0.11097150883E+03  0.00000000000E+00 0.  1.
         12    1    4    4    0    0 -0.81224241141E+02  0.17434430070E+02 -0.19690431035E+03  0.21371159101E+03  0.00000000000E+00 0. -1.
         -5    1    5    5    0  502  0.86929123702E+02 -0.89268466439E+02 -0.23249096673E+03  0.26381749612E+03  0.47000000000E+01 0.  1.
         13    1    6    6    0    0 -0.12700142643E+02 -0.51811525101E+02 -0.42069879157E+02  0.67938225534E+02  0.00000000000E+00 0. -1.
        -14    1    6    6    0    0  0.34110889058E+02  0.58766364966E+01  0.12502981958E+01  0.34635976302E+02  0.00000000000E+00 0.  1.
</event>
<event>
12    1  0.9028446E-003  0.3087896E+03  0.7818608E-02  0.1081039E+00
         21   -1    0    0  501  502  0.00000000000E+00  0.00000000000E+00  0.95158126831E+02  0.95158126831E+02  0.00000000000E+00 0. -1.
         21   -1    0    0  502  503 -0.00000000000E+00 -0.00000000000E+00 -0.99902113276E+03  0.99902113276E+03  0.00000000000E+00 0.  1.
          6    2    1    2  501    0 -0.24939899974E+03 -0.57816464034E+02 -0.45010979963E+03  0.54532318230E+03  0.17098519482E+03 0.  0.
         24    2    3    3    0    0 -0.63237776840E+02 -0.25697016654E+02 -0.24346643430E+03  0.26530312901E+03  0.80314958418E+02 0.  0.
         -6    2    1    2    0  503  0.24939899974E+03  0.57816464034E+02 -0.45375320630E+03  0.54885607729E+03  0.17265114180E+03 0.  0.
        -24    2    5    5    0    0  0.45156911425E+02  0.29824271208E+02 -0.19771476941E+03  0.22010668236E+03  0.80169743519E+02 0.  0.
          5    1    3    3  501    0 -0.18616122290E+03 -0.32119447379E+02 -0.20664336533E+03  0.28002005329E+03  0.47000000000E+01 0. -1.
        -13    1    4    4    0    0 -0.13399963138E+02  0.27285813812E+02 -0.98934672066E+02  0.10349948785E+03  0.00000000000E+00 0.  1.
         14    1    4    4    0    0 -0.49837813703E+02 -0.52982830466E+02 -0.14453176224E+03  0.16180364117E+03  0.00000000000E+00 0. -1.
         -5    1    5    5    0  503  0.20424208832E+03  0.27992192825E+02 -0.25603843689E+03  0.32874939493E+03  0.47000000000E+01 0.  1.
         13    1    6    6    0    0  0.24841017588E+02 -0.20761878779E+02 -0.31459406035E+02  0.45142286089E+02  0.00000000000E+00 0. -1.
        -14    1    6    6    0    0  0.20315893836E+02  0.50586149987E+02 -0.16625536337E+03  0.17496439627E+03  0.00000000000E+00 0.  1.
</event>
<event>
12    1  0.9028446E-003  0.2521518E+03  0.7818608E-02  0.1112104E+00
         21   -1    0    0  503  502  0.00000000000E+00  0.00000000000E+00  0.27835957822E+03  0.27835957822E+03  0.00000000000E+00 0.  1.
         21   -1    0    0  501  503 -0.00000000000E+00 -0.00000000000E+00 -0.51631490240E+03  0.51631490240E+03  0.00000000000E+00 0.  1.
          6    2    1    2  501    0 -0.17125894088E+03 -0.60838507346E+02 -0.41623595155E+03  0.48665479891E+03  0.17478437326E+03 0.  0.
         24    2    3    3    0    0 -0.51992951872E+02 -0.85801325250E+02 -0.24658060169E+03  0.27772288142E+03  0.79138304732E+02 0.  0.
         -6    2    1    2    0  502  0.17125894088E+03  0.60838507346E+02  0.17828062736E+03  0.30801968171E+03  0.17338164096E+03 0.  0.
        -24    2    5    5    0    0  0.61142712172E+02  0.35656579152E+02  0.16146175166E+03  0.19371885970E+03  0.80294934256E+02 0.  0.
          5    1    3    3  501    0 -0.11926598900E+03  0.24962817905E+02 -0.16965534985E+03  0.20893191749E+03  0.47000000000E+01 0. -1.
        -11    1    4    4    0    0 -0.61266747388E+02 -0.44436960630E+02 -0.20422290587E+03  0.21779635692E+03  0.00000000000E+00 0.  1.
         12    1    4    4    0    0  0.92737955158E+01 -0.41364364620E+02 -0.42357695824E+02  0.59926524505E+02  0.00000000000E+00 0. -1.
         -5    1    5    5    0  502  0.11011622870E+03  0.25181928194E+02  0.16818875706E+02  0.11430082201E+03  0.47000000000E+01 0.  1.
         11    1    6    6    0    0  0.54745479551E+02  0.42346451398E+02  0.59308400415E+02  0.91147001251E+02  0.00000000000E+00 0. -1.
        -12    1    6    6    0    0  0.63972326210E+01 -0.66898722463E+01  0.10215335124E+03  0.10257185845E+03  0.00000000000E+00 0.  1.
</event>
<event>
12    1  0.9028446E-003  0.1820523E+03  0.7818608E-02  0.1166058E+00
         21   -1    0    0  501  502  0.00000000000E+00  0.00000000000E+00  0.26347690163E+03  0.26347690163E+03  0.00000000000E+00 0. -1.
         21   -1    0    0  502  503 -0.00000000000E+00 -0.00000000000E+00 -0.26583667834E+03  0.26583667834E+03  0.00000000000E+00 0. -1.
          6    2    1    2  501    0 -0.39051799454E+02 -0.42250377676E+02  0.19136127167E+03  0.26347362538E+03  0.17172384086E+03 0.  0.
         24    2    3    3    0    0 -0.16618087635E+02 -0.91294922480E+02  0.10044811986E+03  0.15766280375E+03  0.78465350285E+02 0.  0.
         -6    2    1    2    0  503  0.39051799454E+02  0.42250377676E+02 -0.19372104839E+03  0.26583995460E+03  0.17272202934E+03 0.  0.
        -24    2    5    5    0    0 -0.42500199689E+02  0.21481557677E+02 -0.13406004571E+03  0.16257525739E+03  0.78682235403E+02 0.  0.
          5    1    3    3  501    0 -0.22433711819E+02  0.49044544804E+02  0.90913151811E+02  0.10581082163E+03  0.47000000000E+01 0. -1.
        -11    1    4    4    0    0  0.26109962894E+02 -0.65673160837E+02  0.68849920709E+02  0.98666132985E+02  0.00000000000E+00 0.  1.
         12    1    4    4    0    0 -0.42728050529E+02 -0.25621761643E+02  0.31598199153E+02  0.58996670765E+02  0.00000000000E+00 0. -1.
         -5    1    5    5    0  503  0.81551999143E+02  0.20768819999E+02 -0.59661002680E+02  0.10326469721E+03  0.47000000000E+01 0.  1.
         11    1    6    6    0    0 -0.52526932277E+02  0.41378298231E+02 -0.11600817041E+03  0.13389973032E+03  0.00000000000E+00 0. -1.
        -12    1    6    6    0    0  0.10026732588E+02 -0.19896740554E+02 -0.18051875300E+02  0.28675527073E+02  0.00000000000E+00 0.  1.
</event>
<event>
12    1  0.9028446E-003  0.1751566E+03  0.7818608E-02  0.1172580E+00
         21   -1    0    0  501  502  0.00000000000E+00  0.00000000000E+00  0.29785372748E+03  0.29785372748E+03  0.00000000000E+00 0. -1.
         21   -1    0    0  502  503 -0.00000000000E+00 -0.00000000000E+00 -0.10777041962E+03  0.10777041962E+03  0.00000000000E+00 0. -1.
          6    2    1    2  501    0 -0.31519391348E+02  0.13991378421E+02  0.52323958444E+02  0.18278461571E+03  0.17170669298E+03 0.  0.
         24    2    3    3    0    0 -0.39443758498E+02  0.70610708237E+02  0.49421063911E+02  0.12534716364E+03  0.82023092315E+02 0.  0.
         -6    2    1    2    0  503  0.31519391348E+02 -0.13991378421E+02  0.13775934941E+03  0.22283953139E+03  0.17172823792E+03 0.  0.
        -24    2    5    5    0    0  0.41124608542E+02 -0.72432094491E+02  0.99493561608E+02  0.15217173102E+03  0.79496070223E+02 0.  0.
          5    1    3    3  501    0  0.79243671500E+01 -0.56619329816E+02  0.29028945333E+01  0.57437452069E+02  0.47000000000E+01 0. -1.
        -11    1    4    4    0    0 -0.79743422925E+01  0.44725189987E+02 -0.16091490476E+02  0.48196149433E+02  0.00000000000E+00 0.  1.
         12    1    4    4    0    0 -0.31469416206E+02  0.25885518250E+02  0.65512554387E+02  0.77151014210E+02  0.00000000000E+00 0. -1.
         -5    1    5    5    0  503 -0.96052171933E+01  0.58440716070E+02  0.38265787802E+02  0.70667800364E+02  0.47000000000E+01 0.  1.
         13    1    6    6    0    0  0.54385135340E+02 -0.28257147998E+02  0.83028642218E+02  0.10319866660E+03  0.00000000000E+00 0. -1.
        -14    1    6    6    0    0 -0.13260526799E+02 -0.44174946493E+02  0.16464919390E+02  0.48973064425E+02  0.00000000000E+00 0.  1.
</event>
<event>
12    1  0.9028446E-003  0.1804215E+03  0.7818608E-02  0.1167982E+00
         21   -1    0    0  501  502  0.00000000000E+00  0.00000000000E+00  0.23478019416E+03  0.23478019416E+03  0.00000000000E+00 0.  1.
         21   -1    0    0  502  503 -0.00000000000E+00 -0.00000000000E+00 -0.15496020909E+03  0.15496020909E+03  0.00000000000E+00 0.  1.
          6    2    1    2  501    0  0.10166288781E+02  0.49071371400E+02 -0.26562393212E+02  0.18236636315E+03  0.17332217618E+03 0.  0.
         24    2    3    3    0    0  0.42125790562E+02  0.65449765579E+01 -0.69114900366E+02  0.11408232491E+03  0.80127950533E+02 0.  0.
         -6    2    1    2    0  503 -0.10166288781E+02 -0.49071371400E+02  0.10638237828E+03  0.20737404010E+03  0.17080816486E+03 0.  0.
        -24    2    5    5    0    0  0.87413373097E+01 -0.14709814040E+02 -0.12427860628E+02  0.82169496185E+02  0.79401415456E+02 0.  0.
          5    1    3    3  501    0 -0.31959501781E+02  0.42526394842E+02  0.42552507154E+02  0.68284038233E+02  0.47000000000E+01 0. -1.
        -11    1    4    4    0    0 -0.10848194077E+02  0.37659605041E+00 -0.58760357034E+02  0.59754537050E+02  0.00000000000E+00 0.  1.
         12    1    4    4    0    0  0.52973984639E+02  0.61683805075E+01 -0.10354543332E+02  0.54327787865E+02  0.00000000000E+00 0. -1.
         -5    1    5    5    0  503 -0.18907626091E+02 -0.34361557359E+02  0.11881023890E+03  0.12520454392E+03  0.47000000000E+01 0.  1.
         13    1    6    6    0    0  0.40579739743E+02  0.86243629410E+01 -0.30554212251E+01  0.41598443632E+02  0.00000000000E+00 0. -1.
        -14    1    6    6    0    0 -0.31838402433E+02 -0.23334176981E+02 -0.93724394030E+01  0.40571052553E+02  0.00000000000E+00 0.  1.
</event>
<event>
12    1  0.9028446E-003  0.1901026E+03  0.7818608E-02  0.1159786E+00
         21   -1    0    0  501  502  0.00000000000E+00  0.00000000000E+00  0.28805874901E+02  0.28805874901E+02  0.00000000000E+00 0.  1.
         21   -1    0    0  502  503 -0.00000000000E+00 -0.00000000000E+00 -0.14743944779E+04  0.14743944779E+04  0.00000000000E+00 0. -1.
          6    2    1    2  501    0  0.47574848040E+02 -0.48837206552E+02 -0.39720744365E+03  0.43772296517E+03  0.17081920861E+03 0.  0.
         24    2    3    3    0    0  0.64811696635E+02 -0.50258467428E+02 -0.14512783906E+03  0.18500702585E+03  0.80243631367E+02 0.  0.
         -6    2    1    2    0  503 -0.47574848040E+02  0.48837206552E+02 -0.10483811593E+04  0.10654773876E+04  0.17745582374E+03 0.  0.
        -24    2    5    5    0    0 -0.47593517726E+02  0.40348766224E+02 -0.30441853405E+03  0.32145149306E+03  0.82263312899E+02 0.  0.
          5    1    3    3  501    0 -0.17236848594E+02  0.14212608758E+01 -0.25207960460E+03  0.25271593932E+03  0.47000000000E+01 0. -1.
        -11    1    4    4    0    0  0.68983243990E+02 -0.66700249368E+01 -0.73236881395E+02  0.10083064009E+03  0.00000000000E+00 0.  1.
         12    1    4    4    0    0 -0.41715473551E+01 -0.43588442491E+02 -0.71890957661E+02  0.84176385760E+02  0.00000000000E+00 0. -1.
         -5    1    5    5    0  503  0.18669685885E-01  0.84884403277E+01 -0.74396262525E+03  0.74402589453E+03  0.47000000000E+01 0.  1.
         11    1    6    6    0    0 -0.18808373941E+02 -0.22441161326E+02 -0.14145201608E+03  0.14445079960E+03  0.00000000000E+00 0. -1.
        -12    1    6    6    0    0 -0.28785143785E+02  0.62789927551E+02 -0.16296651797E+03  0.17700069346E+03  0.00000000000E+00 0.  1.
</event>
<event>
12    1  0.9028446E-003  0.1860625E+03  0.7818608E-02  0.1162620E+00
         21   -1    0    0  503  502  0.00000000000E+00  0.00000000000E+00  0.21620246605E+03  0.21620246605E+03  0.00000000000E+00 0. -1.
         21   -1    0    0  501  503 -0.00000000000E+00 -0.00000000000E+00 -0.17093787306E+03  0.17093787306E+03  0.00000000000E+00 0. -1.
          6    2    1    2  501    0 -0.17656055350E+02  0.68582259004E+02 -0.30613291071E+02  0.18620076434E+03  0.16946471169E+03 0.  0.
         24    2    3    3    0    0  0.52916542337E+02  0.42307398837E+02  0.63554600770E+00  0.10453412709E+03  0.79604669195E+02 0.  0.
         -6    2    1    2    0  502  0.17656055350E+02 -0.68582259004E+02  0.75877884062E+02  0.20093957477E+03  0.17205812064E+03 0.  0.
        -24    2    5    5    0    0 -0.53969125382E+02 -0.48150252704E+02  0.62307906846E+02  0.12508532190E+03  0.80826661261E+02 0.  0.
          5    1    3    3  501    0 -0.70572597686E+02  0.26274860167E+02 -0.31248837079E+02  0.81666637251E+02  0.47000000000E+01 0. -1.
        -11    1    4    4    0    0  0.42673952705E+02  0.55066363561E+02  0.25992152734E+02  0.74356994554E+02  0.00000000000E+00 0.  1.
         12    1    4    4    0    0  0.10242589631E+02 -0.12758964724E+02 -0.25356606727E+02  0.30177132532E+02  0.00000000000E+00 0. -1.
         -5    1    5    5    0  502  0.71625180732E+02 -0.20432006300E+02  0.13569977216E+02  0.75854252867E+02  0.47000000000E+01 0.  1.
         13    1    6    6    0    0 -0.29141364950E+02  0.12686129777E+02  0.48430741536E+02  0.57928350275E+02  0.00000000000E+00 0. -1.
        -14    1    6    6    0    0 -0.24827760432E+02 -0.60836382481E+02  0.13877165310E+02  0.67156971630E+02  0.00000000000E+00 0.  1.
</event>
<event>
12    1  0.9028446E-003  0.1913785E+03  0.7818608E-02  0.1157654E+00
         21   -1    0    0  503  502  0.00000000000E+00  0.00000000000E+00  0.78139388090E+03  0.78139388090E+03  0.00000000000E+00 0.  1.
         21   -1    0    0  501  503 -0.00000000000E+00 -0.00000000000E+00 -0.46553145612E+02  0.46553145612E+02  0.00000000000E+00 0.  1.
          6    2    1    2  501    0  0.32975802526E+02 -0.72061072297E+02  0.34585520780E+03  0.39527403329E+03  0.17419969843E+03 0.  0.
         24    2    3    3    0    0  0.70525628514E+02  0.37499603264E+01  0.21914641864E+03  0.24284533077E+03  0.77206058028E+02 0.  0.
         -6    2    1    2    0  502 -0.32975802526E+02  0.72061072297E+02  0.38898552748E+03  0.43267299322E+03  0.17209293065E+03 0.  0.
        -24    2    5    5    0    0  0.49291016975E+01  0.13602263250E+02  0.32606633516E+03  0.33867762694E+03  0.90409968790E+02 0.  0.
          5    1    3    3  501    0 -0.37549825988E+02 -0.75811032624E+02  0.12670878917E+03  0.15242870252E+03  0.47000000000E+01 0. -1.
        -11    1    4    4    0    0  0.63931118658E+02 -0.22824005307E+02  0.10187415606E+03  0.12241922572E+03  0.00000000000E+00 0.  1.
         12    1    4    4    0    0  0.65945098555E+01  0.26573965634E+02  0.11727226257E+03  0.12042610505E+03  0.00000000000E+00 0. -1.
         -5    1    5    5    0  502 -0.37904904224E+02  0.58458809047E+02  0.62919192318E+02  0.93995366276E+02  0.47000000000E+01 0.  1.
         11    1    6    6    0    0  0.31292573994E+01  0.13721361460E+02  0.15527876743E+01  0.14159066415E+02  0.00000000000E+00 0. -1.
        -12    1    6    6    0    0  0.17998442981E+01 -0.11909820960E+00  0.32451354749E+03  0.32451856053E+03  0.00000000000E+00 0.  1.
</event>
<event>
12    1  0.9028446E-003  0.1974599E+03  0.7818608E-02  0.1151915E+00
         21   -1    0    0  501  502  0.00000000000E+00  0.00000000000E+00  0.16647852789E+03  0.16647852789E+03  0.00000000000E+00 0.  1.
         21   -1    0    0  502  503 -0.00000000000E+00 -0.00000000000E+00 -0.23919475018E+03  0.23919475018E+03  0.00000000000E+00 0.  1.
          6    2    1    2  501    0 -0.81023846846E+02  0.52652036790E+02 -0.65878821239E+02  0.20809502789E+03  0.17212327212E+03 0.  0.
         24    2    3    3    0    0 -0.37854163270E+02 -0.39095222041E+02 -0.38986630476E+02  0.10308807094E+03  0.78395273779E+02 0.  0.
         -6    2    1    2    0  503  0.81023846846E+02 -0.52652036790E+02 -0.68374010590E+01  0.19757825018E+03  0.17220137676E+03 0.  0.
        -24    2    5    5    0    0  0.48432065871E+01 -0.75319139170E+02 -0.31273822336E+02  0.11429250011E+03  0.79926805532E+02 0.  0.
          5    1    3    3  501    0 -0.43169683576E+02  0.91747258831E+02 -0.26892190763E+02  0.10500695695E+03  0.47000000000E+01 0. -1.
        -13    1    4    4    0    0 -0.49965663687E+02 -0.49109804839E+02 -0.48042957201E+02  0.84949786437E+02  0.00000000000E+00 0.  1.
         14    1    4    4    0    0  0.12111500417E+02  0.10014582798E+02  0.90563267244E+01  0.18138284503E+02  0.00000000000E+00 0. -1.
         -5    1    5    5    0  503  0.76180640258E+02  0.22667102380E+02  0.24436421277E+02  0.83285750074E+02  0.47000000000E+01 0.  1.
         13    1    6    6    0    0  0.10706163402E+02 -0.19089919116E+02 -0.50127547811E+02  0.54697513620E+02  0.00000000000E+00 0. -1.
        -14    1    6    6    0    0 -0.58629568152E+01 -0.56229220054E+02  0.18853725475E+02  0.59594986490E+02  0.00000000000E+00 0.  1.
</event>
<event>
12    1  0.9028446E-003  0.2303837E+03  0.7818608E-02  0.1126527E+00
         21   -1    0    0  503  502  0.00000000000E+00  0.00000000000E+00  0.12214744900E+04  0.12214744900E+04  0.00000000000E+00 0. -1.
         21   -1    0    0  501  503 -0.00000000000E+00 -0.00000000000E+00 -0.61705166925E+02  0.61705166925E+02  0.00000000000E+00 0. -1.
          6    2    1    2  501    0  0.91928871081E+02 -0.12162206112E+03  0.22854149748E+03  0.32387683141E+03  0.17152883945E+03 0.  0.
         24    2    3    3    0    0 -0.19268094696E+02 -0.62720881438E+02  0.11085709334E+03  0.15152305819E+03  0.79779531063E+02 0.  0.
         -6    2    1    2    0  502 -0.91928871081E+02  0.12162206112E+03  0.93122782555E+03  0.95930282547E+03  0.17272465020E+03 0.  0.
        -24    2    5    5    0    0 -0.83086650878E+02  0.13884903160E+03  0.91755037929E+03  0.93513433553E+03  0.79969255445E+02 0.  0.
          5    1    3    3  501    0  0.11119696578E+03 -0.58901179686E+02  0.11768440413E+03  0.17235377322E+03  0.47000000000E+01 0. -1.
        -13    1    4    4    0    0 -0.39073672011E+02 -0.33228135297E+02  0.10310895688E+03  0.11516213704E+03  0.00000000000E+00 0.  1.
         14    1    4    4    0    0  0.19805577315E+02 -0.29492746141E+02  0.77481364624E+01  0.36360921143E+02  0.00000000000E+00 0. -1.
         -5    1    5    5    0  502 -0.88422202037E+01 -0.17226970476E+02  0.13677446261E+02  0.24168489943E+02  0.47000000000E+01 0.  1.
         13    1    6    6    0    0 -0.23525766985E+02  0.44884898767E+02  0.51520903802E+03  0.51769534353E+03  0.00000000000E+00 0. -1.
        -14    1    6    6    0    0 -0.59560883893E+02  0.93964132833E+02  0.40234134127E+03  0.41743899200E+03  0.00000000000E+00 0.  1.
</event>
<event>
12    1  0.9028446E-003  0.2054985E+03  0.7818608E-02  0.1146345E+00
         21   -1    0    0  503  502  0.00000000000E+00  0.00000000000E+00  0.31616978889E+03  0.31616978889E+03  0.00000000000E+00 0. -1.
         21   -1    0    0  501  503 -0.00000000000E+00 -0.00000000000E+00 -0.13288868564E+03  0.13288868564E+03  0.00000000000E+00 0. -1.
          6    2    1    2  501    0 -0.76451179247E+02  0.81957295004E+02  0.56898839673E+02  0.20780734053E+03  0.16548302574E+03 0.  0.
         24    2    3    3    0    0  0.19830587854E+02  0.42820238861E+02  0.49031366453E+02  0.10347194397E+03  0.77945771039E+02 0.  0.
         -6    2    1    2    0  502  0.76451179247E+02 -0.81957295004E+02  0.12638226358E+03  0.24125113400E+03  0.17224358361E+03 0.  0.
        -24    2    5    5    0    0  0.64145509557E+02 -0.94098533936E+02  0.28855756110E+02  0.14209293288E+03  0.79928508238E+02 0.  0.
          5    1    3    3  501    0 -0.96281767101E+02  0.39137056143E+02  0.78674732194E+01  0.10433539656E+03  0.47000000000E+01 0. -1.
        -11    1    4    4    0    0 -0.21632655827E+01  0.52439403043E+01  0.58615910720E+02  0.58889758171E+02  0.00000000000E+00 0.  1.
         12    1    4    4    0    0  0.21993853436E+02  0.37576298557E+02 -0.95845442666E+01  0.44582185803E+02  0.00000000000E+00 0. -1.
         -5    1    5    5    0  502  0.12305669690E+02  0.12141238932E+02  0.97526507469E+02  0.99158201115E+02  0.47000000000E+01 0.  1.
         13    1    6    6    0    0 -0.93191568102E+01 -0.46752508177E+02 -0.59005151602E+01  0.48036025894E+02  0.00000000000E+00 0. -1.
        -14    1    6    6    0    0  0.73464666367E+02 -0.47346025759E+02  0.34756271270E+02  0.94056906989E+02  0.00000000000E+00 0.  1.
</event>
<event>
12    1  0.9028446E-003  0.2728752E+03  0.7818608E-02  0.1099722E+00
         21   -1    0    0  503  502  0.00000000000E+00  0.00000000000E+00  0.39393638337E+02  0.39393638337E+02  0.00000000000E+00 0. -1.
         21   -1    0    0  501  503 -0.00000000000E+00 -0.00000000000E+00 -0.19793481573E+04  0.19793481573E+04  0.00000000000E+00 0. -1.
          6    2    1    2  501    0 -0.80639984746E+02  0.19598388905E+03 -0.11896104100E+04  0.12205055477E+04  0.17189640004E+03 0.  0.
         24    2    3    3    0    0  0.94292036060E+01  0.14932119114E+03 -0.70076582278E+03  0.72122507885E+03  0.81897179324E+02 0.  0.
         -6    2    1    2    0  502  0.80639984746E+02 -0.19598388905E+03 -0.75034410887E+03  0.79823624790E+03  0.17103313666E+03 0.  0.
        -24    2    5    5    0    0  0.82743171555E+02 -0.64811665017E+02 -0.28944574242E+03  0.31900773252E+03  0.83307330064E+02 0.  0.
          5    1    3    3  501    0 -0.90069188353E+02  0.46662697914E+02 -0.48884458727E+03  0.49928046884E+03  0.47000000000E+01 0. -1.
        -11    1    4    4    0    0 -0.22059135482E+02  0.10281486382E+03 -0.55775920455E+03  0.56758508784E+03  0.00000000000E+00 0.  1.
         12    1    4    4    0    0  0.31488339088E+02  0.46506327320E+02 -0.14300661823E+03  0.15363999101E+03  0.00000000000E+00 0. -1.
         -5    1    5    5    0  502 -0.21031868089E+01 -0.13117222404E+03 -0.46089836645E+03  0.47922851538E+03  0.47000000000E+01 0.  1.
         13    1    6    6    0    0  0.20993864370E+02 -0.57774313185E+02 -0.20590578792E+03  0.21488556746E+03  0.00000000000E+00 0. -1.
        -14    1    6    6    0    0  0.61749307185E+02 -0.70373518315E+01 -0.83539954504E+02  0.10412216506E+03  0.00000000000E+00 0.  1.
</event>
<event>
12    1  0.9028446E-003  0.2903928E+03  0.7818608E-02  0.1090192E+00
         21   -1    0    0  501  502  0.00000000000E+00  0.00000000000E+00  0.10398726998E+04  0.10398726998E+04  0.00000000000E+00 0. -1.
         21   -1    0    0  502  503 -0.00000000000E+00 -0.00000000000E+00 -0.17606102305E+03  0.17606102305E+03  0.00000000000E+00 0.  1.
          6    2    1    2  501    0 -0.17873816738E+03  0.15090500792E+03  0.87853415742E+03  0.92516792919E+03  0.17144613601E+03 0.  0.
         24    2    3    3    0    0 -0.90893391133E+02  0.74553034419E+02  0.26308412465E+03  0.29879171524E+03  0.79015624766E+02 0.  0.
         -6    2    1    2    0  503  0.17873816738E+03 -0.15090500792E+03 -0.14722480679E+02  0.29076579365E+03  0.17207074540E+03 0.  0.
        -24    2    5    5    0    0  0.11128323070E+03 -0.16606343058E+02 -0.15870004091E+02  0.14040054940E+03  0.82466533683E+02 0.  0.
          5    1    3    3  501    0 -0.87844776248E+02  0.76351973503E+02  0.61545003277E+03  0.62637621395E+03  0.47000000000E+01 0. -1.
        -13    1    4    4    0    0 -0.40853914717E+02  0.80702750761E+02  0.18348683236E+03  0.20457124426E+03  0.00000000000E+00 0.  1.
         14    1    4    4    0    0 -0.50039476416E+02 -0.61497163423E+01  0.79597292299E+02  0.94220470983E+02  0.00000000000E+00 0. -1.
         -5    1    5    5    0  503  0.67454936680E+02 -0.13429866486E+03  0.11475234128E+01  0.15036524424E+03  0.47000000000E+01 0.  1.
         11    1    6    6    0    0  0.64596854373E+01 -0.65105330862E+01 -0.32515801612E+02  0.33784492471E+02  0.00000000000E+00 0. -1.
        -12    1    6    6    0    0  0.10482354526E+03 -0.10095809972E+02  0.16645797521E+02  0.10661605693E+03  0.00000000000E+00 0.  1.
</event>
<event>
12    1  0.9028446E-003  0.1830412E+03  0.7818608E-02  0.1165371E+00
         21   -1    0    0  501  502  0.00000000000E+00  0.00000000000E+00  0.17210766482E+03  0.17210766482E+03  0.00000000000E+00 0.  1.
         21   -1    0    0  502  503 -0.00000000000E+00 -0.00000000000E+00 -0.19378984903E+03  0.19378984903E+03  0.00000000000E+00 0.  1.
          6    2    1    2  501    0 -0.51379395947E+02  0.30618399674E+02  0.39525548600E+01  0.18107000717E+03  0.17086075055E+03 0.  0.
         24    2    3    3    0    0 -0.95427472239E+02  0.47835087950E+02 -0.13979441262E+01  0.13324360003E+03  0.79732707246E+02 0.  0.
         -6    2    1    2    0  503  0.51379395947E+02 -0.30618399674E+02 -0.25634739065E+02  0.18482750668E+03  0.17299346419E+03 0.  0.
        -24    2    5    5    0    0  0.62669159856E+02  0.39642579805E+02  0.11273103661E+01  0.10865427453E+03  0.79407322177E+02 0.  0.
          5    1    3    3  501    0  0.44048076292E+02 -0.17216688276E+02  0.53504989862E+01  0.47826407137E+02  0.47000000000E+01 0. -1.
        -13    1    4    4    0    0 -0.13707904611E+02  0.73349207975E+01  0.32432593753E+02  0.35966384993E+02  0.00000000000E+00 0.  1.
         14    1    4    4    0    0 -0.81719567628E+02  0.40500167153E+02 -0.33830537879E+02  0.97277215040E+02  0.00000000000E+00 0. -1.
         -5    1    5    5    0  503 -0.11289763909E+02 -0.70260979478E+02 -0.26762049431E+02  0.76173232150E+02  0.47000000000E+01 0.  1.
         13    1    6    6    0    0  0.68888692068E+01 -0.23292412676E+02 -0.28935357824E+01  0.24461511739E+02  0.00000000000E+00 0. -1.
        -14    1    6    6    0    0  0.55780290650E+02  0.62934992481E+02  0.40208461486E+01  0.84192762796E+02  0.00000000000E+00 0.  1.
</event>
<event>
12    1  0.9028446E-003  0.2423033E+03  0.7818608E-02  0.1120607E+00
         21   -1    0    0  501  502  0.00000000000E+00  0.00000000000E+00  0.44683215374E+03  0.44683215374E+03  0.00000000000E+00 0.  1.
         21   -1    0    0  502  503 -0.00000000000E+00 -0.00000000000E+00 -0.12727640970E+03  0.12727640970E+03  0.00000000000E+00 0. -1.
          6    2    1    2  501    0 -0.77764613235E+01  0.16036470391E+03  0.21018959972E+03  0.32076561295E+03  0.18147616651E+03 0.  0.
         24    2    3    3    0    0 -0.65295033091E+02  0.61934666496E+02  0.67283072981E+02  0.13789619575E+03  0.79931249409E+02 0.  0.
         -6    2    1    2    0  503  0.77764613235E+01 -0.16036470391E+03  0.10936614432E+03  0.25334295048E+03  0.16261729743E+03 0.  0.
        -24    2    5    5    0    0 -0.32588275046E+02 -0.13756611014E+03  0.38868489442E+02  0.16883793783E+03  0.83720125707E+02 0.  0.
          5    1    3    3  501    0  0.57518571767E+02  0.98430037414E+02  0.14290652674E+03  0.18286941720E+03  0.47000000000E+01 0. -1.
        -11    1    4    4    0    0  0.33417897860E+00 -0.17392826093E+02  0.10496892426E+02  0.20317648134E+02  0.00000000000E+00 0.  1.
         12    1    4    4    0    0 -0.65629212069E+02  0.79327492589E+02  0.56786180555E+02  0.11757854761E+03  0.00000000000E+00 0. -1.
         -5    1    5    5    0  503  0.40364736369E+02 -0.22798593765E+02  0.70497654878E+02  0.84505012651E+02  0.47000000000E+01 0.  1.
         11    1    6    6    0    0  0.22875947189E+02 -0.47113152658E+02 -0.77516170284E+01  0.52943797367E+02  0.00000000000E+00 0. -1.
        -12    1    6    6    0    0 -0.55464222235E+02 -0.90452957487E+02  0.46620106470E+02  0.11589414046E+03  0.00000000000E+00 0.  1.
</event>
<event>
12    1  0.9028446E-003  0.2033903E+03  0.7818608E-02  0.1147098E+00
         21   -1    0    0  503  502  0.00000000000E+00  0.00000000000E+00  0.24565662353E+03  0.24565662353E+03  0.00000000000E+00 0. -1.
         21   -1    0    0  501  503 -0.00000000000E+00 -0.00000000000E+00 -0.17897813524E+03  0.17897813524E+03  0.00000000000E+00 0. -1.
          6    2    1    2  501    0  0.63180988772E+02 -0.82641767434E+02 -0.20022374671E+02  0.20437340974E+03  0.17477441476E+03 0.  0.
         24    2    3    3    0    0  0.14881357683E+01  0.18575736364E+02  0.10612458491E+02  0.81851680281E+02  0.78992409509E+02 0.  0.
         -6    2    1    2    0  502 -0.63180988772E+02  0.82641767434E+02  0.86700862961E+02  0.22026134903E+03  0.17371391185E+03 0.  0.
        -24    2    5    5    0    0 -0.51471104348E+02 -0.21887381995E+01 -0.41072433793E+01  0.95355231260E+02  0.80135419902E+02 0.  0.
          5    1    3    3  501    0  0.61692853004E+02 -0.10121750380E+03 -0.30634833162E+02  0.12252172946E+03  0.47000000000E+01 0. -1.
        -13    1    4    4    0    0  0.15487432939E+02 -0.18805317337E+02 -0.20022757104E+02  0.31534288342E+02  0.00000000000E+00 0.  1.
         14    1    4    4    0    0 -0.13999297171E+02  0.37381053701E+02  0.30635215594E+02  0.50317391940E+02  0.00000000000E+00 0. -1.
         -5    1    5    5    0  502 -0.11709884425E+02  0.84830505634E+02  0.90808106341E+02  0.12490611777E+03  0.47000000000E+01 0.  1.
         13    1    6    6    0    0 -0.56855814155E+02  0.48405741530E+01  0.26917415063E+02  0.63091695135E+02  0.00000000000E+00 0. -1.
        -14    1    6    6    0    0  0.53847098071E+01 -0.70293123524E+01 -0.31024658442E+02  0.32263536125E+02  0.00000000000E+00 0.  1.
</event>
<event>
12    1  0.9028446E-003  0.2137609E+03  0.7818608E-02  0.1138819E+00
         21   -1    0    0  503  502  0.00000000000E+00  0.00000000000E+00  0.19221573766E+03  0.19221573766E+03  0.00000000000E+00 0.  1.
         21   -1    0    0  501  503 -0.00000000000E+00 -0.00000000000E+00 -0.23803668290E+03  0.23803668290E+03  0.00000000000E+00 0. -1.
          6    2    1    2  501    0  0.33907947830E+02  0.12099283314E+03 -0.39607506932E+02  0.21640126994E+03  0.17167335387E+03 0.  0.
         24    2    3    3    0    0  0.14547602285E+02  0.71416773642E+02 -0.91802033555E+02  0.14170878528E+03  0.79635282202E+02 0.  0.
         -6    2    1    2    0  502 -0.33907947830E+02 -0.12099283314E+03 -0.62134383128E+01  0.21385115062E+03  0.17292973488E+03 0.  0.
        -24    2    5    5    0    0 -0.84966995671E+02 -0.65418187061E+02  0.17129822739E+02  0.13471477788E+03  0.79722713205E+02 0.  0.
          5    1    3    3  501    0  0.19360345545E+02  0.49576059499E+02  0.52194526623E+02  0.74692484658E+02  0.47000000000E+01 0. -1.
        -13    1    4    4    0    0 -0.14819306151E+02  0.53496683781E+02 -0.14921296013E+02  0.57481754367E+02  0.00000000000E+00 0.  1.
         14    1    4    4    0    0  0.29366908436E+02  0.17920089861E+02 -0.76880737542E+02  0.84227030915E+02  0.00000000000E+00 0. -1.
         -5    1    5    5    0  502  0.51059047840E+02 -0.55574646080E+02 -0.23343261052E+02  0.79136372736E+02  0.47000000000E+01 0.  1.
         13    1    6    6    0    0  0.28507389879E+01 -0.16380034432E+02 -0.21318048503E+02  0.27035003842E+02  0.00000000000E+00 0. -1.
        -14    1    6    6    0    0 -0.87817734658E+02 -0.49038152630E+02  0.38447871242E+02  0.10767977404E+03  0.00000000000E+00 0.  1.
</event>
<event>
12    1  0.9028446E-003  0.1875259E+03  0.7818608E-02  0.1161267E+00
         21   -1    0    0  501  502  0.00000000000E+00  0.00000000000E+00  0.61354326208E+03  0.61354326208E+03  0.00000000000E+00 0.  1.
         21   -1    0    0  502  503 -0.00000000000E+00 -0.00000000000E+00 -0.62677272390E+02  0.62677272390E+02  0.00000000000E+00 0.  1.
          6    2    1    2  501    0 -0.29034726192E+02 -0.64081574919E+02  0.38246249311E+03  0.42596188771E+03  0.17382896071E+03 0.  0.
         24    2    3    3    0    0  0.89844964246E+01 -0.65427507565E+02  0.37329213923E+03  0.38654795346E+03  0.75569962219E+02 0.  0.
         -6    2    1    2    0  503  0.29034726192E+02  0.64081574919E+02  0.16840349658E+03  0.25025864675E+03  0.17123139036E+03 0.  0.
        -24    2    5    5    0    0  0.29568102532E+02 -0.88857554464E+01  0.13391032379E+03  0.16941073546E+03  0.99069637807E+02 0.  0.
          5    1    3    3  501    0 -0.38019222617E+02  0.13459326458E+01  0.91703538751E+01  0.39413934252E+02  0.47000000000E+01 0. -1.
        -11    1    4    4    0    0 -0.12880425990E+02 -0.74481522767E+02  0.25762695542E+03  0.26848659327E+03  0.00000000000E+00 0.  1.
         12    1    4    4    0    0  0.21864922415E+02  0.90540152018E+01  0.11566518381E+03  0.11806136019E+03  0.00000000000E+00 0. -1.
         -5    1    5    5    0  503 -0.53337634028E+00  0.72967330365E+02  0.34493172791E+02  0.80847911291E+02  0.47000000000E+01 0.  1.
         13    1    6    6    0    0  0.28871053005E+01  0.41513401498E+02  0.83513018006E+02  0.93306602432E+02  0.00000000000E+00 0. -1.
        -14    1    6    6    0    0  0.26680997232E+02 -0.50399156944E+02  0.50397305779E+02  0.76104133027E+02  0.00000000000E+00 0.  1.
</event>
<event>
12    1  0.9028446E-003  0.2186430E+03  0.7818608E-02  0.1134937E+00
         21   -1    0    0  503  502  0.00000000000E+00  0.00000000000E+00  0.13461684186E+03  0.13461684186E+03  0.00000000000E+00 0. -1.
         21   -1    0    0  501  503 -0.00000000000E+00 -0.00000000000E+00 -0.49269762636E+03  0.49269762636E+03  0.00000000000E+00 0. -1.
          6    2    1    2  501    0  0.13110401889E+03 -0.34273566988E+02 -0.34492391562E+03  0.40827596432E+03  0.17132954887E+03 0.  0.
         24    2    3    3    0    0  0.10541792731E+02 -0.52975285241E+02 -0.15992324578E+03  0.18661779848E+03  0.79581706003E+02 0.  0.
         -6    2    1    2    0  502 -0.13110401889E+03  0.34273566988E+02 -0.13156868884E+02  0.21903850389E+03  0.17158619357E+03 0.  0.
        -24    2    5    5    0    0 -0.11052413397E+03  0.66337523369E+01  0.51406133506E+02  0.14570391250E+03  0.79545261931E+02 0.  0.
          5    1    3    3  501    0  0.12056222616E+03  0.18701718253E+02 -0.18500066984E+03  0.22165816584E+03  0.47000000000E+01 0. -1.
        -11    1    4    4    0    0  0.18254254822E+02 -0.23702157862E+02 -0.69969075518E+01  0.30724043056E+02  0.00000000000E+00 0.  1.
         12    1    4    4    0    0 -0.77124620909E+01 -0.29273127379E+02 -0.15292633823E+03  0.15589375543E+03  0.00000000000E+00 0. -1.
         -5    1    5    5    0  502 -0.20579884920E+02  0.27639814651E+02 -0.64563002390E+02  0.73334591394E+02  0.47000000000E+01 0.  1.
         11    1    6    6    0    0 -0.45335108865E+02  0.57642857323E+01 -0.19228860879E+02  0.49580723840E+02  0.00000000000E+00 0. -1.
        -12    1    6    6    0    0 -0.65189025103E+02  0.86946660454E+00  0.70634994385E+02  0.96123188658E+02  0.00000000000E+00 0.  1.
</event>
<event>
12    1  0.9028446E-003  0.1865024E+03  0.7818608E-02  0.1161791E+00
         21   -1    0    0  501  502  0.00000000000E+00  0.00000000000E+00  0.14533137117E+04  0.14533137117E+04  0.00000000000E+00 0.  1.
         21   -1    0    0  502  503 -0.00000000000E+00 -0.00000000000E+00 -0.42271391770E+02  0.42271391770E+02  0.00000000000E+00 0.  1.
          6    2    1    2  501    0  0.62205879895E+02 -0.32023899165E+02  0.11996908480E+04  0.12141010089E+04  0.17288154166E+03 0.  0.
         24    2    3    3    0    0  0.61752034543E+02 -0.42499671671E+02  0.11982029366E+04  0.12025143068E+04  0.68781136978E+02 0.  0.
         -6    2    1    2    0  503 -0.62205879895E+02  0.32023899165E+02  0.21135147194E+03  0.28148409457E+03  0.17224618775E+03 0.  0.
        -24    2    5    5    0    0 -0.16068871633E+02  0.39438595781E+02  0.21639269922E+03  0.23424951794E+03  0.78952041799E+02 0.  0.
          5    1    3    3  501    0  0.45384535241E+00  0.10475772506E+02  0.14879113332E+01  0.11586702091E+02  0.47000000000E+01 0. -1.
        -13    1    4    4    0    0  0.56542590028E+02  0.15606455231E+01  0.74532224225E+03  0.74746554763E+03  0.00000000000E+00 0.  1.
         14    1    4    4    0    0  0.52094445149E+01 -0.44060317194E+02  0.45288069439E+03  0.45504875916E+03  0.00000000000E+00 0. -1.
         -5    1    5    5    0  503 -0.46137008262E+02 -0.74146966161E+01 -0.50412272820E+01  0.47234576634E+02  0.47000000000E+01 0.  1.
         13    1    6    6    0    0 -0.34048948486E+02 -0.91805142371E+01  0.11631678622E+03  0.12154508419E+03  0.00000000000E+00 0. -1.
        -14    1    6    6    0    0  0.17980076854E+02  0.48619110018E+02  0.10007591301E+03  0.11270443375E+03  0.00000000000E+00 0.  1.
</event>
<event>
12    1  0.9028446E-003  0.2201528E+03  0.7818608E-02  0.1133841E+00
         21   -1    0    0  501  502  0.00000000000E+00  0.00000000000E+00  0.11399416265E+04  0.11399416265E+04  0.00000000000E+00 0.  1.
         21   -1    0    0  502  503 -0.00000000000E+00 -0.00000000000E+00 -0.67796407923E+02  0.67796407923E+02  0.00000000000E+00 0.  1.
          6    2    1    2  501    0  0.11508570765E+03 -0.74638202957E+02  0.90505943343E+03  0.93135983121E+03  0.17170607358E+03 0.  0.
         24    2    3    3    0    0  0.12377988446E+03 -0.16440688247E+02  0.76811041235E+03  0.78223014334E+03  0.79363943740E+02 0.  0.
         -6    2    1    2    0  503 -0.11508570765E+03  0.74638202957E+02  0.16708578512E+03  0.27637820319E+03  0.17219660323E+03 0.  0.
        -24    2    5    5    0    0 -0.10965321784E+03  0.44624608102E+02  0.18996542150E+03  0.23796081673E+03  0.80766980274E+02 0.  0.
          5    1    3    3  501    0 -0.86941768104E+01 -0.58197514709E+02  0.13694902109E+03  0.14912968788E+03  0.47000000000E+01 0. -1.
        -13    1    4    4    0    0  0.85792882484E+02  0.12694107411E+02  0.31912700092E+03  0.33070168092E+03  0.00000000000E+00 0.  1.
         14    1    4    4    0    0  0.37987001975E+02 -0.29134795659E+02  0.44898341142E+03  0.45152846241E+03  0.00000000000E+00 0. -1.
         -5    1    5    5    0  503 -0.54324898088E+01  0.30013594855E+02 -0.22879636376E+02  0.38417386459E+02  0.47000000000E+01 0.  1.
         13    1    6    6    0    0  0.97617149393E+01 -0.67684502866E+01  0.26964954169E+02  0.29465433158E+02  0.00000000000E+00 0. -1.
        -14    1    6    6    0    0 -0.11941493278E+03  0.51393058388E+02  0.16300046733E+03  0.20849538357E+03  0.00000000000E+00 0.  1.
</event>
<event>
12    1  0.9028446E-003  0.1927016E+03  0.7818608E-02  0.1157930E+00
         21   -1    0    0  503  502  0.00000000000E+00  0.00000000000E+00  0.43243033481E+02  0.43243033481E+02  0.00000000000E+00 0. -1.
         21   -1    0    0  501  503 -0.00000000000E+00 -0.00000000000E+00 -0.94640710175E+03  0.94640710175E+03  0.00000000000E+00 0. -1.
          6    2    1    2  501    0 -0.63303087554E+02  0.31195463535E+01 -0.62223355347E+03  0.64898041643E+03  0.17315880970E+03 0.  0.
         24    2    3    3    0    0 -0.73531304190E+01 -0.44868238820E+02 -0.18740562423E+03  0.20792413512E+03  0.77745421675E+02 0.  0.
         -6    2    1    2    0  502  0.63303087554E+02 -0.31195463535E+01 -0.28093051480E+03  0.34066971880E+03  0.18198046792E+03 0.  0.
        -24    2    5    5    0    0  0.74437462521E+01 -0.67509262663E+02 -0.12183482458E+03  0.16011548811E+03  0.78615107631E+02 0.  0.
          5    1    3    3  501    0 -0.55949957135E+02  0.47987785174E+02 -0.43482792924E+03  0.44105628130E+03  0.47000000000E+01 0. -1.
        -11    1    4    4    0    0  0.24563462043E+02 -0.27990930828E+02 -0.34334847309E+02  0.50653110624E+02  0.00000000000E+00 0.  1.
         12    1    4    4    0    0 -0.31916592462E+02 -0.16877307993E+02 -0.15307077692E+03  0.15727102450E+03  0.00000000000E+00 0. -1.
         -5    1    5    5    0  502  0.55859341302E+02  0.64389716310E+02 -0.15909569022E+03  0.18055423070E+03  0.47000000000E+01 0.  1.
         13    1    6    6    0    0  0.14319921107E+02  0.26174802377E+01  0.46890662702E+01  0.15293746624E+02  0.00000000000E+00 0. -1.
        -14    1    6    6    0    0 -0.68761748547E+01 -0.70126742901E+02 -0.12652389085E+03  0.14482174148E+03  0.00000000000E+00 0.  1.
</event>
<event>
12    1  0.9028446E-003  0.2069492E+03  0.7818608E-02  0.1145244E+00
         21   -1    0    0  503  502  0.00000000000E+00  0.00000000000E+00  0.21384231489E+03  0.21384231489E+03  0.00000000000E+00 0. -1.
         21   -1    0    0  501  503 -0.00000000000E+00 -0.00000000000E+00 -0.21920924385E+03  0.21920924385E+03  0.00000000000E+00 0. -1.
          6    2    1    2  501    0  0.25899117433E+02 -0.99739646391E+02  0.70014607806E+02  0.21847200149E+03  0.17946924188E+03 0.  0.
         24    2    3    3    0    0  0.63611760922E+02 -0.19927843345E+02 -0.48514038081E+01  0.10263082971E+03  0.77884375968E+02 0.  0.
         -6    2    1    2    0  502 -0.25899117433E+02  0.99739646391E+02 -0.75381536766E+02  0.21457955725E+03  0.17246231170E+03 0.  0.
        -24    2    5    5    0    0 -0.72308085805E+02  0.42306243029E+02 -0.10052506388E+02  0.11587616127E+03  0.79422631504E+02 0.  0.
          5    1    3    3  501    0 -0.37712643489E+02 -0.79811803046E+02  0.74866011614E+02  0.11584117178E+03  0.47000000000E+01 0. -1.
        -11    1    4    4    0    0  0.30277863988E+01  0.26167365182E+02 -0.26212396337E+01  0.26472049189E+02  0.00000000000E+00 0.  1.
         12    1    4    4    0    0  0.60583974523E+02 -0.46095208527E+02 -0.22301641744E+01  0.76158780521E+02  0.00000000000E+00 0. -1.
         -5    1    5    5    0  502  0.46408968372E+02  0.57433403361E+02 -0.65329030378E+02  0.98703395975E+02  0.47000000000E+01 0.  1.
         13    1    6    6    0    0 -0.56530111391E+02 -0.58255264295E+01 -0.26385477246E+02  0.62656074419E+02  0.00000000000E+00 0. -1.
        -14    1    6    6    0    0 -0.15777974413E+02  0.48131769459E+02  0.16332970858E+02  0.53220086855E+02  0.00000000000E+00 0.  1.
</event>
<event>
12    1  0.9028446E-003  0.2378927E+03  0.7818608E-02  0.1121219E+00
         21   -1    0    0  501  502  0.00000000000E+00  0.00000000000E+00  0.64780923917E+03  0.64780923917E+03  0.00000000000E+00 0. -1.
         21   -1    0    0  502  503 -0.00000000000E+00 -0.00000000000E+00 -0.97590207339E+02  0.97590207339E+02  0.00000000000E+00 0. -1.
          6    2    1    2  501    0  0.19009440095E+02  0.16377873323E+03  0.15422212820E+03  0.28344005601E+03  0.17137376769E+03 0.  0.
         24    2    3    3    0    0  0.23768619356E+02  0.15094599487E+03  0.51779084172E+02  0.17997993698E+03  0.79762544610E+02 0.  0.
         -6    2    1    2    0  503 -0.19009440095E+02 -0.16377873323E+03  0.39599690363E+03  0.46195939050E+03  0.17148789611E+03 0.  0.
        -24    2    5    5    0    0  0.71376609752E+01 -0.18655407133E+03  0.32513523892E+03  0.38292868478E+03  0.77897922359E+02 0.  0.
          5    1    3    3  501    0 -0.47591792617E+01  0.12832738363E+02  0.10244304403E+03  0.10346011904E+03  0.47000000000E+01 0. -1.
        -13    1    4    4    0    0  0.30995488183E+02  0.12244065993E+02  0.13060075066E+02  0.35793896135E+02  0.00000000000E+00 0.  1.
         14    1    4    4    0    0 -0.72268688269E+01  0.13870192888E+03  0.38719009105E+02  0.14418604084E+03  0.00000000000E+00 0. -1.
         -5    1    5    5    0  503 -0.26147101070E+02  0.22775338100E+02  0.70861664711E+02  0.79030705713E+02  0.47000000000E+01 0.  1.
         13    1    6    6    0    0 -0.28621742698E+02 -0.70423621195E+02  0.86629229369E+02  0.11525326008E+03  0.00000000000E+00 0. -1.
        -14    1    6    6    0    0  0.35759403673E+02 -0.11613045014E+03  0.23850600955E+03  0.26767542471E+03  0.00000000000E+00 0.  1.
</event>
<event>
12    1  0.9028446E-003  0.2231697E+03  0.7818608E-02  0.1131554E+00
         21   -1    0    0  501  502  0.00000000000E+00  0.00000000000E+00  0.16034252554E+03  0.16034252554E+03  0.00000000000E+00 0.  1.
         21   -1    0    0  502  503 -0.00000000000E+00 -0.00000000000E+00 -0.33129399369E+03  0.33129399369E+03  0.00000000000E+00 0.  1.
          6    2    1    2  501    0  0.14152976521E+03 -0.18916133009E+02 -0.23913986234E+02  0.22438248690E+03  0.17142673992E+03 0.  0.
         24    2    3    3    0    0  0.34321236287E+01 -0.23280282003E+02 -0.54833200771E+01  0.84912834783E+02  0.81402528886E+02 0.  0.
         -6    2    1    2    0  503 -0.14152976521E+03  0.18916133009E+02 -0.14703748191E+03  0.26725403234E+03  0.17151152202E+03 0.  0.
        -24    2    5    5    0    0 -0.86623366312E+02 -0.25966117158E+02 -0.21545174208E+02  0.12303358194E+03  0.80592933450E+02 0.  0.
          5    1    3    3  501    0  0.13809764158E+03  0.43641489940E+01 -0.18430666157E+02  0.13946965211E+03  0.47000000000E+01 0. -1.
        -11    1    4    4    0    0  0.36359347512E+02 -0.64528661474E+00  0.15790746137E+02  0.39645506806E+02  0.00000000000E+00 0.  1.
         12    1    4    4    0    0 -0.32927223883E+02 -0.22634995388E+02 -0.21274066214E+02  0.45267327977E+02  0.00000000000E+00 0. -1.
         -5    1    5    5    0  503 -0.54906398893E+02  0.44882250167E+02 -0.12549230771E+03  0.14422045040E+03  0.47000000000E+01 0.  1.
         11    1    6    6    0    0 -0.81281696767E+02 -0.48220941402E+02 -0.29172647696E+02  0.98909134020E+02  0.00000000000E+00 0. -1.
        -12    1    6    6    0    0 -0.53416695455E+01  0.22254824244E+02  0.76274734885E+01  0.24124447921E+02  0.00000000000E+00 0.  1.
</event>
<event>
12    1  0.9028446E-003  0.1734176E+03  0.7818608E-02  0.1174626E+00
         21   -1    0    0  501  502  0.00000000000E+00  0.00000000000E+00  0.92991898047E+02  0.92991898047E+02  0.00000000000E+00 0.  1.
         21   -1    0    0  502  503 -0.00000000000E+00 -0.00000000000E+00 -0.32826782549E+03  0.32826782549E+03  0.00000000000E+00 0.  1.
          6    2    1    2  501    0 -0.16334391132E+02  0.15971973442E+01 -0.87198331164E+02  0.19410615491E+03  0.17263918166E+03 0.  0.
         24    2    3    3    0    0  0.37880330074E+02  0.22901757539E+02 -0.99840085503E+02  0.13431464855E+03  0.78185498891E+02 0.  0.
         -6    2    1    2    0  503  0.16334391132E+02 -0.15971973442E+01 -0.14807759628E+03  0.22715356862E+03  0.17147129744E+03 0.  0.
        -24    2    5    5    0    0 -0.61506530231E+01  0.38791275821E+02 -0.15638914549E+03  0.17995210863E+03  0.79891194514E+02 0.  0.
          5    1    3    3  501    0 -0.54214721205E+02 -0.21304560195E+02  0.12641754339E+02  0.59791506364E+02  0.47000000000E+01 0. -1.
        -13    1    4    4    0    0  0.32716153511E+02  0.19700630139E+02 -0.41306440044E+01  0.38412546757E+02  0.00000000000E+00 0.  1.
         14    1    4    4    0    0  0.51641765625E+01  0.32011273994E+01 -0.95709441499E+02  0.95902101793E+02  0.00000000000E+00 0. -1.
         -5    1    5    5    0  503  0.22485044155E+02 -0.40388473165E+02  0.83115492099E+01  0.47201459994E+02  0.47000000000E+01 0.  1.
         13    1    6    6    0    0 -0.20394896748E+01  0.14111095671E+02  0.61290083444E+01  0.15519255216E+02  0.00000000000E+00 0. -1.
        -14    1    6    6    0    0 -0.41111633483E+01  0.24680180150E+02 -0.16251815383E+03  0.16443285341E+03  0.00000000000E+00 0.  1.
</event>
<event>
12    1  0.9028446E-003  0.1845427E+03  0.7818608E-02  0.1163727E+00
         21   -1    0    0  501  502  0.00000000000E+00  0.00000000000E+00  0.54968939367E+03  0.54968939367E+03  0.00000000000E+00 0.  1.
         21   -1    0    0  502  503 -0.00000000000E+00 -0.00000000000E+00 -0.74012102874E+02  0.74012102874E+02  0.00000000000E+00 0. -1.
          6    2    1    2  501    0 -0.21446577286E+02  0.62852528552E+02  0.36611767440E+03  0.40999774546E+03  0.17217898755E+03 0.  0.
         24    2    3    3    0    0  0.20203546984E+02 -0.13917461908E+02  0.91580488175E+02  0.12186388611E+03  0.76563319325E+02 0.  0.
         -6    2    1    2    0  503  0.21446577286E+02 -0.62852528552E+02  0.10955961639E+03  0.21370375108E+03  0.17104264865E+03 0.  0.
        -24    2    5    5    0    0  0.68958560709E+02 -0.12257161510E+02  0.34313680232E+02  0.11122779954E+03  0.79301157848E+02 0.  0.
          5    1    3    3  501    0 -0.41650124270E+02  0.76769990460E+02  0.27453718622E+03  0.28813385935E+03  0.47000000000E+01 0. -1.
        -13    1    4    4    0    0 -0.25475496409E+02  0.11655588745E+02  0.30289068233E+02  0.41258712058E+02  0.00000000000E+00 0.  1.
         14    1    4    4    0    0  0.45679043393E+02 -0.25573050653E+02  0.61291419942E+02  0.80605174049E+02  0.00000000000E+00 0. -1.
         -5    1    5    5    0  503 -0.47511983423E+02 -0.50595367043E+02  0.75245936162E+02  0.10247595154E+03  0.47000000000E+01 0.  1.
         13    1    6    6    0    0  0.10544899691E+02 -0.14630602245E+01 -0.25067831308E+02  0.27234750250E+02  0.00000000000E+00 0. -1.
        -14    1    6    6    0    0  0.58413661019E+02 -0.10794101285E+02  0.59381511540E+02  0.83993049290E+02  0.00000000000E+00 0.  1.
</event>
<event>
12    1  0.9028446E-003  0.1798484E+03  0.7818608E-02  0.1168036E+00
         21   -1    0    0  501  502  0.00000000000E+00  0.00000000000E+00  0.12815170539E+03  0.12815170539E+03  0.00000000000E+00 0. -1.
         21   -1    0    0  502  503 -0.00000000000E+00 -0.00000000000E+00 -0.32978952240E+03  0.32978952240E+03  0.00000000000E+00 0. -1.
          6    2    1    2  501    0 -0.22449829266E+02  0.48624332765E+02  0.10533309334E+02  0.17980093106E+03  0.17131580089E+03 0.  0.
         24    2    3    3    0    0 -0.25725025911E+02  0.98845959313E+02  0.93971504861E+01  0.12924087229E+03  0.78629485571E+02 0.  0.
         -6    2    1    2    0  503  0.22449829266E+02 -0.48624332765E+02 -0.21217112634E+03  0.27814029673E+03  0.17168901316E+03 0.  0.
        -24    2    5    5    0    0 -0.12928285165E+02 -0.71650894504E+02 -0.20899591087E+03  0.23554915305E+03  0.80641933899E+02 0.  0.
          5    1    3    3  501    0  0.32751966445E+01 -0.50221626548E+02  0.11361588479E+01  0.50560058773E+02  0.47000000000E+01 0. -1.
        -11    1    4    4    0    0  0.22189547754E+02  0.63294210272E+02 -0.68081536462E+01  0.67415755129E+02  0.00000000000E+00 0.  1.
         12    1    4    4    0    0 -0.47914573665E+02  0.35551749041E+02  0.16205304132E+02  0.61825117156E+02  0.00000000000E+00 0. -1.
         -5    1    5    5    0  503  0.35378114431E+02  0.23026561740E+02 -0.31752154708E+01  0.42591143675E+02  0.47000000000E+01 0.  1.
         13    1    6    6    0    0 -0.17028923500E+02 -0.29464489371E+02 -0.18231815639E+03  0.18546711439E+03  0.00000000000E+00 0. -1.
        -14    1    6    6    0    0  0.41006383353E+01 -0.42186405133E+02 -0.26677754478E+02  0.50082038665E+02  0.00000000000E+00 0.  1.
</event>
<event>
12    1  0.9028446E-003  0.2160327E+03  0.7818608E-02  0.1137069E+00
         21   -1    0    0  501  502  0.00000000000E+00  0.00000000000E+00  0.31348584907E+03  0.31348584907E+03  0.00000000000E+00 0. -1.
         21   -1    0    0  502  503 -0.00000000000E+00 -0.00000000000E+00 -0.36695435819E+03  0.36695435819E+03  0.00000000000E+00 0. -1.
          6    2    1    2  501    0 -0.11203160398E+03  0.64408532865E+02  0.23598589541E+03  0.31925608819E+03  0.17185915053E+03 0.  0.
         24    2    3    3    0    0 -0.10342152677E+03  0.26034362608E+02  0.73594165776E+02  0.15210383955E+03  0.79659754797E+02 0.  0.
         -6    2    1    2    0  503  0.11203160398E+03 -0.64408532865E+02 -0.28945440454E+03  0.36118411906E+03  0.17312012062E+03 0.  0.
        -24    2    5    5    0    0  0.18649071146E+02 -0.18299317875E+02 -0.45515097977E+02  0.95901566998E+02  0.80267263063E+02 0.  0.
          5    1    3    3  501    0 -0.86100772073E+01  0.38374170257E+02  0.16239172964E+03  0.16715224864E+03  0.47000000000E+01 0. -1.
        -13    1    4    4    0    0  0.82896195949E+01 -0.12153101384E+02  0.11754570106E+02  0.18830443029E+02  0.00000000000E+00 0.  1.
         14    1    4    4    0    0 -0.11171114636E+03  0.38187463992E+02  0.61839595670E+02  0.13327339652E+03  0.00000000000E+00 0. -1.
         -5    1    5    5    0  503  0.93382532831E+02 -0.46109214990E+02 -0.24393930656E+03  0.26528255206E+03  0.47000000000E+01 0.  1.
         13    1    6    6    0    0 -0.17695307130E+01 -0.48002981493E+02 -0.30184467803E+02  0.56731997742E+02  0.00000000000E+00 0. -1.
        -14    1    6    6    0    0  0.20418601859E+02  0.29703663618E+02 -0.15330630174E+02  0.39169569257E+02  0.00000000000E+00 0.  1.
</event>
<event>
12    1  0.9028446E-003  0.1834669E+03  0.7818608E-02  0.1164568E+00
         21   -1    0    0  503  502  0.00000000000E+00  0.00000000000E+00  0.53946333376E+03  0.53946333376E+03  0.00000000000E+00 0. -1.
         21   -1    0    0  501  503 -0.00000000000E+00 -0.00000000000E+00 -0.80779404147E+02  0.80779404147E+02  0.00000000000E+00 0. -1.
          6    2    1    2  501    0 -0.38034269010E+02  0.51133545860E+02  0.81104446631E+02  0.20059424751E+03  0.17204323799E+03 0.  0.
         24    2    3    3    0    0 -0.23141869556E+02  0.80381930445E+02  0.27800509626E+01  0.11554101407E+03  0.79656740955E+02 0.  0.
         -6    2    1    2    0  502  0.38034269010E+02 -0.51133545860E+02  0.37757948298E+03  0.41964849040E+03  0.17168967468E+03 0.  0.
        -24    2    5    5    0    0 -0.17272760686E+02 -0.32180817988E+02  0.80119508716E+02  0.11646109007E+03  0.76223989103E+02 0.  0.
          5    1    3    3  501    0 -0.14892399455E+02 -0.29248384585E+02  0.78324395668E+02  0.85053233443E+02  0.47000000000E+01 0. -1.
        -13    1    4    4    0    0  0.25726530485E+02  0.18547240975E+02 -0.14471732468E+02  0.34860946045E+02  0.00000000000E+00 0.  1.
         14    1    4    4    0    0 -0.48868400040E+02  0.61834689470E+02  0.17251783430E+02  0.80680068021E+02  0.00000000000E+00 0. -1.
         -5    1    5    5    0  502  0.55307029697E+02 -0.18952727873E+02  0.29745997427E+03  0.30318740033E+03  0.47000000000E+01 0.  1.
         11    1    6    6    0    0  0.19973190720E+02  0.13904416138E+02  0.15841559196E+02  0.29038184059E+02  0.00000000000E+00 0. -1.
        -12    1    6    6    0    0 -0.37245951406E+02 -0.46085234126E+02  0.64277949519E+02  0.87422906009E+02  0.00000000000E+00 0.  1.
</event>
<event>
12    1  0.9028446E-003  0.2265905E+03  0.7818608E-02  0.1129133E+00
         21   -1    0    0  501  502  0.00000000000E+00  0.00000000000E+00  0.78467967745E+02  0.78467967745E+02  0.00000000000E+00 0.  1.
         21   -1    0    0  502  503 -0.00000000000E+00 -0.00000000000E+00 -0.74840857305E+03  0.74840857305E+03  0.00000000000E+00 0.  1.
          6    2    1    2  501    0  0.35946279391E+02  0.14314407376E+03 -0.48218938361E+03  0.53260833189E+03  0.17141374707E+03 0.  0.
         24    2    3    3    0    0  0.51508696658E+02  0.21279637001E+02 -0.25774483707E+03  0.27669706944E+03  0.83802735170E+02 0.  0.
         -6    2    1    2    0  503 -0.35946279391E+02 -0.14314407376E+03 -0.18775122170E+03  0.29426820891E+03  0.17193282603E+03 0.  0.
        -24    2    5    5    0    0  0.21639530685E+02 -0.61394842576E+02 -0.15714635531E+03  0.18958864945E+03  0.83733404504E+02 0.  0.
          5    1    3    3  501    0 -0.15562417267E+02  0.12186443676E+03 -0.22444454654E+03  0.25591126245E+03  0.47000000000E+01 0. -1.
        -11    1    4    4    0    0 -0.92737130928E+01  0.26045813846E+02 -0.15318496289E+03  0.15565994677E+03  0.00000000000E+00 0.  1.
         12    1    4    4    0    0  0.60782409751E+02 -0.47661768449E+01 -0.10455987418E+03  0.12103712267E+03  0.00000000000E+00 0. -1.
         -5    1    5    5    0  503 -0.57585810075E+02 -0.81749231184E+02 -0.30604866397E+02  0.10467955946E+03  0.47000000000E+01 0.  1.
         13    1    6    6    0    0  0.37914673937E+02 -0.73574009088E+02 -0.10554897871E+03  0.13413144381E+03  0.00000000000E+00 0. -1.
        -14    1    6    6    0    0 -0.16275143253E+02  0.12179166512E+02 -0.51597376601E+02  0.55457205636E+02  0.00000000000E+00 0.  1.
</event>
<event>
12    1  0.9028446E-003  0.3664661E+03  0.7818608E-02  0.1056147E+00
         21   -1    0    0  501  502  0.00000000000E+00  0.00000000000E+00  0.81767969628E+02  0.81767969628E+02  0.00000000000E+00 0. -1.
         21   -1    0    0  502  503 -0.00000000000E+00 -0.00000000000E+00 -0.18543749693E+04  0.18543749693E+04  0.00000000000E+00 0.  1.
          6    2    1    2  501    0  0.29988560706E+03 -0.12004696875E+03 -0.55671298929E+03  0.66650340062E+03  0.17307448849E+03 0.  0.
         24    2    3    3    0    0  0.19278888119E+03 -0.44110105589E+02 -0.44676834146E+03  0.49519656636E+03  0.80650073006E+02 0.  0.
         -6    2    1    2    0  503 -0.29988560706E+03  0.12004696875E+03 -0.12158940104E+04  0.12696395383E+04  0.17100777973E+03 0.  0.
        -24    2    5    5    0    0 -0.25537926989E+03  0.95696445794E+02 -0.76792193605E+03  0.81877943651E+03  0.79493927781E+02 0.  0.
          5    1    3    3  501    0  0.10709672586E+03 -0.75936863156E+02 -0.10994464782E+03  0.17130683425E+03  0.47000000000E+01 0. -1.
        -11    1    4    4    0    0  0.18742304260E+03 -0.42410658298E+02 -0.35853796291E+03  0.40678683814E+03  0.00000000000E+00 0.  1.
         12    1    4    4    0    0  0.53658385919E+01 -0.16994472917E+01 -0.88230378550E+02  0.88409728221E+02  0.00000000000E+00 0. -1.
         -5    1    5    5    0  503 -0.44506337174E+02  0.24350522951E+02 -0.44797207432E+03  0.45086010179E+03  0.47000000000E+01 0.  1.
         13    1    6    6    0    0 -0.13379610444E+03  0.12173955514E+02 -0.41726589690E+03  0.43836107431E+03  0.00000000000E+00 0. -1.
        -14    1    6    6    0    0 -0.12158316545E+03  0.83522490280E+02 -0.35065603915E+03  0.38041836219E+03  0.00000000000E+00 0.  1.
</event>
<event>
12    1  0.9028446E-003  0.2633626E+03  0.7818608E-02  0.1105432E+00
         21   -1    0    0  503  502  0.00000000000E+00  0.00000000000E+00  0.20072306545E+04  0.20072306545E+04  0.00000000000E+00 0. -1.
         21   -1    0    0  501  503 -0.00000000000E+00 -0.00000000000E+00 -0.37788547944E+02  0.37788547944E+02  0.00000000000E+00 0. -1.
          6    2    1    2  501    0 -0.10716596981E+03 -0.16452391092E+03  0.12988742824E+04  0.13253053460E+04  0.17551978923E+03 0.  0.
         24    2    3    3    0    0 -0.14088670752E+03 -0.13885976430E+03  0.11789979192E+04  0.11980726104E+04  0.78808551097E+02 0.  0.
         -6    2    1    2    0  502  0.10716596981E+03  0.16452391092E+03  0.67056782421E+03  0.71971385645E+03  0.17255192251E+03 0.  0.
        -24    2    5    5    0    0  0.58739924194E+02  0.18253991596E+02  0.35458936918E+03  0.36813961787E+03  0.77521420329E+02 0.  0.
          5    1    3    3  501    0  0.33720737712E+02 -0.25664146614E+02  0.11987636317E+03  0.12723273565E+03  0.47000000000E+01 0. -1.
        -11    1    4    4    0    0 -0.12405240910E+02 -0.73191404490E+01  0.20388555585E+02  0.24963033025E+02  0.00000000000E+00 0.  1.
         12    1    4    4    0    0 -0.12848146661E+03 -0.13154062385E+03  0.11586093636E+04  0.11731095774E+04  0.00000000000E+00 0. -1.
         -5    1    5    5    0  502  0.48426045619E+02  0.14626991932E+03  0.31597845503E+03  0.35157423858E+03  0.47000000000E+01 0.  1.
         13    1    6    6    0    0  0.18714585448E+02 -0.27760304707E+02  0.77570134459E+02  0.84486661586E+02  0.00000000000E+00 0. -1.
        -14    1    6    6    0    0  0.40025338746E+02  0.46014296303E+02  0.27701923472E+03  0.28365295628E+03  0.00000000000E+00 0.  1.
</event>
<event>
12    1  0.9028446E-003  0.2096274E+03  0.7818608E-02  0.1141881E+00
         21   -1    0    0  503  502  0.00000000000E+00  0.00000000000E+00  0.19599595229E+03  0.19599595229E+03  0.00000000000E+00 0. -1.
         21   -1    0    0  501  503 -0.00000000000E+00 -0.00000000000E+00 -0.22998019522E+03  0.22998019522E+03  0.00000000000E+00 0. -1.
          6    2    1    2  501    0 -0.61630017043E+01 -0.12005444305E+03 -0.51041319145E+02  0.21565594628E+03  0.17161357470E+03 0.  0.
         24    2    3    3    0    0 -0.15887236062E+02 -0.15270461209E+03 -0.55203861174E+02  0.18101477095E+03  0.78407768683E+02 0.  0.
         -6    2    1    2    0  502  0.61630017043E+01  0.12005444305E+03  0.17057076210E+02  0.21032020124E+03  0.17173407150E+03 0.  0.
        -24    2    5    5    0    0  0.52010053989E+02  0.73271135517E+02 -0.36681088235E+02  0.12546438008E+03  0.79511655864E+02 0.  0.
          5    1    3    3  501    0  0.97242343577E+01  0.32650169042E+02  0.41625420291E+01  0.34641175333E+02  0.47000000000E+01 0. -1.
        -13    1    4    4    0    0 -0.22899055722E+02 -0.19418647552E+02 -0.34852890187E+02  0.46001897570E+02  0.00000000000E+00 0.  1.
         14    1    4    4    0    0  0.70118196597E+01 -0.13328596454E+03 -0.20350970987E+02  0.13501287338E+03  0.00000000000E+00 0. -1.
         -5    1    5    5    0  502 -0.45847052284E+02  0.46783307530E+02  0.53738164445E+02  0.84855821159E+02  0.47000000000E+01 0.  1.
         11    1    6    6    0    0  0.52230899425E+02  0.39110047784E+02  0.11646240513E+02  0.66281955391E+02  0.00000000000E+00 0. -1.
        -12    1    6    6    0    0 -0.22084543652E+00  0.34161087733E+02 -0.48327328748E+02  0.59182424686E+02  0.00000000000E+00 0.  1.
</event>
<event>
12    1  0.9028446E-003  0.1881976E+03  0.7818608E-02  0.1160182E+00
         21   -1    0    0  501  502  0.00000000000E+00  0.00000000000E+00  0.37277648878E+03  0.37277648878E+03  0.00000000000E+00 0. -1.
         21   -1    0    0  502  503 -0.00000000000E+00 -0.00000000000E+00 -0.10077651040E+03  0.10077651040E+03  0.00000000000E+00 0. -1.
          6    2    1    2  501    0  0.52275569130E+02  0.54827310504E+02  0.19341262393E+03  0.26960620657E+03  0.17187290194E+03 0.  0.
         24    2    3    3    0    0  0.94941400469E+02  0.14789548978E+02  0.15750716347E+03  0.20079714029E+03  0.79236258879E+02 0.  0.
         -6    2    1    2    0  503 -0.52275569130E+02 -0.54827310504E+02  0.78587354451E+02  0.20394679261E+03  0.17227754593E+03 0.  0.
        -24    2    5    5    0    0 -0.56311673302E+02  0.30922301867E+02  0.47119471157E+02  0.11239569301E+03  0.79280224159E+02 0.  0.
          5    1    3    3  501    0 -0.42665831338E+02  0.40037761526E+02  0.35905460459E+02  0.68809066282E+02  0.47000000000E+01 0. -1.
        -13    1    4    4    0    0  0.14830141725E+01 -0.12737084098E+02 -0.28750651676E+01  0.13141485535E+02  0.00000000000E+00 0.  1.
         14    1    4    4    0    0  0.93458386296E+02  0.27526633076E+02  0.16038222864E+03  0.18765565475E+03  0.00000000000E+00 0. -1.
         -5    1    5    5    0  503  0.40361041720E+01 -0.85749612371E+02  0.31467883294E+02  0.91551099599E+02  0.47000000000E+01 0.  1.
         11    1    6    6    0    0  0.57404612555E+01  0.15396964914E+02 -0.15710871683E+02  0.22734355346E+02  0.00000000000E+00 0. -1.
        -12    1    6    6    0    0 -0.62052134558E+02  0.15525336953E+02  0.62830342839E+02  0.89661337666E+02  0.00000000000E+00 0.  1.
</event>
<event>
12    1  0.9028446E-003  0.2037037E+03  0.7818608E-02  0.1151186E+00
         21   -1    0    0  503  502  0.00000000000E+00  0.00000000000E+00  0.32938184743E+02  0.32938184743E+02  0.00000000000E+00 0. -1.
         21   -1    0    0  501  503 -0.00000000000E+00 -0.00000000000E+00 -0.11357412369E+04  0.11357412369E+04  0.00000000000E+00 0. -1.
          6    2    1    2  501    0 -0.58131930303E+02  0.24195970702E+02 -0.54119445604E+03  0.57126882396E+03  0.17173195295E+03 0.  0.
         24    2    3    3    0    0  0.31993743427E+02  0.10379923890E+02 -0.30280327934E+03  0.31599257489E+03  0.83845923962E+02 0.  0.
         -6    2    1    2    0  502  0.58131930303E+02 -0.24195970702E+02 -0.56160859617E+03  0.59741059773E+03  0.19372774885E+03 0.  0.
        -24    2    5    5    0    0  0.80368915583E+02  0.48549556846E+02 -0.40532433658E+03  0.42353347132E+03  0.79224752737E+02 0.  0.
          5    1    3    3  501    0 -0.90125673730E+02  0.13816046812E+02 -0.23839117670E+03  0.25527624908E+03  0.47000000000E+01 0. -1.
        -11    1    4    4    0    0 -0.87800820297E+01 -0.65903508073E+01 -0.10543529135E+01  0.11028790699E+02  0.00000000000E+00 0.  1.
         12    1    4    4    0    0  0.40773825456E+02  0.16970274697E+02 -0.30174892643E+03  0.30496378419E+03  0.00000000000E+00 0. -1.
         -5    1    5    5    0  502 -0.22236985280E+02 -0.72745527548E+02 -0.15628425959E+03  0.17387712641E+03  0.47000000000E+01 0.  1.
         11    1    6    6    0    0  0.39717535102E+02  0.26971791991E+02 -0.68908713184E+02  0.83984349199E+02  0.00000000000E+00 0. -1.
        -12    1    6    6    0    0  0.40651380481E+02  0.21577764856E+02 -0.33641562339E+03  0.33954912212E+03  0.00000000000E+00 0.  1.
</event>
<event>
12    1  0.9028446E-003  0.2132139E+03  0.7818608E-02  0.1139617E+00
         21   -1    0    0  503  502  0.00000000000E+00  0.00000000000E+00  0.12167577129E+03  0.12167577129E+03  0.00000000000E+00 0. -1.
         21   -1    0    0  501  503 -0.00000000000E+00 -0.00000000000E+00 -0.37737379835E+03  0.37737379835E+03  0.00000000000E+00 0. -1.
          6    2    1    2  501    0 -0.10388594516E+03 -0.69675576979E+02 -0.16693148763E+03  0.27078825582E+03  0.17266494230E+03 0.  0.
         24    2    3    3    0    0 -0.13351148930E+03 -0.22840012567E+02 -0.11658691638E+03  0.19576886623E+03  0.79912176581E+02 0.  0.
         -6    2    1    2    0  502  0.10388594516E+03  0.69675576979E+02 -0.88766539426E+02  0.22826131382E+03  0.16904660078E+03 0.  0.
        -24    2    5    5    0    0  0.23522890351E+02  0.25309296883E+02 -0.98693381774E+02  0.13581013975E+03  0.86660969154E+02 0.  0.
          5    1    3    3  501    0  0.29625544146E+02 -0.46835564411E+02 -0.50344571250E+02  0.75019389587E+02  0.47000000000E+01 0. -1.
        -11    1    4    4    0    0 -0.40158860189E+02  0.10717750515E+02  0.14404836994E+01  0.41589412367E+02  0.00000000000E+00 0.  1.
         12    1    4    4    0    0 -0.93352629115E+02 -0.33557763082E+02 -0.11802740008E+03  0.15417945387E+03  0.00000000000E+00 0. -1.
         -5    1    5    5    0  502  0.80363054807E+02  0.44366280096E+02  0.99268423478E+01  0.92451174067E+02  0.47000000000E+01 0.  1.
         13    1    6    6    0    0  0.23646899633E+02  0.50208649316E+02 -0.30750225838E+02  0.63448094672E+02  0.00000000000E+00 0. -1.
        -14    1    6    6    0    0 -0.12400928210E+00 -0.24899352433E+02 -0.67943155936E+02  0.72362045082E+02  0.00000000000E+00 0.  1.
</event>
<event>
12    1  0.9028446E-003  0.2957950E+03  0.7818608E-02  0.1087516E+00
         21   -1    0    0  503  502  0.00000000000E+00  0.00000000000E+00  0.74192494326E+03  0.74192494326E+03  0.00000000000E+00 0. -1.
         21   -1    0    0  501  503 -0.00000000000E+00 -0.00000000000E+00 -0.11958775561E+03  0.11958775561E+03  0.00000000000E+00 0.  1.
          6    2    1    2  501    0  0.23279186042E+03  0.49990523190E+02  0.25416530761E+03  0.38999322182E+03  0.17550956324E+03 0.  0.
         24    2    3    3    0    0  0.62983495254E+02 -0.98185696830E+01  0.39125237787E+02  0.10950020925E+03  0.79976162760E+02 0.  0.
         -6    2    1    2    0  502 -0.23279186042E+03 -0.49990523190E+02  0.36817188003E+03  0.47151947705E+03  0.17346175747E+03 0.  0.
        -24    2    5    5    0    0 -0.15233997441E+03  0.30621496752E+02  0.21896562919E+03  0.28375526584E+03  0.91793029455E+02 0.  0.
          5    1    3    3  501    0  0.16980836516E+03  0.59809092873E+02  0.21504006982E+03  0.28049301257E+03  0.47000000000E+01 0. -1.
        -13    1    4    4    0    0  0.67151468473E+02  0.18169535138E+02  0.12566521120E+02  0.70692072952E+02  0.00000000000E+00 0.  1.
         14    1    4    4    0    0 -0.41679732196E+01 -0.27988104821E+02  0.26558716667E+02  0.38808136302E+02  0.00000000000E+00 0. -1.
         -5    1    5    5    0  502 -0.80451886004E+02 -0.80612019942E+02  0.14920625085E+03  0.18776421121E+03  0.47000000000E+01 0.  1.
         13    1    6    6    0    0 -0.14884919521E+03  0.24398130865E+02  0.22729338060E+03  0.27278862251E+03  0.00000000000E+00 0. -1.
        -14    1    6    6    0    0 -0.34907792025E+01  0.62233658872E+01 -0.83277514100E+01  0.10966643331E+02  0.00000000000E+00 0.  1.
</event>
<event>
12    1  0.9028446E-003  0.1822138E+03  0.7818608E-02  0.1166057E+00
         21   -1    0    0  503  502  0.00000000000E+00  0.00000000000E+00  0.57854274270E+02  0.57854274270E+02  0.00000000000E+00 0. -1.
         21   -1    0    0  501  503 -0.00000000000E+00 -0.00000000000E+00 -0.72938521326E+03  0.72938521326E+03  0.00000000000E+00 0. -1.
          6    2    1    2  501    0 -0.25494380268E+02 -0.50637873988E+02 -0.52154203730E+03  0.55245630016E+03  0.17316959667E+03 0.  0.
         24    2    3    3    0    0 -0.35900504089E+01 -0.52607869394E+02 -0.51935418409E+03  0.52986078622E+03  0.90792113442E+02 0.  0.
         -6    2    1    2    0  502  0.25494380268E+02  0.50637873988E+02 -0.14998890169E+03  0.23478318737E+03  0.17150019456E+03 0.  0.
        -24    2    5    5    0    0 -0.34838797786E+02  0.60522100869E+02 -0.50467281699E+02  0.11788822101E+03  0.80461292588E+02 0.  0.
          5    1    3    3  501    0 -0.21904329859E+02  0.19699954068E+01 -0.21878532116E+01  0.22595513939E+02  0.47000000000E+01 0. -1.
        -11    1    4    4    0    0  0.62268470687E+01 -0.64898863008E+01 -0.64949022620E+00  0.90174323490E+01  0.00000000000E+00 0.  1.
         12    1    4    4    0    0 -0.98168974776E+01 -0.46117983094E+02 -0.51870469386E+03  0.52084335387E+03  0.00000000000E+00 0. -1.
         -5    1    5    5    0  502  0.60333178054E+02 -0.98842268817E+01 -0.99521619993E+02  0.11689496636E+03  0.47000000000E+01 0.  1.
         13    1    6    6    0    0  0.15054536631E+02  0.53897372252E+02 -0.22550042124E+02  0.60332994361E+02  0.00000000000E+00 0. -1.
        -14    1    6    6    0    0 -0.49893334417E+02  0.66247286173E+01 -0.27917239576E+02  0.57555226644E+02  0.00000000000E+00 0.  1.
</event>
<event>
12    1  0.9028446E-003  0.1802379E+03  0.7818608E-02  0.1167759E+00
         21   -1    0    0  501  502  0.00000000000E+00  0.00000000000E+00  0.26361984917E+03  0.26361984917E+03  0.00000000000E+00 0.  1.
         21   -1    0    0  502  503 -0.00000000000E+00 -0.00000000000E+00 -0.12666522398E+03  0.12666522398E+03  0.00000000000E+00 0.  1.
          6    2    1    2  501    0 -0.96649497875E+01 -0.52581940670E+02  0.33832289263E+02  0.18263175497E+03  0.17132268498E+03 0.  0.
         24    2    3    3    0    0 -0.32730422646E+02  0.28067273411E+02  0.37204702352E+02  0.98549801261E+02  0.80428981395E+02 0.  0.
         -6    2    1    2    0  503  0.96649497875E+01  0.52581940670E+02  0.10312233593E+03  0.20765331817E+03  0.17212615328E+03 0.  0.
        -24    2    5    5    0    0 -0.45553581307E+02  0.10932568094E+01  0.17714435829E+02  0.93562257429E+02  0.79773246129E+02 0.  0.
          5    1    3    3  501    0  0.23065472858E+02 -0.80649214081E+02 -0.33724130882E+01  0.84081953712E+02  0.47000000000E+01 0. -1.
        -13    1    4    4    0    0  0.20291054170E+02  0.46948711084E+01  0.34799200029E+02  0.40555554697E+02  0.00000000000E+00 0.  1.
         14    1    4    4    0    0 -0.53021476816E+02  0.23372402303E+02  0.24055023224E+01  0.57994246565E+02  0.00000000000E+00 0. -1.
         -5    1    5    5    0  503  0.55218531095E+02  0.51488683860E+02  0.85407900102E+02  0.11409106074E+03  0.47000000000E+01 0.  1.
         11    1    6    6    0    0 -0.57909411592E+02 -0.14233698898E+02  0.33436799436E+02  0.68367519274E+02  0.00000000000E+00 0. -1.
        -12    1    6    6    0    0  0.12355830284E+02  0.15326955708E+02 -0.15722363607E+02  0.25194738154E+02  0.00000000000E+00 0.  1.
</event>
<event>
12    1  0.9028446E-003  0.2673233E+03  0.7818608E-02  0.1102951E+00
         21   -1    0    0  503  502  0.00000000000E+00  0.00000000000E+00  0.24376677127E+03  0.24376677127E+03  0.00000000000E+00 0. -1.
         21   -1    0    0  501  503 -0.00000000000E+00 -0.00000000000E+00 -0.31193584214E+03  0.31193584214E+03  0.00000000000E+00 0.  1.
          6    2    1    2  501    0  0.15576236554E+03 -0.13321763661E+03 -0.10406346084E+03  0.28686396001E+03  0.17161839776E+03 0.  0.
         24    2    3    3    0    0  0.12838058693E+03 -0.15244848470E+03 -0.12373742422E+03  0.24776482763E+03  0.79714139727E+02 0.  0.
         -6    2    1    2    0  502 -0.15576236554E+03  0.13321763661E+03  0.35894389972E+02  0.26883865340E+03  0.17022620570E+03 0.  0.
        -24    2    5    5    0    0 -0.31536346382E+02  0.41774580589E+02 -0.29974670604E+02  0.10104485294E+03  0.81067408383E+02 0.  0.
          5    1    3    3  501    0  0.27381778607E+02  0.19230848086E+02  0.19673963376E+02  0.39099132378E+02  0.47000000000E+01 0. -1.
        -11    1    4    4    0    0  0.11577630974E+03 -0.11289236085E+03 -0.61614848583E+02  0.17304689712E+03  0.00000000000E+00 0.  1.
         12    1    4    4    0    0  0.12604277190E+02 -0.39556123846E+02 -0.62122575632E+02  0.74717930515E+02  0.00000000000E+00 0. -1.
         -5    1    5    5    0  502 -0.12422601916E+03  0.91443056022E+02  0.65869060576E+02  0.16779380046E+03  0.47000000000E+01 0.  1.
         13    1    6    6    0    0 -0.43058281595E+02  0.57164155313E+02 -0.37014165784E+02  0.80571736579E+02  0.00000000000E+00 0. -1.
        -14    1    6    6    0    0  0.11521935213E+02 -0.15389574725E+02  0.70394951797E+01  0.20473116364E+02  0.00000000000E+00 0.  1.
</event>
<event>
12    1  0.9028446E-003  0.1920531E+03  0.7818608E-02  0.1156674E+00
         21   -1    0    0  503  502  0.00000000000E+00  0.00000000000E+00  0.32273754963E+03  0.32273754963E+03  0.00000000000E+00 0. -1.
         21   -1    0    0  501  503 -0.00000000000E+00 -0.00000000000E+00 -0.13047310153E+03  0.13047310153E+03  0.00000000000E+00 0. -1.
          6    2    1    2  501    0 -0.66275263450E+02  0.52716008536E+02  0.15926498274E+02  0.19248193993E+03  0.17211698275E+03 0.  0.
         24    2    3    3    0    0 -0.90911487993E+02  0.39951885874E+02 -0.35519102487E+02  0.13384230978E+03  0.82408163498E+02 0.  0.
         -6    2    1    2    0  502  0.66275263450E+02 -0.52716008536E+02  0.17633794982E+03  0.26072871123E+03  0.17237459271E+03 0.  0.
        -24    2    5    5    0    0  0.77059281678E+02  0.13911466973E+02  0.12628512714E+03  0.17656880034E+03  0.95377912076E+02 0.  0.
          5    1    3    3  501    0  0.24636224543E+02  0.12764122662E+02  0.51445600762E+02  0.58639630156E+02  0.47000000000E+01 0. -1.
        -11    1    4    4    0    0 -0.59331748811E+02 -0.64583679542E+01 -0.47698229189E+02  0.76400837700E+02  0.00000000000E+00 0.  1.
         12    1    4    4    0    0 -0.31579739183E+02  0.46410253828E+02  0.12179126701E+02  0.57441472078E+02  0.00000000000E+00 0. -1.
         -5    1    5    5    0  502 -0.10784018228E+02 -0.66627475509E+02  0.50052822682E+02  0.84159910886E+02  0.47000000000E+01 0.  1.
         13    1    6    6    0    0  0.75250143073E+01 -0.95593777913E+00 -0.15887907482E+02  0.17605830327E+02  0.00000000000E+00 0. -1.
        -14    1    6    6    0    0  0.69534267371E+02  0.14867404752E+02  0.14217303462E+03  0.15896297002E+03  0.00000000000E+00 0.  1.
</event>
<event>
12    1  0.9028446E-003  0.2026353E+03  0.7818608E-02  0.1147606E+00
         21   -1    0    0  503  502  0.00000000000E+00  0.00000000000E+00  0.10614010888E+04  0.10614010888E+04  0.00000000000E+00 0. -1.
         21   -1    0    0  501  503 -0.00000000000E+00 -0.00000000000E+00 -0.39654444960E+02  0.39654444960E+02  0.00000000000E+00 0. -1.
          6    2    1    2  501    0 -0.10702529353E+03  0.21709935623E+01  0.60023182977E+03  0.63351345590E+03  0.17205209291E+03 0.  0.
         24    2    3    3    0    0 -0.77901183932E+02 -0.64507368932E+02  0.38969240353E+03  0.41070601037E+03  0.81175504175E+02 0.  0.
         -6    2    1    2    0  502  0.10702529353E+03 -0.21709935623E+01  0.42151481410E+03  0.46754207788E+03  0.17164419426E+03 0.  0.
        -24    2    5    5    0    0  0.27617366283E+02  0.56785985138E+02  0.24942564749E+03  0.26900161473E+03  0.78494255029E+02 0.  0.
          5    1    3    3  501    0 -0.29124109595E+02  0.66678362495E+02  0.21053942624E+03  0.22280744553E+03  0.47000000000E+01 0. -1.
        -13    1    4    4    0    0  0.16856759224E+02 -0.14127760089E+02  0.55246757125E+02  0.59463838671E+02  0.00000000000E+00 0.  1.
         14    1    4    4    0    0 -0.94757943156E+02 -0.50379608843E+02  0.33444564641E+03  0.35124217170E+03  0.00000000000E+00 0. -1.
         -5    1    5    5    0  502  0.79407927243E+02 -0.58956978700E+02  0.17208916660E+03  0.19854046315E+03  0.47000000000E+01 0.  1.
         13    1    6    6    0    0  0.41333726589E+02  0.68063445365E+02  0.17160636508E+03  0.18918206597E+03  0.00000000000E+00 0. -1.
        -14    1    6    6    0    0 -0.13716360306E+02 -0.11277460228E+02  0.77819282417E+02  0.79819548766E+02  0.00000000000E+00 0.  1.
</event>
<event>
12    1  0.9028446E-003  0.2777831E+03  0.7818608E-02  0.1096992E+00
         21   -1    0    0  503  502  0.00000000000E+00  0.00000000000E+00  0.15721729046E+04  0.15721729046E+04  0.00000000000E+00 0.  1.
         21   -1    0    0  501  503 -0.00000000000E+00 -0.00000000000E+00 -0.59090037228E+02  0.59090037228E+02  0.00000000000E+00 0.  1.
          6    2    1    2  501    0 -0.17081749131E+03  0.13507502493E+03  0.41829487596E+03  0.50178331694E+03  0.17144099920E+03 0.  0.
         24    2    3    3    0    0 -0.17376460931E+02  0.70828500266E+02  0.19746542514E+03  0.22527020317E+03  0.80221271914E+02 0.  0.
         -6    2    1    2    0  502  0.17081749131E+03 -0.13507502493E+03  0.10947879914E+04  0.11294796248E+04  0.17245173005E+03 0.  0.
        -24    2    5    5    0    0  0.96409342180E+02 -0.12319129407E+02  0.65931058397E+03  0.67092946958E+03  0.77520221887E+02 0.  0.
          5    1    3    3  501    0 -0.15344103038E+03  0.64246524661E+02  0.22082945082E+03  0.27651311377E+03  0.47000000000E+01 0. -1.
        -11    1    4    4    0    0  0.29139905539E+01  0.56706279454E+02  0.49726568168E+02  0.75477314819E+02  0.00000000000E+00 0.  1.
         12    1    4    4    0    0 -0.20290451485E+02  0.14122220812E+02  0.14773885697E+03  0.14979288835E+03  0.00000000000E+00 0. -1.
         -5    1    5    5    0  502  0.74408149133E+02 -0.12275589552E+03  0.43547740739E+03  0.45855015526E+03  0.47000000000E+01 0.  1.
         11    1    6    6    0    0  0.60000807495E+01 -0.28672049512E+02  0.23277593339E+03  0.23461185511E+03  0.00000000000E+00 0. -1.
        -12    1    6    6    0    0  0.90409261431E+02  0.16352920105E+02  0.42653465059E+03  0.43631761447E+03  0.00000000000E+00 0.  1.
</event>
<event>
12    1  0.9028446E-003  0.1731711E+03  0.7818608E-02  0.1174664E+00
         21   -1    0    0  501  502  0.00000000000E+00  0.00000000000E+00  0.68730747237E+03  0.68730747237E+03  0.00000000000E+00 0.  1.
         21   -1    0    0  502  503 -0.00000000000E+00 -0.00000000000E+00 -0.91748101109E+02  0.91748101109E+02  0.00000000000E+00 0.  1.
          6    2    1    2  501    0  0.88887758578E+01 -0.17957579149E+02  0.58024400479E+03  0.60553392634E+03  0.17200798199E+03 0.  0.
         24    2    3    3    0    0  0.45537892456E+02  0.41781659240E+02  0.38359729732E+03  0.39671833327E+03  0.80119552808E+02 0.  0.
         -6    2    1    2    0  503 -0.88887758578E+01  0.17957579149E+02  0.15315366463E+02  0.17352164713E+03  0.17167910935E+03 0.  0.
        -24    2    5    5    0    0  0.24969635526E+02  0.59007543571E+02  0.45962403544E+02  0.11193575197E+03  0.79446190179E+02 0.  0.
          5    1    3    3  501    0 -0.36649116598E+02 -0.59739238389E+02  0.19664670747E+03  0.20881559307E+03  0.47000000000E+01 0. -1.
        -11    1    4    4    0    0 -0.18743273843E+02  0.30621271887E+02  0.14158657187E+03  0.14606755266E+03  0.00000000000E+00 0.  1.
         12    1    4    4    0    0  0.64281166300E+02  0.11160387354E+02  0.24201072545E+03  0.25065078061E+03  0.00000000000E+00 0. -1.
         -5    1    5    5    0  503 -0.33858411384E+02 -0.41049964422E+02 -0.30647037081E+02  0.61585895158E+02  0.47000000000E+01 0.  1.
         11    1    6    6    0    0  0.47134128371E+02  0.55820415633E+02  0.16446171501E+02  0.74886723896E+02  0.00000000000E+00 0. -1.
        -12    1    6    6    0    0 -0.22164492845E+02  0.31871279382E+01  0.29516232043E+02  0.37049028079E+02  0.00000000000E+00 0.  1.
</event>
<event>
12    1  0.9028446E-003  0.2583504E+03  0.7818608E-02  0.1108321E+00
         21   -1    0    0  503  502  0.00000000000E+00  0.00000000000E+00  0.17982079476E+04  0.17982079476E+04  0.00000000000E+00 0. -1.
         21   -1    0    0  501  503 -0.00000000000E+00 -0.00000000000E+00 -0.40444388419E+02  0.40444388419E+02  0.00000000000E+00 0.  1.
          6    2    1    2  501    0  0.11742610098E+03 -0.15166489190E+03  0.60659262874E+03  0.65884749735E+03  0.17127252815E+03 0.  0.
         24    2    3    3    0    0  0.69636911293E+02 -0.13275619346E+03  0.27307256007E+03  0.32135813199E+03  0.78923504835E+02 0.  0.
         -6    2    1    2    0  502 -0.11742610098E+03  0.15166489190E+03  0.11511709304E+04  0.11798048387E+04  0.17307171238E+03 0.  0.
        -24    2    5    5    0    0 -0.11241200761E+03  0.39417992767E+02  0.72684647720E+03  0.74083121860E+03  0.79591805013E+02 0.  0.
          5    1    3    3  501    0  0.47789189688E+02 -0.18908698435E+02  0.33352006867E+03  0.33748936536E+03  0.47000000000E+01 0. -1.
        -13    1    4    4    0    0  0.34889198186E+02 -0.11860819416E+03  0.24524885888E+03  0.27464916284E+03  0.00000000000E+00 0.  1.
         14    1    4    4    0    0  0.34747713107E+02 -0.14147999307E+02  0.27823701195E+02  0.46708969147E+02  0.00000000000E+00 0. -1.
         -5    1    5    5    0  502 -0.50140933688E+01  0.11224689913E+03  0.42432445325E+03  0.43897362007E+03  0.47000000000E+01 0.  1.
         11    1    6    6    0    0 -0.73273406967E+01  0.37374362093E+02  0.20412728499E+03  0.20764990089E+03  0.00000000000E+00 0. -1.
        -12    1    6    6    0    0 -0.10508466691E+03  0.20436306740E+01  0.52271919221E+03  0.53318131770E+03  0.00000000000E+00 0.  1.
</event>
<event>
12    1  0.9028446E-003  0.1844346E+03  0.7818608E-02  0.1164123E+00
         21   -1    0    0  501  502  0.00000000000E+00  0.00000000000E+00  0.87342954279E+02  0.87342954279E+02  0.00000000000E+00 0.  1.
         21   -1    0    0  502  503 -0.00000000000E+00 -0.00000000000E+00 -0.38535912232E+03  0.38535912232E+03  0.00000000000E+00 0. -1.
          6    2    1    2  501    0 -0.16652235585E+02 -0.59422954405E+02 -0.15853030551E+03  0.24146100569E+03  0.17135686459E+03 0.  0.
         24    2    3    3    0    0 -0.52907129664E+02 -0.82007246978E+02 -0.15292026557E+03  0.19812476031E+03  0.79652119238E+02 0.  0.
         -6    2    1    2    0  503  0.16652235585E+02  0.59422954405E+02 -0.13948586253E+03  0.23124107091E+03  0.17380374728E+03 0.  0.
        -24    2    5    5    0    0  0.36824875394E+02  0.64291548279E+02 -0.16515438419E+03  0.19790038094E+03  0.79994471866E+02 0.  0.
          5    1    3    3  501    0  0.36254894079E+02  0.22584292573E+02 -0.56100399427E+01  0.43336245383E+02  0.47000000000E+01 0. -1.
        -11    1    4    4    0    0 -0.31896379304E+02 -0.28003182947E+02 -0.95770591144E+01  0.43511806778E+02  0.00000000000E+00 0.  1.
         12    1    4    4    0    0 -0.21010750361E+02 -0.54004064031E+02 -0.14334320645E+03  0.15461295353E+03  0.00000000000E+00 0. -1.
         -5    1    5    5    0  503 -0.20172639809E+02 -0.48685938741E+01  0.25668521665E+02  0.33340689970E+02  0.47000000000E+01 0.  1.
         13    1    6    6    0    0  0.16124064953E+01  0.67922892809E+02 -0.75817699915E+02  0.10180590770E+03  0.00000000000E+00 0. -1.
        -14    1    6    6    0    0  0.35212468899E+02 -0.36313445297E+01 -0.89336684276E+02  0.96094473236E+02  0.00000000000E+00 0.  1.
</event>
<event>
12    1  0.9028446E-003  0.2187825E+03  0.7818608E-02  0.1134892E+00
         21   -1    0    0  501  502  0.00000000000E+00  0.00000000000E+00  0.98037401078E+03  0.98037401078E+03  0.00000000000E+00 0. -1.
         21   -1    0    0  502  503 -0.00000000000E+00 -0.00000000000E+00 -0.49199458805E+02  0.49199458805E+02  0.00000000000E+00 0. -1.
          6    2    1    2  501    0 -0.63694973783E+02 -0.11842550097E+03  0.51758759828E+03  0.56192765246E+03  0.17258075136E+03 0.  0.
         24    2    3    3    0    0  0.17367112523E+02 -0.11214371714E+03  0.30978550004E+03  0.33873642351E+03  0.76795043407E+02 0.  0.
         -6    2    1    2    0  503  0.63694973783E+02  0.11842550097E+03  0.41358695370E+03  0.46764581713E+03  0.17192089181E+03 0.  0.
        -24    2    5    5    0    0  0.10313758616E+03  0.10259247388E+03  0.26347096358E+03  0.31155832593E+03  0.80554729427E+02 0.  0.
          5    1    3    3  501    0 -0.81062086306E+02 -0.62817838377E+01  0.20780209824E+03  0.22319122894E+03  0.47000000000E+01 0. -1.
        -13    1    4    4    0    0  0.30413981682E+02 -0.12279528640E+02  0.47003700269E+02  0.57316183965E+02  0.00000000000E+00 0.  1.
         14    1    4    4    0    0 -0.13046869159E+02 -0.99864188496E+02  0.26278179977E+03  0.28142023955E+03  0.00000000000E+00 0. -1.
         -5    1    5    5    0  503 -0.39442612374E+02  0.15833027094E+02  0.15011599012E+03  0.15608749119E+03  0.47000000000E+01 0.  1.
         13    1    6    6    0    0  0.44492485441E+02  0.97631871012E+02  0.16393251393E+03  0.19592200648E+03  0.00000000000E+00 0. -1.
        -14    1    6    6    0    0  0.58645100717E+02  0.49606028675E+01  0.99538449649E+02  0.11563631946E+03  0.00000000000E+00 0.  1.
</event>
<event>
12    1  0.9028446E-003  0.2164431E+03  0.7818608E-02  0.1137112E+00
         21   -1    0    0  501  502  0.00000000000E+00  0.00000000000E+00  0.12242454640E+03  0.12242454640E+03  0.00000000000E+00 0. -1.
         21   -1    0    0  502  503 -0.00000000000E+00 -0.00000000000E+00 -0.43052529198E+03  0.43052529198E+03  0.00000000000E+00 0. -1.
          6    2    1    2  501    0 -0.12214812676E+02  0.12750499785E+03 -0.58031539109E+02  0.22408763149E+03  0.17447315246E+03 0.  0.
         24    2    3    3    0    0 -0.10049329624E+02  0.60956598308E+02 -0.10231216164E+03  0.14398618125E+03  0.80296613045E+02 0.  0.
         -6    2    1    2    0  503  0.12214812676E+02 -0.12750499785E+03 -0.25006920647E+03  0.32886220689E+03  0.17090645679E+03 0.  0.
        -24    2    5    5    0    0  0.65286586938E+02 -0.42051113198E+02 -0.11171066571E+03  0.15773606796E+03  0.79817039200E+02 0.  0.
          5    1    3    3  501    0 -0.21654830519E+01  0.66548399542E+02  0.44280622534E+02  0.80101450240E+02  0.47000000000E+01 0. -1.
        -11    1    4    4    0    0  0.21402662588E+02  0.48560669377E+02 -0.23130957699E+02  0.57890014512E+02  0.00000000000E+00 0.  1.
         12    1    4    4    0    0 -0.31451992213E+02  0.12395928931E+02 -0.79181203944E+02  0.86096166733E+02  0.00000000000E+00 0. -1.
         -5    1    5    5    0  503 -0.53071774261E+02 -0.85453884652E+02 -0.13835854076E+03  0.17112613893E+03  0.47000000000E+01 0.  1.
         13    1    6    6    0    0  0.61739637592E+02 -0.55939246948E+02 -0.56423614000E+02  0.10062110323E+03  0.00000000000E+00 0. -1.
        -14    1    6    6    0    0  0.35469493453E+01  0.13888133750E+02 -0.55287051712E+02  0.57114964726E+02  0.00000000000E+00 0.  1.
</event>
<event>
12    1  0.9028446E-003  0.2164393E+03  0.7818608E-02  0.1137291E+00
         21   -1    0    0  501  502  0.00000000000E+00  0.00000000000E+00  0.57680372035E+02  0.57680372035E+02  0.00000000000E+00 0. -1.
         21   -1    0    0  502  503 -0.00000000000E+00 -0.00000000000E+00 -0.80394936900E+03  0.80394936900E+03  0.00000000000E+00 0.  1.
          6    2    1    2  501    0 -0.75647113350E+02  0.10734037188E+03 -0.41323663943E+03  0.46648741061E+03  0.17205098924E+03 0.  0.
         24    2    3    3    0    0 -0.10022792150E+03  0.75075360610E+02 -0.39374877179E+03  0.42124236595E+03  0.82006643433E+02 0.  0.
         -6    2    1    2    0  503  0.75647113350E+02 -0.10734037188E+03 -0.33303235754E+03  0.39514233043E+03  0.16727961302E+03 0.  0.
        -24    2    5    5    0    0  0.89204589145E+02 -0.54454038124E+02 -0.11047505019E+03  0.16593802309E+03  0.66392693870E+02 0.  0.
          5    1    3    3  501    0  0.24580808146E+02  0.32265011271E+02 -0.19487867641E+02  0.45245044664E+02  0.47000000000E+01 0. -1.
        -11    1    4    4    0    0  0.14960078178E+01 -0.13382983303E+02 -0.55731618945E+02  0.57335465740E+02  0.00000000000E+00 0.  1.
         12    1    4    4    0    0 -0.10172392931E+03  0.88458343912E+02 -0.33801715284E+03  0.36390690021E+03  0.00000000000E+00 0. -1.
         -5    1    5    5    0  503 -0.13557475795E+02 -0.52886333757E+02 -0.22255730735E+03  0.22920430734E+03  0.47000000000E+01 0.  1.
         11    1    6    6    0    0  0.40140325720E+02 -0.16073604241E+02 -0.90870668039E+02  0.10063341797E+03  0.00000000000E+00 0. -1.
        -12    1    6    6    0    0  0.49064263425E+02 -0.38380433883E+02 -0.19604382155E+02  0.65304605122E+02  0.00000000000E+00 0.  1.
</event>
<event>
12    1  0.9028446E-003  0.2048226E+03  0.7818608E-02  0.1145820E+00
         21   -1    0    0  503  502  0.00000000000E+00  0.00000000000E+00  0.13758072733E+03  0.13758072733E+03  0.00000000000E+00 0. -1.
         21   -1    0    0  501  503 -0.00000000000E+00 -0.00000000000E+00 -0.32309888225E+03  0.32309888225E+03  0.00000000000E+00 0. -1.
          6    2    1    2  501    0  0.10872713871E+03  0.25635533699E+02 -0.37104935601E+02  0.20773931301E+03  0.17117264573E+03 0.  0.
         24    2    3    3    0    0  0.51095927468E+02  0.31484078829E+02  0.44752457603E+02  0.10734865204E+03  0.76934450079E+02 0.  0.
         -6    2    1    2    0  502 -0.10872713871E+03 -0.25635533699E+02 -0.14841321932E+03  0.25294029657E+03  0.17167859121E+03 0.  0.
        -24    2    5    5    0    0 -0.16438944484E+02 -0.18125161757E+02 -0.13211105207E+03  0.15880546169E+03  0.84658633342E+02 0.  0.
          5    1    3    3  501    0  0.57631211244E+02 -0.58485451302E+01 -0.81857393204E+02  0.10039066098E+03  0.47000000000E+01 0. -1.
        -13    1    4    4    0    0  0.21320794839E+02 -0.25523980376E+02  0.15624031112E+02  0.36744526327E+02  0.00000000000E+00 0.  1.
         14    1    4    4    0    0  0.29775132629E+02  0.57008059204E+02  0.29128426490E+02  0.70604125709E+02  0.00000000000E+00 0. -1.
         -5    1    5    5    0  502 -0.92288194227E+02 -0.75103719418E+01 -0.16302167252E+02  0.94134834878E+02  0.47000000000E+01 0.  1.
         11    1    6    6    0    0 -0.41151463002E+02 -0.34496557811E+02 -0.10793068979E+03  0.12055077439E+03  0.00000000000E+00 0. -1.
        -12    1    6    6    0    0  0.24712518518E+02  0.16371396054E+02 -0.24180362277E+02  0.38254687296E+02  0.00000000000E+00 0.  1.
</event>
<event>
12    1  0.9028446E-003  0.2066643E+03  0.7818608E-02  0.1144349E+00
         21   -1    0    0  503  502  0.00000000000E+00  0.00000000000E+00  0.65052388482E+03  0.65052388482E+03  0.00000000000E+00 0. -1.
         21   -1    0    0  501  503 -0.00000000000E+00 -0.00000000000E+00 -0.84806556205E+02  0.84806556205E+02  0.00000000000E+00 0. -1.
          6    2    1    2  501    0 -0.89768355515E+02 -0.72273104683E+02  0.10762435706E+03  0.23300891528E+03  0.17154705784E+03 0.  0.
         24    2    3    3    0    0 -0.12719221716E+03 -0.65451278270E+02  0.88056253158E+02  0.18997307641E+03  0.88736329133E+02 0.  0.
         -6    2    1    2    0  502  0.89768355515E+02  0.72273104683E+02  0.45809297155E+03  0.50232152575E+03  0.17086832747E+03 0.  0.
        -24    2    5    5    0    0  0.18499539988E+02  0.71853040024E+02  0.14189799010E+03  0.17815987346E+03  0.78107672961E+02 0.  0.
          5    1    3    3  501    0  0.37423861648E+02 -0.68218264125E+01  0.19568103903E+02  0.43035838862E+02  0.47000000000E+01 0. -1.
        -13    1    4    4    0    0 -0.51466084497E+02 -0.20088635515E+02 -0.12007797690E+02  0.56537583391E+02  0.00000000000E+00 0.  1.
         14    1    4    4    0    0 -0.75726132666E+02 -0.45362642755E+02  0.10006405085E+03  0.13343549302E+03  0.00000000000E+00 0. -1.
         -5    1    5    5    0  502  0.71268815527E+02  0.42006465850E+00  0.31619498145E+03  0.32416165229E+03  0.47000000000E+01 0.  1.
         13    1    6    6    0    0  0.23284915443E+02  0.87202766795E+02  0.10881032724E+03  0.14137254733E+03  0.00000000000E+00 0. -1.
        -14    1    6    6    0    0 -0.47853754543E+01 -0.15349726771E+02  0.33087662862E+02  0.36787326131E+02  0.00000000000E+00 0.  1.
</event>
<event>
12    1  0.9028446E-003  0.2108311E+03  0.7818608E-02  0.1141099E+00
         21   -1    0    0  503  502  0.00000000000E+00  0.00000000000E+00  0.15842895041E+03  0.15842895041E+03  0.00000000000E+00 0. -1.
         21   -1    0    0  501  503 -0.00000000000E+00 -0.00000000000E+00 -0.30603104943E+03  0.30603104943E+03  0.00000000000E+00 0. -1.
          6    2    1    2  501    0  0.10613929909E+03 -0.58577297004E+02 -0.50045462942E+01  0.20993332793E+03  0.17131872681E+03 0.  0.
         24    2    3    3    0    0  0.11126998959E+03 -0.14625422437E+01  0.33279816306E+02  0.14082325908E+03  0.79627222172E+02 0.  0.
         -6    2    1    2    0  502 -0.10613929909E+03  0.58577297004E+02 -0.14259755272E+03  0.25452667191E+03  0.17249033057E+03 0.  0.
        -24    2    5    5    0    0 -0.83774509321E+02 -0.26033317044E+02 -0.10955167445E+03  0.16086099036E+03  0.78605259594E+02 0.  0.
          5    1    3    3  501    0 -0.51306905003E+01 -0.57114754761E+02 -0.38284362600E+02  0.69110068847E+02  0.47000000000E+01 0. -1.
        -11    1    4    4    0    0 -0.78479398010E+00 -0.72224572167E+01 -0.16534070175E+02  0.18059769278E+02  0.00000000000E+00 0.  1.
         12    1    4    4    0    0  0.11205478357E+03  0.57599149729E+01  0.49813886481E+02  0.12276348980E+03  0.00000000000E+00 0. -1.
         -5    1    5    5    0  502 -0.22364789768E+02  0.84610614048E+02 -0.33045878273E+02  0.93665681558E+02  0.47000000000E+01 0.  1.
         13    1    6    6    0    0 -0.81887696170E+00  0.11587290894E+02  0.65160130138E+01  0.13318944978E+02  0.00000000000E+00 0. -1.
        -14    1    6    6    0    0 -0.82955632360E+02 -0.37620607938E+02 -0.11606768746E+03  0.14754204538E+03  0.00000000000E+00 0.  1.
</event>
<event>
12    1  0.9028446E-003  0.2717625E+03  0.7818608E-02  0.1100334E+00
         21   -1    0    0  501  502  0.00000000000E+00  0.00000000000E+00  0.19356431212E+03  0.19356431212E+03  0.00000000000E+00 0.  1.
         21   -1    0    0  502  503 -0.00000000000E+00 -0.00000000000E+00 -0.39324621056E+03  0.39324621056E+03  0.00000000000E+00 0. -1.
          6    2    1    2  501    0  0.19739192779E+03 -0.72952369814E+02 -0.48081470674E+02  0.27598315819E+03  0.17195712943E+03 0.  0.
         24    2    3    3    0    0  0.79797027054E+02 -0.81640109359E+02  0.18417947485E+02  0.14052726089E+03  0.79849967313E+02 0.  0.
         -6    2    1    2    0  503 -0.19739192779E+03  0.72952369814E+02 -0.15160042777E+03  0.31082736449E+03  0.17130481428E+03 0.  0.
        -24    2    5    5    0    0 -0.19356551119E+03  0.74863106865E+02 -0.78267874808E+02  0.23721998915E+03  0.84115225342E+02 0.  0.
          5    1    3    3  501    0  0.11759490074E+03  0.86877395455E+01 -0.66499418159E+02  0.13545589730E+03  0.47000000000E+01 0. -1.
        -13    1    4    4    0    0  0.53709654091E+02 -0.30345764385E+00  0.10657384702E+02  0.54757637621E+02  0.00000000000E+00 0.  1.
         14    1    4    4    0    0  0.26087372962E+02 -0.81336651716E+02  0.77605627839E+01  0.85769623265E+02  0.00000000000E+00 0. -1.
         -5    1    5    5    0  503 -0.38264166014E+01 -0.19107370505E+01 -0.73332552963E+02  0.73607375338E+02  0.47000000000E+01 0.  1.
         11    1    6    6    0    0 -0.10809745602E+03  0.41119678051E+02  0.13124590239E+01  0.11566162056E+03  0.00000000000E+00 0. -1.
        -12    1    6    6    0    0 -0.85468055169E+02  0.33743428813E+02 -0.79580333832E+02  0.12155836859E+03  0.00000000000E+00 0.  1.
</event>
<event>
12    1  0.9028446E-003  0.4433525E+03  0.7818608E-02  0.1029744E+00
         21   -1    0    0  503  502  0.00000000000E+00  0.00000000000E+00  0.28404343938E+03  0.28404343938E+03  0.00000000000E+00 0. -1.
         21   -1    0    0  501  503 -0.00000000000E+00 -0.00000000000E+00 -0.72426562831E+03  0.72426562831E+03  0.00000000000E+00 0.  1.
          6    2    1    2  501    0  0.32383355610E+03  0.24888712571E+03 -0.32727770939E+03  0.55106455007E+03  0.17247743584E+03 0.  0.
         24    2    3    3    0    0  0.15102094945E+03  0.89375649292E+02 -0.22176464662E+03  0.29325996411E+03  0.77630626672E+02 0.  0.
         -6    2    1    2    0  502 -0.32383355610E+03 -0.24888712571E+03 -0.11294447954E+03  0.45724451762E+03  0.17176472291E+03 0.  0.
        -24    2    5    5    0    0 -0.88321767761E+02 -0.42458468962E+02 -0.57515487346E+02  0.13916739498E+03  0.80349712464E+02 0.  0.
          5    1    3    3  501    0  0.17281260665E+03  0.15951147642E+03 -0.10551306277E+03  0.25780458596E+03  0.47000000000E+01 0. -1.
        -11    1    4    4    0    0  0.56080033771E+02  0.75413557882E+02 -0.88906821000E+02  0.12937000317E+03  0.00000000000E+00 0.  1.
         12    1    4    4    0    0  0.94940915678E+02  0.13962091410E+02 -0.13285782562E+03  0.16388996093E+03  0.00000000000E+00 0. -1.
         -5    1    5    5    0  502 -0.23551178834E+03 -0.20642865675E+03 -0.55428992193E+02  0.31807712265E+03  0.47000000000E+01 0.  1.
         11    1    6    6    0    0 -0.74540633281E+02 -0.55656807725E+02 -0.69950134155E+02  0.11639161277E+03  0.00000000000E+00 0. -1.
        -12    1    6    6    0    0 -0.13781134479E+02  0.13198338763E+02  0.12434646809E+02  0.22775782202E+02  0.00000000000E+00 0.  1.
</event>
<event>
12    1  0.9028446E-003  0.2374997E+03  0.7818608E-02  0.1121841E+00
         21   -1    0    0  503  502  0.00000000000E+00  0.00000000000E+00  0.30330287319E+03  0.30330287319E+03  0.00000000000E+00 0.  1.
         21   -1    0    0  501  503 -0.00000000000E+00 -0.00000000000E+00 -0.35942544694E+03  0.35942544694E+03  0.00000000000E+00 0. -1.
          6    2    1    2  501    0 -0.41033484781E+02 -0.15763096548E+03 -0.25945163160E+03  0.35174034606E+03  0.17284343712E+03 0.  0.
         24    2    3    3    0    0 -0.10478302533E+02 -0.49404900300E+01 -0.77206334145E+02  0.11198330466E+03  0.80282247261E+02 0.  0.
         -6    2    1    2    0  502  0.41033484781E+02  0.15763096548E+03  0.20332905785E+03  0.31098797407E+03  0.16982210131E+03 0.  0.
        -24    2    5    5    0    0  0.89396673176E+02  0.65103043198E+02  0.10476365301E+03  0.16732989589E+03  0.69236548565E+02 0.  0.
          5    1    3    3  501    0 -0.30555182248E+02 -0.15269047545E+03 -0.18224529746E+03  0.23975704140E+03  0.47000000000E+01 0. -1.
        -11    1    4    4    0    0  0.47344135464E+01 -0.11432921402E+02  0.14347896410E+02  0.18946991708E+02  0.00000000000E+00 0.  1.
         12    1    4    4    0    0 -0.15212716079E+02  0.64924313716E+01 -0.91554230555E+02  0.93036312954E+02  0.00000000000E+00 0. -1.
         -5    1    5    5    0  502 -0.48363188396E+02  0.92527922286E+02  0.98565404847E+02  0.14365807818E+03  0.47000000000E+01 0.  1.
         13    1    6    6    0    0  0.89415871802E+02  0.49532337832E+02  0.11069112977E+03  0.15066909713E+03  0.00000000000E+00 0. -1.
        -14    1    6    6    0    0 -0.19198625835E-01  0.15570705367E+02 -0.59274767660E+01  0.16660798751E+02  0.00000000000E+00 0.  1.
</event>
<event>
12    1  0.9028446E-003  0.2041578E+03  0.7818608E-02  0.1146696E+00
         21   -1    0    0  503  502  0.00000000000E+00  0.00000000000E+00  0.56745557353E+03  0.56745557353E+03  0.00000000000E+00 0.  1.
         21   -1    0    0  501  503 -0.00000000000E+00 -0.00000000000E+00 -0.72795101271E+02  0.72795101271E+02  0.00000000000E+00 0.  1.
          6    2    1    2  501    0  0.43193296504E+02  0.10223905989E+03  0.23609758777E+03  0.31080393409E+03  0.16893350249E+03 0.  0.
         24    2    3    3    0    0  0.13165225334E+02 -0.15169573056E+01  0.49794161705E+02  0.95401861849E+02  0.80289677959E+02 0.  0.
         -6    2    1    2    0  502 -0.43193296504E+02 -0.10223905989E+03  0.25856288449E+03  0.32944674071E+03  0.17135315433E+03 0.  0.
        -24    2    5    5    0    0  0.34424391862E+02 -0.55014041881E+02  0.85262701917E+02  0.13371797136E+03  0.79994899629E+02 0.  0.
          5    1    3    3  501    0  0.30028071170E+02  0.10375601719E+03  0.18630342607E+03  0.21540207224E+03  0.47000000000E+01 0. -1.
        -13    1    4    4    0    0  0.29439664000E+02 -0.28358202151E+02  0.49255360928E+02  0.64007593502E+02  0.00000000000E+00 0.  1.
         14    1    4    4    0    0 -0.16274438666E+02  0.26841244846E+02  0.53880077657E+00  0.31394268347E+02  0.00000000000E+00 0. -1.
         -5    1    5    5    0  502 -0.77617688366E+02 -0.47225018008E+02  0.17330018258E+03  0.19572876936E+03  0.47000000000E+01 0.  1.
         11    1    6    6    0    0  0.85914490347E+01  0.12947377184E+02  0.51054769279E+02  0.53367003275E+02  0.00000000000E+00 0. -1.
        -12    1    6    6    0    0  0.25832942827E+02 -0.67961419064E+02  0.34207932638E+02  0.80350968082E+02  0.00000000000E+00 0.  1.
</event>
<event>
12    1  0.9028446E-003  0.1953152E+03  0.7818608E-02  0.1154412E+00
         21   -1    0    0  503  502  0.00000000000E+00  0.00000000000E+00  0.47738817701E+03  0.47738817701E+03  0.00000000000E+00 0.  1.
         21   -1    0    0  501  503 -0.00000000000E+00 -0.00000000000E+00 -0.78744366856E+02  0.78744366856E+02  0.00000000000E+00 0.  1.
          6    2    1    2  501    0 -0.84859871976E+02 -0.19910910919E+02  0.19326180871E+03  0.27476928825E+03  0.17478670663E+03 0.  0.
         24    2    3    3    0    0  0.12956266826E+02  0.10187129277E+02  0.38371855286E+02  0.89062862119E+02  0.78664805840E+02 0.  0.
         -6    2    1    2    0  502  0.84859871976E+02  0.19910910919E+02  0.20538200144E+03  0.28136325561E+03  0.17142308144E+03 0.  0.
        -24    2    5    5    0    0  0.99425657719E+02  0.45033019761E+02  0.21213883354E+03  0.25118002770E+03  0.78581723947E+02 0.  0.
          5    1    3    3  501    0 -0.97816138801E+02 -0.30098040195E+02  0.15488995343E+03  0.18570642613E+03  0.47000000000E+01 0. -1.
        -11    1    4    4    0    0  0.30160948266E+02  0.13302625077E+02  0.55522607226E+02  0.64570911000E+02  0.00000000000E+00 0.  1.
         12    1    4    4    0    0 -0.17204681440E+02 -0.31154958002E+01 -0.17150751940E+02  0.24491951119E+02  0.00000000000E+00 0. -1.
         -5    1    5    5    0  502 -0.14565785743E+02 -0.25122108843E+02 -0.67568321037E+01  0.30183227910E+02  0.47000000000E+01 0.  1.
         13    1    6    6    0    0  0.80225274093E+01  0.10294894522E+02 -0.42481511550E+01  0.13725617927E+02  0.00000000000E+00 0. -1.
        -14    1    6    6    0    0  0.91403130310E+02  0.34738125240E+02  0.21638698470E+03  0.23745440978E+03  0.00000000000E+00 0.  1.
</event>
<event>
12    1  0.9028446E-003  0.1842922E+03  0.7818608E-02  0.1163714E+00
         21   -1    0    0  503  502  0.00000000000E+00  0.00000000000E+00  0.13869914106E+03  0.13869914106E+03  0.00000000000E+00 0. -1.
         21   -1    0    0  501  503 -0.00000000000E+00 -0.00000000000E+00 -0.24487416100E+03  0.24487416100E+03  0.00000000000E+00 0. -1.
          6    2    1    2  501    0 -0.63634485798E+02  0.17116717525E+02 -0.51849323490E+02  0.19144702598E+03  0.17210834265E+03 0.  0.
         24    2    3    3    0    0 -0.10072323281E+03  0.46455571741E+02 -0.35708359478E+02  0.14125774186E+03  0.79845932425E+02 0.  0.
         -6    2    1    2    0  502  0.63634485798E+02 -0.17116717525E+02 -0.54325696457E+02  0.19212627608E+03  0.17210140866E+03 0.  0.
        -24    2    5    5    0    0  0.94072436966E+02 -0.50938651322E+02 -0.14773407528E+02  0.13165425249E+03  0.75300856796E+02 0.  0.
          5    1    3    3  501    0  0.37088747011E+02 -0.29338854217E+02 -0.16140964012E+02  0.50189284124E+02  0.47000000000E+01 0. -1.
        -13    1    4    4    0    0 -0.88032249122E+01  0.28171595109E+02 -0.37248105270E+02  0.47524276807E+02  0.00000000000E+00 0.  1.
         14    1    4    4    0    0 -0.91920007898E+02  0.18283976633E+02  0.15397457919E+01  0.93733465051E+02  0.00000000000E+00 0. -1.
         -5    1    5    5    0  502 -0.30437951168E+02  0.33821933798E+02 -0.39552288929E+02  0.60472023586E+02  0.47000000000E+01 0.  1.
         11    1    6    6    0    0  0.74175729243E+02 -0.21905891704E+02  0.22341042546E+02  0.80504838874E+02  0.00000000000E+00 0. -1.
        -12    1    6    6    0    0  0.19896707723E+02 -0.29032759618E+02 -0.37114450074E+02  0.51149413619E+02  0.00000000000E+00 0.  1.
</event>
<event>
12    1  0.9028446E-003  0.2789007E+03  0.7818608E-02  0.1096811E+00
         21   -1    0    0  503  502  0.00000000000E+00  0.00000000000E+00  0.79155324084E+03  0.79155324084E+03  0.00000000000E+00 0.  1.
         21   -1    0    0  501  503 -0.00000000000E+00 -0.00000000000E+00 -0.10622010109E+03  0.10622010109E+03  0.00000000000E+00 0. -1.
          6    2    1    2  501    0 -0.19715333085E+03 -0.87219376882E+02  0.47315750280E+03  0.54733916539E+03  0.17095462541E+03 0.  0.
         24    2    3    3    0    0 -0.16157586319E+03 -0.10415131272E+03  0.46008598687E+03  0.50556116658E+03  0.83418956681E+02 0.  0.
         -6    2    1    2    0  502  0.19715333085E+03  0.87219376882E+02  0.21217563695E+03  0.35043417654E+03  0.17694336836E+03 0.  0.
        -24    2    5    5    0    0  0.21120537607E+03  0.77711189107E+02  0.22560730050E+03  0.32828998554E+03  0.78923512170E+02 0.  0.
          5    1    3    3  501    0 -0.35577467657E+02  0.16931935836E+02  0.13071515928E+02  0.41777998811E+02  0.47000000000E+01 0. -1.
        -11    1    4    4    0    0 -0.10986441106E+03 -0.32467866156E+02  0.32033543752E+03  0.34020456152E+03  0.00000000000E+00 0.  1.
         12    1    4    4    0    0 -0.51711452128E+02 -0.71683446563E+02  0.13975054935E+03  0.16535660506E+03  0.00000000000E+00 0. -1.
         -5    1    5    5    0  502 -0.14052045218E+02  0.95081877752E+01 -0.13431663550E+02  0.22144191006E+02  0.47000000000E+01 0.  1.
         11    1    6    6    0    0  0.10690776104E+03 -0.22511841351E+01  0.95797155896E+02  0.14356682165E+03  0.00000000000E+00 0. -1.
        -12    1    6    6    0    0  0.10429761503E+03  0.79962373242E+02  0.12981014461E+03  0.18472316389E+03  0.00000000000E+00 0.  1.
</event>
<event>
12    1  0.9028446E-003  0.1881722E+03  0.7818608E-02  0.1160707E+00
         21   -1    0    0  503  502  0.00000000000E+00  0.00000000000E+00  0.10796439791E+03  0.10796439791E+03  0.00000000000E+00 0.  1.
         21   -1    0    0  501  503 -0.00000000000E+00 -0.00000000000E+00 -0.48347158949E+03  0.48347158949E+03  0.00000000000E+00 0. -1.
          6    2    1    2  501    0 -0.23128985854E+02  0.66171703338E+02 -0.35697743740E+03  0.40235365240E+03  0.17187764973E+03 0.  0.
         24    2    3    3    0    0  0.41876355612E+02 -0.38007383359E+01 -0.16039160433E+03  0.18374460232E+03  0.79174095328E+02 0.  0.
         -6    2    1    2    0  502  0.23128985854E+02 -0.66171703338E+02 -0.18529754188E+02  0.18908233500E+03  0.17462855812E+03 0.  0.
        -24    2    5    5    0    0 -0.32341817258E+02 -0.24648850876E+02 -0.59737752731E+02  0.10832748117E+03  0.80701208674E+02 0.  0.
          5    1    3    3  501    0 -0.65005341466E+02  0.69972441674E+02 -0.19658583306E+03  0.21860905007E+03  0.47000000000E+01 0. -1.
        -13    1    4    4    0    0  0.67607896850E+01  0.54297657456E+01  0.78093221267E+01  0.11669453513E+02  0.00000000000E+00 0.  1.
         14    1    4    4    0    0  0.35115565927E+02 -0.92305040815E+01 -0.16820092646E+03  0.17207514881E+03  0.00000000000E+00 0. -1.
         -5    1    5    5    0  502  0.55470803112E+02 -0.41522852462E+02  0.41207998543E+02  0.80754853838E+02  0.47000000000E+01 0.  1.
         13    1    6    6    0    0  0.22453503828E+02 -0.25116653083E+02 -0.12350422366E+02  0.35882294086E+02  0.00000000000E+00 0. -1.
        -14    1    6    6    0    0 -0.54795321087E+02  0.46780220729E+00 -0.47387330365E+02  0.72445187080E+02  0.00000000000E+00 0.  1.
</event>
<event>
12    1  0.9028446E-003  0.3075638E+03  0.7818608E-02  0.1081832E+00
         21   -1    0    0  501  502  0.00000000000E+00  0.00000000000E+00  0.31086871362E+03  0.31086871362E+03  0.00000000000E+00 0. -1.
         21   -1    0    0  502  503 -0.00000000000E+00 -0.00000000000E+00 -0.30203828118E+03  0.30203828118E+03  0.00000000000E+00 0.  1.
          6    2    1    2  501    0  0.90731822702E+02  0.23451308390E+03  0.13712642748E+02  0.30530449106E+03  0.17260980713E+03 0.  0.
         24    2    3    3    0    0  0.43745516977E+02  0.70822500391E+02  0.56757124571E+02  0.12958529043E+03  0.81495272799E+02 0.  0.
         -6    2    1    2    0  503 -0.90731822702E+02 -0.23451308390E+03 -0.48822103090E+01  0.30760250373E+03  0.17710678743E+03 0.  0.
        -24    2    5    5    0    0 -0.91802899203E+02 -0.24315110567E+03  0.29900885509E+02  0.27144014237E+03  0.72356447127E+02 0.  0.
          5    1    3    3  501    0  0.46986305725E+02  0.16369058351E+03 -0.43044481822E+02  0.17571920063E+03  0.47000000000E+01 0. -1.
        -11    1    4    4    0    0 -0.14676859330E+02 -0.89511278585E+01  0.12492612946E+02  0.21250841582E+02  0.00000000000E+00 0.  1.
         12    1    4    4    0    0  0.58422376307E+02  0.79773628249E+02  0.44264511625E+02  0.10833444885E+03  0.00000000000E+00 0. -1.
         -5    1    5    5    0  503  0.10710765018E+01  0.86380217729E+01 -0.34783095818E+02  0.36162361368E+02  0.47000000000E+01 0.  1.
         11    1    6    6    0    0 -0.35062894409E+02 -0.52263304145E+02  0.35426927573E+02  0.72221373026E+02  0.00000000000E+00 0. -1.
        -12    1    6    6    0    0 -0.56740004794E+02 -0.19088780153E+03 -0.55260420639E+01  0.19921876934E+03  0.00000000000E+00 0.  1.
</event>
<event>
12    1  0.9028446E-003  0.1951023E+03  0.7818608E-02  0.1155108E+00
         21   -1    0    0  503  502  0.00000000000E+00  0.00000000000E+00  0.66252788643E+03  0.66252788643E+03  0.00000000000E+00 0. -1.
         21   -1    0    0  501  503 -0.00000000000E+00 -0.00000000000E+00 -0.56023708365E+02  0.56023708365E+02  0.00000000000E+00 0. -1.
          6    2    1    2  501    0  0.87368997823E+02 -0.18264080517E+02  0.31551929356E+03  0.36821300509E+03  0.16751559357E+03 0.  0.
         24    2    3    3    0    0  0.98429501680E+02  0.85390500468E+01  0.31391563454E+03  0.33879525066E+03  0.80485489865E+02 0.  0.
         -6    2    1    2    0  502 -0.87368997823E+02  0.18264080517E+02  0.29098488450E+03  0.35033858971E+03  0.17348776905E+03 0.  0.
        -24    2    5    5    0    0 -0.79836623861E+02  0.28181220187E+02  0.85142196212E+02  0.14406598212E+03  0.79609961363E+02 0.  0.
          5    1    3    3  501    0 -0.11060503857E+02 -0.26803130564E+02  0.16036590157E+01  0.29417754432E+02  0.47000000000E+01 0. -1.
        -13    1    4    4    0    0  0.52469367227E+02 -0.21035972832E+02  0.76206024632E+02  0.94883638423E+02  0.00000000000E+00 0.  1.
         14    1    4    4    0    0  0.45960134453E+02  0.29575022879E+02  0.23770960991E+03  0.24391161223E+03  0.00000000000E+00 0. -1.
         -5    1    5    5    0  502 -0.75323739616E+01 -0.99171396707E+01  0.20584268829E+03  0.20627260758E+03  0.47000000000E+01 0.  1.
         13    1    6    6    0    0 -0.68263761337E+02  0.32694970999E+02  0.99541097531E+02  0.12504931962E+03  0.00000000000E+00 0. -1.
        -14    1    6    6    0    0 -0.11572862524E+02 -0.45137508111E+01 -0.14398901319E+02  0.19016662499E+02  0.00000000000E+00 0.  1.
</event>
<event>
12    1  0.9028446E-003  0.2316316E+03  0.7818608E-02  0.1126154E+00
         21   -1    0    0  501  502  0.00000000000E+00  0.00000000000E+00  0.17820591905E+03  0.17820591905E+03  0.00000000000E+00 0.  1.
         21   -1    0    0  502  503 -0.00000000000E+00 -0.00000000000E+00 -0.29796742384E+03  0.29796742384E+03  0.00000000000E+00 0. -1.
          6    2    1    2  501    0 -0.12643747916E+03  0.77411133271E+02 -0.42229083628E+02  0.23544951306E+03  0.17797263275E+03 0.  0.
         24    2    3    3    0    0 -0.55003779187E+02  0.10323770634E+02  0.41884799193E+02  0.10621823589E+03  0.79974878970E+02 0.  0.
         -6    2    1    2    0  503  0.12643747916E+03 -0.77411133271E+02 -0.77532421155E+02  0.24072382983E+03  0.17308311942E+03 0.  0.
        -24    2    5    5    0    0  0.22956606323E+01 -0.41316797954E+02 -0.67402225874E+02  0.11095980166E+03  0.77824608458E+02 0.  0.
          5    1    3    3  501    0 -0.71433699971E+02  0.67087362637E+02 -0.84113882821E+02  0.12923127718E+03  0.47000000000E+01 0. -1.
        -11    1    4    4    0    0 -0.46819017037E+02  0.39523739987E+02  0.44580720205E+02  0.75773260408E+02  0.00000000000E+00 0.  1.
         12    1    4    4    0    0 -0.81847621497E+01 -0.29199969353E+02 -0.26959210122E+01  0.30444975477E+02  0.00000000000E+00 0. -1.
         -5    1    5    5    0  503  0.12414181853E+03 -0.36094335317E+02 -0.10130195281E+02  0.12976402816E+03  0.47000000000E+01 0.  1.
         11    1    6    6    0    0  0.93259635646E+01  0.22205294897E+02 -0.21365100717E+02  0.32194972379E+02  0.00000000000E+00 0. -1.
        -12    1    6    6    0    0 -0.70303029323E+01 -0.63522092851E+02 -0.46037125157E+02  0.78764829284E+02  0.00000000000E+00 0.  1.
</event>
<event>
12    1  0.9028446E-003  0.2127059E+03  0.7818608E-02  0.1139762E+00
         21   -1    0    0  501  502  0.00000000000E+00  0.00000000000E+00  0.58505943742E+02  0.58505943742E+02  0.00000000000E+00 0.  1.
         21   -1    0    0  502  503 -0.00000000000E+00 -0.00000000000E+00 -0.80498948170E+03  0.80498948170E+03  0.00000000000E+00 0.  1.
          6    2    1    2  501    0  0.11904357956E+03  0.29121893550E+02 -0.46520113643E+03  0.51084321412E+03  0.17184072148E+03 0.  0.
         24    2    3    3    0    0  0.64849507825E+02 -0.24898385645E+02 -0.15048501052E+03  0.18692421517E+03  0.86426474832E+02 0.  0.
         -6    2    1    2    0  503 -0.11904357956E+03 -0.29121893550E+02 -0.28128240154E+03  0.35265221133E+03  0.17385147173E+03 0.  0.
        -24    2    5    5    0    0 -0.16621527257E+02  0.21133393191E+02 -0.18513051034E+03  0.20337680537E+03  0.79786738428E+02 0.  0.
          5    1    3    3  501    0  0.54194071731E+02  0.54020279195E+02 -0.31471612590E+03  0.32391899895E+03  0.47000000000E+01 0. -1.
        -13    1    4    4    0    0 -0.16342139809E+02  0.81265398824E+01 -0.86643288228E+01  0.20203385309E+02  0.00000000000E+00 0.  1.
         14    1    4    4    0    0  0.81191647634E+02 -0.33024925527E+02 -0.14182068170E+03  0.16672082986E+03  0.00000000000E+00 0. -1.
         -5    1    5    5    0  503 -0.10242205230E+03 -0.50255286741E+02 -0.96151891197E+02  0.14927540596E+03  0.47000000000E+01 0.  1.
         11    1    6    6    0    0  0.11910757520E+02  0.37803280223E+01  0.25454252561E+01  0.12752890433E+02  0.00000000000E+00 0. -1.
        -12    1    6    6    0    0 -0.28532284778E+02  0.17353065169E+02 -0.18767593559E+03  0.19062391494E+03  0.00000000000E+00 0.  1.
</event>
<event>
12    1  0.9028446E-003  0.1790644E+03  0.7818608E-02  0.1168862E+00
         21   -1    0    0  503  502  0.00000000000E+00  0.00000000000E+00  0.16837284824E+03  0.16837284824E+03  0.00000000000E+00 0. -1.
         21   -1    0    0  501  503 -0.00000000000E+00 -0.00000000000E+00 -0.20456153939E+03  0.20456153939E+03  0.00000000000E+00 0.  1.
          6    2    1    2  501    0  0.41873326631E+02 -0.25928387501E+02 -0.68188080879E+02  0.19103329082E+03  0.17151806629E+03 0.  0.
         24    2    3    3    0    0  0.41007976382E+02  0.16587417828E+02 -0.10275159868E+03  0.13603266085E+03  0.77396364456E+02 0.  0.
         -6    2    1    2    0  502 -0.41873326631E+02  0.25928387501E+02  0.31999389732E+02  0.18190109681E+03  0.17215804169E+03 0.  0.
        -24    2    5    5    0    0 -0.59691409057E+02  0.50886949591E+02  0.67145970195E+02  0.13502054646E+03  0.87002417784E+02 0.  0.
          5    1    3    3  501    0  0.86535024866E+00 -0.42515805329E+02  0.34563517797E+02  0.55000629963E+02  0.47000000000E+01 0. -1.
        -13    1    4    4    0    0  0.60341453644E+02  0.13725316754E+02 -0.49299746789E+02  0.79119785018E+02  0.00000000000E+00 0.  1.
         14    1    4    4    0    0 -0.19333477262E+02  0.28621010738E+01 -0.53451851887E+02  0.56912875834E+02  0.00000000000E+00 0. -1.
         -5    1    5    5    0  502  0.17818082426E+02 -0.24958562089E+02 -0.35146580463E+02  0.46880550350E+02  0.47000000000E+01 0.  1.
         13    1    6    6    0    0 -0.58629474527E+02  0.44293467878E+02  0.87113772616E+02  0.11396550337E+03  0.00000000000E+00 0. -1.
        -14    1    6    6    0    0 -0.10619345306E+01  0.65934817122E+01 -0.19967802420E+02  0.21055043090E+02  0.00000000000E+00 0.  1.
</event>
<event>
12    1  0.9028446E-003  0.2560996E+03  0.7818608E-02  0.1109771E+00
         21   -1    0    0  501  502  0.00000000000E+00  0.00000000000E+00  0.12426538884E+04  0.12426538884E+04  0.00000000000E+00 0.  1.
         21   -1    0    0  502  503 -0.00000000000E+00 -0.00000000000E+00 -0.53512025804E+02  0.53512025804E+02  0.00000000000E+00 0.  1.
          6    2    1    2  501    0 -0.44988869207E+02  0.18269956847E+03  0.68479634874E+03  0.73052345578E+03  0.17121725823E+03 0.  0.
         24    2    3    3    0    0  0.61191112499E+01  0.14576449150E+03  0.61169814753E+03  0.63387117904E+03  0.79582142631E+02 0.  0.
         -6    2    1    2    0  503  0.44988869207E+02 -0.18269956847E+03  0.50434551390E+03  0.56564245847E+03  0.17373503610E+03 0.  0.
        -24    2    5    5    0    0 -0.27445990938E+02 -0.15614032045E+03  0.33345586014E+03  0.37808562340E+03  0.81380869215E+02 0.  0.
          5    1    3    3  501    0 -0.51107980457E+02  0.36935076970E+02  0.73098201216E+02  0.96652276735E+02  0.47000000000E+01 0. -1.
        -13    1    4    4    0    0  0.25664279891E+02  0.24484331940E+02  0.70672839670E+02  0.79074572651E+02  0.00000000000E+00 0.  1.
         14    1    4    4    0    0 -0.19545168641E+02  0.12128015956E+03  0.54102530786E+03  0.55479660639E+03  0.00000000000E+00 0. -1.
         -5    1    5    5    0  503  0.72434860145E+02 -0.26559248016E+02  0.17088965376E+03  0.18755683507E+03  0.47000000000E+01 0.  1.
         11    1    6    6    0    0 -0.32249539847E+02 -0.47276958880E+02  0.18684994676E+03  0.19541762015E+03  0.00000000000E+00 0. -1.
        -12    1    6    6    0    0  0.48035489091E+01 -0.10886336157E+03  0.14660591338E+03  0.18266800326E+03  0.00000000000E+00 0.  1.
</event>
<event>
12    1  0.9028446E-003  0.3288855E+03  0.7818608E-02  0.1071847E+00
         21   -1    0    0  501  502  0.00000000000E+00  0.00000000000E+00  0.12817387009E+04  0.12817387009E+04  0.00000000000E+00 0. -1.
         21   -1    0    0  502  503 -0.00000000000E+00 -0.00000000000E+00 -0.90498674803E+02  0.90498674803E+02  0.00000000000E+00 0. -1.
          6    2    1    2  501    0 -0.21047183480E+03  0.18283776301E+03  0.78260426914E+03  0.84890229016E+03  0.17446379373E+03 0.  0.
         24    2    3    3    0    0 -0.63544426257E+02  0.12637394609E+03  0.49184609512E+03  0.51823896929E+03  0.81552312359E+02 0.  0.
         -6    2    1    2    0  503  0.21047183480E+03 -0.18283776301E+03  0.40863575696E+03  0.52333508556E+03  0.17078755541E+03 0.  0.
        -24    2    5    5    0    0  0.16076334080E+02 -0.60618309599E+02  0.17016256006E+03  0.19224784459E+03  0.63803674867E+02 0.  0.
          5    1    3    3  501    0 -0.14692740854E+03  0.56463816921E+02  0.29075817403E+03  0.33066332086E+03  0.47000000000E+01 0. -1.
        -11    1    4    4    0    0  0.10668691929E+02 -0.54619425643E+00  0.10656195586E+02  0.15088864106E+02  0.00000000000E+00 0.  1.
         12    1    4    4    0    0 -0.74213118186E+02  0.12692014034E+03  0.48118989953E+03  0.50315010519E+03  0.00000000000E+00 0. -1.
         -5    1    5    5    0  503  0.19439550072E+03 -0.12221945341E+03  0.23847319690E+03  0.33108724097E+03  0.47000000000E+01 0.  1.
         11    1    6    6    0    0  0.34218449606E+02 -0.62049630968E+02  0.12753230596E+03  0.14589567527E+03  0.00000000000E+00 0. -1.
        -12    1    6    6    0    0 -0.18142115526E+02  0.14313213690E+01  0.42630254099E+02  0.46352169325E+02  0.00000000000E+00 0.  1.
</event>
<event>
12    1  0.9028446E-003  0.1911177E+03  0.7818608E-02  0.1159427E+00
         21   -1    0    0  503  502  0.00000000000E+00  0.00000000000E+00  0.11536813146E+03  0.11536813146E+03  0.00000000000E+00 0. -1.
         21   -1    0    0  501  503 -0.00000000000E+00 -0.00000000000E+00 -0.36265108268E+03  0.36265108268E+03  0.00000000000E+00 0. -1.
          6    2    1    2  501    0  0.25056581396E+02 -0.56388233400E+02 -0.22330258597E+03  0.29392181593E+03  0.18088262449E+03 0.  0.
         24    2    3    3    0    0 -0.30993066565E+02  0.28220556018E+01 -0.36918487532E+02  0.90430922986E+02  0.76460728073E+02 0.  0.
         -6    2    1    2    0  502 -0.25056581396E+02  0.56388233400E+02 -0.23980365250E+02  0.18409739821E+03  0.17178279592E+03 0.  0.
        -24    2    5    5    0    0 -0.17538993975E+02 -0.16817885316E+02  0.32872487534E+02  0.90984634279E+02  0.81284350659E+02 0.  0.
          5    1    3    3  501    0  0.56049647962E+02 -0.59210289002E+02 -0.18638409844E+03  0.20349089295E+03  0.47000000000E+01 0. -1.
        -13    1    4    4    0    0 -0.30727899126E+02 -0.28525057888E+02  0.93641666069E-01  0.41927216471E+02  0.00000000000E+00 0.  1.
         14    1    4    4    0    0 -0.26516743950E+00  0.31347113490E+02 -0.37012129198E+02  0.48503706515E+02  0.00000000000E+00 0. -1.
         -5    1    5    5    0  502 -0.75175874213E+01  0.73206118716E+02 -0.56852852784E+02  0.93112763936E+02  0.47000000000E+01 0.  1.
         11    1    6    6    0    0  0.91454680656E+01 -0.28073476140E+02  0.49465199792E+02  0.57606992971E+02  0.00000000000E+00 0. -1.
        -12    1    6    6    0    0 -0.26684462041E+02  0.11255590824E+02 -0.16592712258E+02  0.33377641308E+02  0.00000000000E+00 0.  1.
</event>
<event>
12    1  0.9028446E-003  0.1726795E+03  0.7818608E-02  0.1175153E+00
         21   -1    0    0  501  502  0.00000000000E+00  0.00000000000E+00  0.47796047237E+03  0.47796047237E+03  0.00000000000E+00 0.  1.
         21   -1    0    0  502  503 -0.00000000000E+00 -0.00000000000E+00 -0.87394261103E+02  0.87394261103E+02  0.00000000000E+00 0.  1.
          6    2    1    2  501    0  0.94592341553E+01  0.11673262405E+02  0.34668674891E+03  0.38718737538E+03  0.17174579941E+03 0.  0.
         24    2    3    3    0    0 -0.36605924831E+02  0.42112363935E+02  0.17602408673E+03  0.20775390013E+03  0.95203776099E+02 0.  0.
         -6    2    1    2    0  503 -0.94592341553E+01 -0.11673262405E+02  0.43879462354E+02  0.17816735809E+03  0.17202458577E+03 0.  0.
        -24    2    5    5    0    0 -0.29543807230E+02  0.61619181962E+01  0.90031359222E+02  0.12456165572E+03  0.80617334676E+02 0.  0.
          5    1    3    3  501    0  0.46065158987E+02 -0.30439101530E+02  0.17066266218E+03  0.17943347524E+03  0.47000000000E+01 0. -1.
        -13    1    4    4    0    0  0.22646061227E+02  0.85509633506E+01  0.11096289651E+03  0.11357256475E+03  0.00000000000E+00 0.  1.
         14    1    4    4    0    0 -0.59251986058E+02  0.33561400584E+02  0.65061190217E+02  0.94181335378E+02  0.00000000000E+00 0. -1.
         -5    1    5    5    0  503  0.20084573075E+02 -0.17835180601E+02 -0.46151896868E+02  0.53605702376E+02  0.47000000000E+01 0.  1.
         13    1    6    6    0    0  0.19717317408E+02  0.25376041693E+02  0.43803477116E+02  0.54327347673E+02  0.00000000000E+00 0. -1.
        -14    1    6    6    0    0 -0.49261124639E+02 -0.19214123497E+02  0.46227882107E+02  0.70234308044E+02  0.00000000000E+00 0.  1.
</event>
<event>
12    1  0.9028446E-003  0.1855251E+03  0.7818608E-02  0.1162738E+00
         21   -1    0    0  503  502  0.00000000000E+00  0.00000000000E+00  0.48169782015E+03  0.48169782015E+03  0.00000000000E+00 0. -1.
         21   -1    0    0  501  503 -0.00000000000E+00 -0.00000000000E+00 -0.74346092688E+02  0.74346092688E+02  0.00000000000E+00 0. -1.
          6    2    1    2  501    0 -0.44006494379E+02 -0.51922480362E+02  0.26081895540E+03  0.31963025988E+03  0.17176862350E+03 0.  0.
         24    2    3    3    0    0 -0.17709372041E+02 -0.99901281150E+02  0.18054352688E+03  0.22236907341E+03  0.80982417103E+02 0.  0.
         -6    2    1    2    0  502  0.44006494379E+02  0.51922480362E+02  0.14653277206E+03  0.23641365296E+03  0.17258924214E+03 0.  0.
        -24    2    5    5    0    0  0.78765456037E+02  0.65244850078E+02  0.60552376182E+02  0.14260326214E+03  0.78792211444E+02 0.  0.
          5    1    3    3  501    0 -0.26297122339E+02  0.47978800788E+02  0.80275428519E+02  0.97261186464E+02  0.47000000000E+01 0. -1.
        -13    1    4    4    0    0 -0.11257142118E+02  0.92710572871E+01  0.47567795292E+01  0.15339579635E+02  0.00000000000E+00 0.  1.
         14    1    4    4    0    0 -0.64522299223E+01 -0.10917233844E+03  0.17578674735E+03  0.20702949378E+03  0.00000000000E+00 0. -1.
         -5    1    5    5    0  502 -0.34758961657E+02 -0.13322369716E+02  0.85980395881E+02  0.93810390822E+02  0.47000000000E+01 0.  1.
         13    1    6    6    0    0 -0.30551885757E+01  0.17522129008E+02 -0.13533824768E+02  0.22350024498E+02  0.00000000000E+00 0. -1.
        -14    1    6    6    0    0  0.81820644612E+02  0.47722721070E+02  0.74086200950E+02  0.12025323764E+03  0.00000000000E+00 0.  1.
</event>
<event>
12    1  0.9028446E-003  0.2005749E+03  0.7818608E-02  0.1149320E+00
         21   -1    0    0  501  502  0.00000000000E+00  0.00000000000E+00  0.10212351972E+03  0.10212351972E+03  0.00000000000E+00 0. -1.
         21   -1    0    0  502  503 -0.00000000000E+00 -0.00000000000E+00 -0.48867943727E+03  0.48867943727E+03  0.00000000000E+00 0. -1.
          6    2    1    2  501    0 -0.70371694642E+02 -0.75735145127E+02 -0.62911724863E+02  0.21020983429E+03  0.17187874124E+03 0.  0.
         24    2    3    3    0    0 -0.98406360428E+02 -0.10275352659E+03 -0.59993968369E+02  0.17088377771E+03  0.73211271299E+02 0.  0.
         -6    2    1    2    0  503  0.70371694642E+02  0.75735145127E+02 -0.32364419269E+03  0.38059312270E+03  0.17151552108E+03 0.  0.
        -24    2    5    5    0    0  0.78092195078E+02  0.96575841135E+01 -0.27921881026E+03  0.30045851844E+03  0.78233735902E+02 0.  0.
          5    1    3    3  501    0  0.28034665786E+02  0.27018381464E+02 -0.29177564934E+01  0.39326056574E+02  0.47000000000E+01 0. -1.
        -13    1    4    4    0    0 -0.93357726969E+02 -0.88851777796E+02 -0.75571552835E+02  0.14940335739E+03  0.00000000000E+00 0.  1.
         14    1    4    4    0    0 -0.50486334595E+01 -0.13901748795E+02  0.15577584466E+02  0.21480420321E+02  0.00000000000E+00 0. -1.
         -5    1    5    5    0  503 -0.77205004355E+01  0.66077561013E+02 -0.44425382423E+02  0.80134604259E+02  0.47000000000E+01 0.  1.
         11    1    6    6    0    0  0.15495728711E+02  0.35635291900E+02 -0.64532540458E+02  0.75328881679E+02  0.00000000000E+00 0. -1.
        -12    1    6    6    0    0  0.62596466366E+02 -0.25977707787E+02 -0.21468626981E+03  0.22512963676E+03  0.00000000000E+00 0.  1.
</event>
<event>
12    1  0.9028446E-003  0.1975442E+03  0.7818608E-02  0.1151877E+00
         21   -1    0    0  501  502  0.00000000000E+00  0.00000000000E+00  0.46422363864E+03  0.46422363864E+03  0.00000000000E+00 0. -1.
         21   -1    0    0  502  503 -0.00000000000E+00 -0.00000000000E+00 -0.95456340792E+02  0.95456340792E+02  0.00000000000E+00 0. -1.
          6    2    1    2  501    0  0.47276341319E+02  0.84422608616E+02  0.28157157776E+03  0.34395678502E+03  0.17222510638E+03 0.  0.
         24    2    3    3    0    0 -0.38203137184E+02  0.24857458549E+02  0.14005352772E+03  0.16816088964E+03  0.81152456779E+02 0.  0.
         -6    2    1    2    0  503 -0.47276341319E+02 -0.84422608616E+02  0.87195720093E+02  0.21572319441E+03  0.17196271023E+03 0.  0.
        -24    2    5    5    0    0 -0.29012674644E+02 -0.36585427107E+02 -0.20738451182E+02  0.96166376187E+02  0.81471834304E+02 0.  0.
          5    1    3    3  501    0  0.85479478503E+02  0.59565150067E+02  0.14151805004E+03  0.17579589538E+03  0.47000000000E+01 0. -1.
        -13    1    4    4    0    0  0.14195928106E+01  0.46882547032E+02  0.82459813809E+02  0.94866270894E+02  0.00000000000E+00 0.  1.
         14    1    4    4    0    0 -0.39622729994E+02 -0.22025088483E+02  0.57593713912E+02  0.73294618746E+02  0.00000000000E+00 0. -1.
         -5    1    5    5    0  503 -0.18263666674E+02 -0.47837181510E+02  0.10793417128E+03  0.11955681822E+03  0.47000000000E+01 0.  1.
         13    1    6    6    0    0 -0.39240214997E+02 -0.52003641205E+02  0.40050882651E+01  0.65270314107E+02  0.00000000000E+00 0. -1.
        -14    1    6    6    0    0  0.10227540353E+02  0.15418214098E+02 -0.24743539447E+02  0.30896062080E+02  0.00000000000E+00 0.  1.
</event>
<event>
12    1  0.9028446E-003  0.1970302E+03  0.7818608E-02  0.1152708E+00
         21   -1    0    0  503  502  0.00000000000E+00  0.00000000000E+00  0.21474512380E+03  0.21474512380E+03  0.00000000000E+00 0.  1.
         21   -1    0    0  501  503 -0.00000000000E+00 -0.00000000000E+00 -0.17933379753E+03  0.17933379753E+03  0.00000000000E+00 0.  1.
          6    2    1    2  501    0 -0.94633475574E+02 -0.13776929625E+02  0.27261134738E+02  0.19890715199E+03  0.17226603599E+03 0.  0.
         24    2    3    3    0    0 -0.50613430016E+02 -0.39605848278E+02 -0.39256342040E+02  0.11493357182E+03  0.86823516545E+02 0.  0.
         -6    2    1    2    0  502  0.94633475574E+02  0.13776929625E+02  0.81501915311E+01  0.19517176934E+03  0.16994203552E+03 0.  0.
        -24    2    5    5    0    0  0.10160288044E+03 -0.43859514751E+02  0.12628404416E+02  0.13675364959E+03  0.79342811472E+02 0.  0.
          5    1    3    3  501    0 -0.44020045558E+02  0.25828918653E+02  0.66517476779E+02  0.83973580171E+02  0.47000000000E+01 0. -1.
        -13    1    4    4    0    0 -0.17878649998E+02 -0.24684939119E+02  0.26232855619E+02  0.40213866501E+02  0.00000000000E+00 0.  1.
         14    1    4    4    0    0 -0.32734780018E+02 -0.14920909159E+02 -0.65489197659E+02  0.74719705319E+02  0.00000000000E+00 0. -1.
         -5    1    5    5    0  502 -0.69694048614E+01  0.57636444376E+02 -0.44782128851E+01  0.58418119750E+02  0.47000000000E+01 0.  1.
         11    1    6    6    0    0 -0.12846451417E+02 -0.31679186940E+01  0.74296208076E+01  0.15174527611E+02  0.00000000000E+00 0. -1.
        -12    1    6    6    0    0  0.11444933185E+03 -0.40691596057E+02  0.51987836086E+01  0.12157912198E+03  0.00000000000E+00 0.  1.
</event>
<event>
12    1  0.9028446E-003  0.2323633E+03  0.7818608E-02  0.1125152E+00
         21   -1    0    0  501  502  0.00000000000E+00  0.00000000000E+00  0.43901788976E+02  0.43901788976E+02  0.00000000000E+00 0. -1.
         21   -1    0    0  502  503 -0.00000000000E+00 -0.00000000000E+00 -0.12297031314E+04  0.12297031314E+04  0.00000000000E+00 0.  1.
          6    2    1    2  501    0  0.15473376132E+03 -0.51823383672E+01 -0.55408117939E+03  0.60083165108E+03  0.17327240420E+03 0.  0.
         24    2    3    3    0    0  0.97625310542E+02  0.36296631936E+02 -0.48068896034E+03  0.49889839867E+03  0.83603761048E+02 0.  0.
         -6    2    1    2    0  503 -0.15473376132E+03  0.51823383672E+01 -0.63172016303E+03  0.67277326929E+03  0.17200033132E+03 0.  0.
        -24    2    5    5    0    0 -0.37363111430E+02 -0.54145602560E+02 -0.28009956072E+03  0.29733377750E+03  0.74992419305E+02 0.  0.
          5    1    3    3  501    0  0.57108450783E+02 -0.41478970304E+02 -0.73392219056E+02  0.10193325241E+03  0.47000000000E+01 0. -1.
        -13    1    4    4    0    0  0.97760474694E+02  0.10959917530E+02 -0.44079413646E+03  0.45163779840E+03  0.00000000000E+00 0.  1.
         14    1    4    4    0    0 -0.13516415186E+00  0.25336714407E+02 -0.39894823879E+02  0.47260600277E+02  0.00000000000E+00 0. -1.
         -5    1    5    5    0  503 -0.11737064990E+03  0.59327940928E+02 -0.35162060231E+03  0.37543949179E+03  0.47000000000E+01 0.  1.
         11    1    6    6    0    0 -0.12225474027E+02 -0.67026355638E+02 -0.22931949578E+03  0.23922672449E+03  0.00000000000E+00 0. -1.
        -12    1    6    6    0    0 -0.25137637403E+02  0.12880753077E+02 -0.50780064946E+02  0.58107053014E+02  0.00000000000E+00 0.  1.
</event>
<event>
12    1  0.9028446E-003  0.2007353E+03  0.7818608E-02  0.1149361E+00
         21   -1    0    0  503  502  0.00000000000E+00  0.00000000000E+00  0.53677867476E+03  0.53677867476E+03  0.00000000000E+00 0.  1.
         21   -1    0    0  501  503 -0.00000000000E+00 -0.00000000000E+00 -0.94441511926E+02  0.94441511926E+02  0.00000000000E+00 0.  1.
          6    2    1    2  501    0  0.77739277167E+02  0.66726998292E+02  0.77151218161E+02  0.21505105392E+03  0.17262316708E+03 0.  0.
         24    2    3    3    0    0  0.13395683200E+02  0.81840410099E+02  0.90311965906E+02  0.14749508762E+03  0.81983246048E+02 0.  0.
         -6    2    1    2    0  502 -0.77739277167E+02 -0.66726998292E+02  0.36518594468E+03  0.41616913277E+03  0.17128947828E+03 0.  0.
        -24    2    5    5    0    0  0.27085288731E+02 -0.35823602374E-01  0.16576730453E+03  0.18116745951E+03  0.67891346918E+02 0.  0.
          5    1    3    3  501    0  0.64343593967E+02 -0.15113411807E+02 -0.13160747745E+02  0.67555966296E+02  0.47000000000E+01 0. -1.
        -11    1    4    4    0    0 -0.17123620484E+02  0.21392947219E+02 -0.76110282870E+01  0.28439485241E+02  0.00000000000E+00 0.  1.
         12    1    4    4    0    0  0.30519303684E+02  0.60447462881E+02  0.97922994193E+02  0.11905560238E+03  0.00000000000E+00 0. -1.
         -5    1    5    5    0  502 -0.10482456590E+03 -0.66691174690E+02  0.19941864015E+03  0.23500167326E+03  0.47000000000E+01 0.  1.
         13    1    6    6    0    0  0.11138909698E+02  0.19982954543E+02  0.13086145649E+02  0.26356042751E+02  0.00000000000E+00 0. -1.
        -14    1    6    6    0    0  0.15946379033E+02 -0.20018778146E+02  0.15268115888E+03  0.15481141676E+03  0.00000000000E+00 0.  1.
</event>
<event>
12    1  0.9028446E-003  0.1955347E+03  0.7818608E-02  0.1153573E+00
         21   -1    0    0  503  502  0.00000000000E+00  0.00000000000E+00  0.25409493748E+02  0.25409493748E+02  0.00000000000E+00 0.  1.
         21   -1    0    0  501  503 -0.00000000000E+00 -0.00000000000E+00 -0.16712062180E+04  0.16712062180E+04  0.00000000000E+00 0.  1.
          6    2    1    2  501    0  0.47318408536E+02 -0.82899085199E+02 -0.55474067971E+03  0.58817667281E+03  0.17059685403E+03 0.  0.
         24    2    3    3    0    0  0.45141065848E+02  0.14221673923E+02 -0.23020278602E+03  0.24937862513E+03  0.83405060669E+02 0.  0.
         -6    2    1    2    0  502 -0.47318408536E+02  0.82899085199E+02 -0.10910560446E+04  0.11084390390E+04  0.17065321734E+03 0.  0.
        -24    2    5    5    0    0  0.13488958515E+02 -0.90912757811E+01 -0.39722606740E+03  0.40588520500E+03  0.81790266632E+02 0.  0.
          5    1    3    3  501    0  0.21773426877E+01 -0.97120759122E+02 -0.32453789369E+03  0.33879804769E+03  0.47000000000E+01 0. -1.
        -11    1    4    4    0    0  0.52729247826E+02  0.94256944585E+01 -0.66319150353E+02  0.85249322554E+02  0.00000000000E+00 0.  1.
         12    1    4    4    0    0 -0.75881819782E+01  0.47959794644E+01 -0.16388363566E+03  0.16412930257E+03  0.00000000000E+00 0. -1.
         -5    1    5    5    0  502 -0.60807367050E+02  0.91990360981E+02 -0.69382997716E+03  0.70255383395E+03  0.47000000000E+01 0.  1.
         13    1    6    6    0    0  0.11096334918E+02 -0.30549330432E+02 -0.62342275261E+02  0.70306112986E+02  0.00000000000E+00 0. -1.
        -14    1    6    6    0    0  0.23926235970E+01  0.21458054651E+02 -0.33488379214E+03  0.33557909201E+03  0.00000000000E+00 0.  1.
</event>
<event>
12    1  0.9028446E-003  0.1769859E+03  0.7818608E-02  0.1171072E+00
         21   -1    0    0  503  502  0.00000000000E+00  0.00000000000E+00  0.26245248061E+03  0.26245248061E+03  0.00000000000E+00 0.  1.
         21   -1    0    0  501  503 -0.00000000000E+00 -0.00000000000E+00 -0.12086555154E+03  0.12086555154E+03  0.00000000000E+00 0.  1.
          6    2    1    2  501    0  0.41796925366E+02 -0.55823422746E+01  0.43647624265E+02  0.18104069454E+03  0.17056515606E+03 0.  0.
         24    2    3    3    0    0 -0.23163422685E+02 -0.31641577199E+02  0.61947158231E+02  0.10854315330E+03  0.80040190881E+02 0.  0.
         -6    2    1    2    0  502 -0.41796925366E+02  0.55823422746E+01  0.97939304801E+02  0.20227733761E+03  0.17188911650E+03 0.  0.
        -24    2    5    5    0    0 -0.59599660157E+02  0.57486118766E+02  0.90194757598E+02  0.14666252491E+03  0.80734308527E+02 0.  0.
          5    1    3    3  501    0  0.64960348052E+02  0.26059234924E+02 -0.18299533966E+02  0.72497541249E+02  0.47000000000E+01 0. -1.
        -13    1    4    4    0    0 -0.11975649932E+02 -0.57175274604E+01 -0.18794269272E+02  0.23007191681E+02  0.00000000000E+00 0.  1.
         14    1    4    4    0    0 -0.11187772753E+02 -0.25924049738E+02  0.80741427503E+02  0.85535961614E+02  0.00000000000E+00 0. -1.
         -5    1    5    5    0  502  0.17802734790E+02 -0.51903776491E+02  0.77445472026E+01  0.55614812698E+02  0.47000000000E+01 0.  1.
         11    1    6    6    0    0  0.21477275973E+01  0.45673614753E+02  0.13872944540E+02  0.47782323181E+02  0.00000000000E+00 0. -1.
        -12    1    6    6    0    0 -0.61747387754E+02  0.11812504013E+02  0.76321813058E+02  0.98880201729E+02  0.00000000000E+00 0.  1.
</event>
<event>
12    1  0.9028446E-003  0.1912609E+03  0.7818608E-02  0.1157444E+00
         21   -1    0    0  501  502  0.00000000000E+00  0.00000000000E+00  0.13698861428E+03  0.13698861428E+03  0.00000000000E+00 0.  1.
         21   -1    0    0  502  503 -0.00000000000E+00 -0.00000000000E+00 -0.26637207288E+03  0.26637207288E+03  0.00000000000E+00 0.  1.
          6    2    1    2  501    0  0.64616459402E+02  0.53425552765E+02 -0.61660707783E+02  0.20046393475E+03  0.17133058612E+03 0.  0.
         24    2    3    3    0    0  0.10495068026E+03  0.40398488818E+02 -0.14722190138E+02  0.13704573385E+03  0.76929234361E+02 0.  0.
         -6    2    1    2    0  503 -0.64616459402E+02 -0.53425552765E+02 -0.67722750816E+02  0.20289675240E+03  0.17190446371E+03 0.  0.
        -24    2    5    5    0    0  0.32016543968E+02 -0.39633254805E+02 -0.49772280407E+02  0.10353642727E+03  0.75144247284E+02 0.  0.
          5    1    3    3  501    0 -0.40334220855E+02  0.13027063947E+02 -0.46938517645E+02  0.63418200903E+02  0.47000000000E+01 0. -1.
        -11    1    4    4    0    0  0.17192298507E+02 -0.22428743559E+02 -0.47512585196E+01  0.28656554628E+02  0.00000000000E+00 0.  1.
         12    1    4    4    0    0  0.87758381750E+02  0.62827232377E+02 -0.99709316186E+01  0.10838917922E+03  0.00000000000E+00 0. -1.
         -5    1    5    5    0  503 -0.96633003370E+02 -0.13792297961E+02 -0.17950470409E+02  0.99360325137E+02  0.47000000000E+01 0.  1.
         13    1    6    6    0    0  0.25357052468E+02  0.16064316446E+02 -0.23966884266E+01  0.30112895712E+02  0.00000000000E+00 0. -1.
        -14    1    6    6    0    0  0.66594915006E+01 -0.55697571251E+02 -0.47375591980E+02  0.73423531553E+02  0.00000000000E+00 0.  1.
</event>
<event>
12    1  0.9028446E-003  0.1815008E+03  0.7818608E-02  0.1166606E+00
         21   -1    0    0  503  502  0.00000000000E+00  0.00000000000E+00  0.14902192495E+04  0.14902192495E+04  0.00000000000E+00 0.  1.
         21   -1    0    0  501  503 -0.00000000000E+00 -0.00000000000E+00 -0.28606854880E+02  0.28606854880E+02  0.00000000000E+00 0.  1.
          6    2    1    2  501    0 -0.12678854641E+02 -0.46627035369E+02  0.36690740946E+03  0.40934530450E+03  0.17495055706E+03 0.  0.
         24    2    3    3    0    0 -0.30275297476E+02  0.20967216217E+02  0.95512120874E+02  0.12906667471E+03  0.78609309210E+02 0.  0.
         -6    2    1    2    0  502  0.12678854641E+02  0.46627035369E+02  0.10947049852E+04  0.11094807999E+04  0.17387871344E+03 0.  0.
        -24    2    5    5    0    0  0.31111093850E+02  0.27872450214E+02  0.10681699647E+04  0.10718287187E+04  0.78006122248E+02 0.  0.
          5    1    3    3  501    0  0.17596442836E+02 -0.67594251586E+02  0.27139528859E+03  0.28027862979E+03  0.47000000000E+01 0. -1.
        -13    1    4    4    0    0 -0.13865021482E+01  0.13387592821E+02 -0.11662044671E+02  0.17808798827E+02  0.00000000000E+00 0.  1.
         14    1    4    4    0    0 -0.28888795328E+02  0.75796233964E+01  0.10717416555E+03  0.11125787589E+03  0.00000000000E+00 0. -1.
         -5    1    5    5    0  502 -0.18432239209E+02  0.18754585155E+02  0.26535020476E+02  0.37652081194E+02  0.47000000000E+01 0.  1.
         11    1    6    6    0    0 -0.16565543502E+02 -0.15107676345E+02  0.19055214220E+03  0.19186656304E+03  0.00000000000E+00 0. -1.
        -12    1    6    6    0    0  0.47676637352E+02  0.42980126560E+02  0.87761782249E+03  0.87996215565E+03  0.00000000000E+00 0.  1.
</event>
<event>
12    1  0.9028446E-003  0.2482313E+03  0.7818608E-02  0.1114502E+00
         21   -1    0    0  503  502  0.00000000000E+00  0.00000000000E+00  0.14956712159E+04  0.14956712159E+04  0.00000000000E+00 0.  1.
         21   -1    0    0  501  503 -0.00000000000E+00 -0.00000000000E+00 -0.88114162865E+02  0.88114162865E+02  0.00000000000E+00 0. -1.
          6    2    1    2  501    0  0.16494095577E+03  0.67718744317E+02  0.12577478987E+03  0.27827693302E+03  0.17270612746E+03 0.  0.
         24    2    3    3    0    0  0.70366682327E+02  0.98539756140E+02  0.95999297558E+02  0.17433994293E+03  0.80727919865E+02 0.  0.
         -6    2    1    2    0  502 -0.16494095577E+03 -0.67718744317E+02  0.12817822632E+04  0.13055084457E+04  0.17203251009E+03 0.  0.
        -24    2    5    5    0    0 -0.58406803375E+02 -0.63418044442E+02  0.96683650647E+03  0.97297131803E+03  0.66836759594E+02 0.  0.
          5    1    3    3  501    0  0.94574273447E+02 -0.30821011823E+02  0.29775492316E+02  0.10393699010E+03  0.47000000000E+01 0. -1.
        -11    1    4    4    0    0  0.65388582840E+02  0.78791980777E+02  0.10949394162E+03  0.14990919335E+03  0.00000000000E+00 0.  1.
         12    1    4    4    0    0  0.49780994872E+01  0.19747775363E+02 -0.13494644062E+02  0.24430749572E+02  0.00000000000E+00 0. -1.
         -5    1    5    5    0  502 -0.10653415240E+03 -0.43006998755E+01  0.31494575668E+03  0.33253712770E+03  0.47000000000E+01 0.  1.
         13    1    6    6    0    0 -0.91242542391E+01 -0.37946222139E+02  0.18004270164E+03  0.18422416292E+03  0.00000000000E+00 0. -1.
        -14    1    6    6    0    0 -0.49282549136E+02 -0.25471822303E+02  0.78679380483E+03  0.78874715511E+03  0.00000000000E+00 0.  1.
</event>
<event>
12    1  0.9028446E-003  0.2972334E+03  0.7818608E-02  0.1086825E+00
         21   -1    0    0  501  502  0.00000000000E+00  0.00000000000E+00  0.46000677134E+03  0.46000677134E+03  0.00000000000E+00 0.  1.
         21   -1    0    0  502  503 -0.00000000000E+00 -0.00000000000E+00 -0.26151460657E+03  0.26151460657E+03  0.00000000000E+00 0. -1.
          6    2    1    2  501    0  0.20242297305E+03  0.13236112103E+03  0.28629062834E+03  0.41159188584E+03  0.17015002272E+03 0.  0.
         24    2    3    3    0    0  0.19135487065E+03  0.15037034531E+03  0.29302334730E+03  0.38891470447E+03  0.78511387825E+02 0.  0.
         -6    2    1    2    0  503 -0.20242297305E+03 -0.13236112103E+03 -0.87798463573E+02  0.30992949208E+03  0.17278076709E+03 0.  0.
        -24    2    5    5    0    0 -0.16121725292E+03 -0.14706969698E+03 -0.25617816617E+02  0.23375353502E+03  0.79774332951E+02 0.  0.
          5    1    3    3  501    0  0.11068102393E+02 -0.18009224285E+02 -0.67327189598E+01  0.22677181362E+02  0.47000000000E+01 0. -1.
        -13    1    4    4    0    0  0.18981537585E+03  0.13332641379E+03  0.24252444085E+03  0.33559486578E+03  0.00000000000E+00 0.  1.
         14    1    4    4    0    0  0.15394948019E+01  0.17043931518E+02  0.50498906452E+02  0.53319838697E+02  0.00000000000E+00 0. -1.
         -5    1    5    5    0  503 -0.41205720126E+02  0.14708575952E+02 -0.62180646955E+02  0.76175957056E+02  0.47000000000E+01 0.  1.
         11    1    6    6    0    0 -0.11780924757E+03 -0.11621267981E+03 -0.53139080839E+02  0.17380497022E+03  0.00000000000E+00 0. -1.
        -12    1    6    6    0    0 -0.43408005354E+02 -0.30857017173E+02  0.27521264221E+02  0.59948564804E+02  0.00000000000E+00 0.  1.
</event>
<event>
12    1  0.9028446E-003  0.2000240E+03  0.7818608E-02  0.1149795E+00
         21   -1    0    0  503  502  0.00000000000E+00  0.00000000000E+00  0.54426520358E+02  0.54426520358E+02  0.00000000000E+00 0. -1.
         21   -1    0    0  501  503 -0.00000000000E+00 -0.00000000000E+00 -0.11107270749E+04  0.11107270749E+04  0.00000000000E+00 0.  1.
          6    2    1    2  501    0  0.70985989503E+02  0.72363446552E+02 -0.86721669202E+03  0.88990405000E+03  0.17201438368E+03 0.  0.
         24    2    3    3    0    0  0.62108165473E+02  0.67115693015E+02 -0.31510102798E+03  0.33767207778E+03  0.79823767172E+02 0.  0.
         -6    2    1    2    0  502 -0.70985989503E+02 -0.72363446552E+02 -0.18908386255E+03  0.27524954528E+03  0.17243586054E+03 0.  0.
        -24    2    5    5    0    0 -0.97523306184E+02 -0.50120957221E+01 -0.13340681272E+03  0.18380307179E+03  0.80313605129E+02 0.  0.
          5    1    3    3  501    0  0.88778240298E+01  0.52477535368E+01 -0.55211566404E+03  0.55223197223E+03  0.47000000000E+01 0. -1.
        -13    1    4    4    0    0  0.82589372895E+01  0.34110440744E+02 -0.22451470801E+03  0.22724125138E+03  0.00000000000E+00 0.  1.
         14    1    4    4    0    0  0.53849228183E+02  0.33005252272E+02 -0.90586319972E+02  0.11043082640E+03  0.00000000000E+00 0. -1.
         -5    1    5    5    0  502  0.26537316681E+02 -0.67351350830E+02 -0.55677049829E+02  0.91446473486E+02  0.47000000000E+01 0.  1.
         11    1    6    6    0    0 -0.52108989197E+02 -0.22140349292E+02 -0.19324096424E+02  0.59824430833E+02  0.00000000000E+00 0. -1.
        -12    1    6    6    0    0 -0.45414316987E+02  0.17128253570E+02 -0.11408271629E+03  0.12397864096E+03  0.00000000000E+00 0.  1.
</event>
<event>
12    1  0.9028446E-003  0.2181469E+03  0.7818608E-02  0.1135537E+00
         21   -1    0    0  501  502  0.00000000000E+00  0.00000000000E+00  0.43827977764E+02  0.43827977764E+02  0.00000000000E+00 0.  1.
         21   -1    0    0  502  503 -0.00000000000E+00 -0.00000000000E+00 -0.13690231005E+04  0.13690231005E+04  0.00000000000E+00 0. -1.
          6    2    1    2  501    0  0.13103267783E+03 -0.27230197189E+02 -0.33568919368E+03  0.39958406608E+03  0.17049675897E+03 0.  0.
         24    2    3    3    0    0  0.91989008009E+01  0.10271113208E+02 -0.13580229824E+03  0.16246241276E+03  0.88100259993E+02 0.  0.
         -6    2    1    2    0  503 -0.13103267783E+03  0.27230197189E+02 -0.98950592905E+03  0.10132670122E+04  0.17227016002E+03 0.  0.
        -24    2    5    5    0    0 -0.28733255544E+02  0.41045492570E+01 -0.20577928020E+03  0.22253980415E+03  0.79601538755E+02 0.  0.
          5    1    3    3  501    0  0.12183377703E+03 -0.37501310397E+02 -0.19988689544E+03  0.23712165332E+03  0.47000000000E+01 0. -1.
        -13    1    4    4    0    0 -0.96883713439E+01 -0.28714358761E+02 -0.10505859289E+03  0.10934206362E+03  0.00000000000E+00 0.  1.
         14    1    4    4    0    0  0.18887272145E+02  0.38985471969E+02 -0.30743705354E+02  0.53120349138E+02  0.00000000000E+00 0. -1.
         -5    1    5    5    0  503 -0.10229942228E+03  0.23125647932E+02 -0.78372664884E+03  0.79072720802E+03  0.47000000000E+01 0.  1.
         13    1    6    6    0    0 -0.38361759380E+01  0.24211724202E+02 -0.17939857927E+03  0.18106566235E+03  0.00000000000E+00 0. -1.
        -14    1    6    6    0    0 -0.24897079605E+02 -0.20107174945E+02 -0.26380700929E+02  0.41474141808E+02  0.00000000000E+00 0.  1.
</event>
<event>
12    1  0.9028446E-003  0.2490815E+03  0.7818608E-02  0.1114598E+00
         21   -1    0    0  501  502  0.00000000000E+00  0.00000000000E+00  0.19124858715E+04  0.19124858715E+04  0.00000000000E+00 0. -1.
         21   -1    0    0  502  503 -0.00000000000E+00 -0.00000000000E+00 -0.67923526219E+02  0.67923526219E+02  0.00000000000E+00 0. -1.
          6    2    1    2  501    0 -0.11975967234E+03  0.12464047284E+03  0.16476261508E+04  0.16663473579E+04  0.17934312931E+03 0.  0.
         24    2    3    3    0    0  0.83688878383E+01  0.22602222268E+02  0.45394186759E+03  0.46146852983E+03  0.79429756018E+02 0.  0.
         -6    2    1    2    0  503  0.11975967234E+03 -0.12464047284E+03  0.19693619452E+03  0.31406203978E+03  0.17312848851E+03 0.  0.
        -24    2    5    5    0    0  0.11546274586E+03 -0.15236275890E+03  0.19662660126E+03  0.28561604587E+03  0.79802564853E+02 0.  0.
          5    1    3    3  501    0 -0.12812856017E+03  0.10203825057E+03  0.11936842832E+04  0.12048788281E+04  0.47000000000E+01 0. -1.
        -11    1    4    4    0    0 -0.23765328563E+02  0.53082730933E+01  0.35790015336E+03  0.35872759635E+03  0.00000000000E+00 0.  1.
         12    1    4    4    0    0  0.32134216401E+02  0.17293949175E+02  0.96041714231E+02  0.10274093349E+03  0.00000000000E+00 0. -1.
         -5    1    5    5    0  503  0.42969264798E+01  0.27722286058E+02  0.30959325185E+00  0.28445993908E+02  0.47000000000E+01 0.  1.
         13    1    6    6    0    0 -0.31774824330E+01 -0.44983864680E+02  0.60962992250E+02  0.75829617566E+02  0.00000000000E+00 0. -1.
        -14    1    6    6    0    0  0.11864022829E+03 -0.10737889422E+03  0.13566360901E+03  0.20978642831E+03  0.00000000000E+00 0.  1.
</event>
<event>
12    1  0.9028446E-003  0.2065750E+03  0.7818608E-02  0.1144638E+00
         21   -1    0    0  503  502  0.00000000000E+00  0.00000000000E+00  0.19252905565E+03  0.19252905565E+03  0.00000000000E+00 0. -1.
         21   -1    0    0  501  503 -0.00000000000E+00 -0.00000000000E+00 -0.21992707846E+03  0.21992707846E+03  0.00000000000E+00 0.  1.
          6    2    1    2  501    0 -0.33896304226E+02 -0.10730787022E+03 -0.15968700076E+02  0.20719128511E+03  0.17323189889E+03 0.  0.
         24    2    3    3    0    0 -0.83699225697E+02 -0.68812673144E+02  0.18903238238E+02  0.13507781018E+03  0.78408787892E+02 0.  0.
         -6    2    1    2    0  502  0.33896304226E+02  0.10730787022E+03 -0.11429322733E+02  0.20526484900E+03  0.17128657380E+03 0.  0.
        -24    2    5    5    0    0 -0.28541128524E+02  0.10757748305E+03 -0.30591297445E+02  0.13978372978E+03  0.78842582113E+02 0.  0.
          5    1    3    3  501    0  0.49802921471E+02 -0.38495197076E+02 -0.34871938314E+02  0.72113474932E+02  0.47000000000E+01 0. -1.
        -11    1    4    4    0    0 -0.13677947207E+02 -0.87311072781E+01 -0.27401228669E+02  0.31845656009E+02  0.00000000000E+00 0.  1.
         12    1    4    4    0    0 -0.70021278491E+02 -0.60081565866E+02  0.46304466908E+02  0.10323215417E+03  0.00000000000E+00 0. -1.
         -5    1    5    5    0  502  0.62437432750E+02 -0.26961282839E+00  0.19161974712E+02  0.65481119220E+02  0.47000000000E+01 0.  1.
         11    1    6    6    0    0 -0.27065786984E+02  0.70656777839E+01  0.12218519042E+02  0.30524954303E+02  0.00000000000E+00 0. -1.
        -12    1    6    6    0    0 -0.14753415395E+01  0.10051180526E+03 -0.42809816487E+02  0.10925877547E+03  0.00000000000E+00 0.  1.
</event>
<event>
12    1  0.9028446E-003  0.2069060E+03  0.7818608E-02  0.1144166E+00
         21   -1    0    0  503  502  0.00000000000E+00  0.00000000000E+00  0.58111348582E+03  0.58111348582E+03  0.00000000000E+00 0. -1.
         21   -1    0    0  501  503 -0.00000000000E+00 -0.00000000000E+00 -0.83615150542E+02  0.83615150542E+02  0.00000000000E+00 0.  1.
          6    2    1    2  501    0  0.34727931509E+02 -0.10594714800E+03  0.13251367912E+03  0.24517661720E+03  0.17355365473E+03 0.  0.
         24    2    3    3    0    0 -0.20313816751E+02 -0.51355202023E+02  0.64223288295E+01  0.97085451912E+02  0.79588508841E+02 0.  0.
         -6    2    1    2    0  502 -0.34727931509E+02  0.10594714800E+03  0.36498465615E+03  0.41955201916E+03  0.17429650071E+03 0.  0.
        -24    2    5    5    0    0 -0.10698751802E+02  0.52830530568E+02  0.34701834599E+03  0.35836660566E+03  0.71409826691E+02 0.  0.
          5    1    3    3  501    0  0.55041748260E+02 -0.54591945975E+02  0.12609135029E+03  0.14809116528E+03  0.47000000000E+01 0. -1.
        -11    1    4    4    0    0  0.27606571657E+02 -0.19052041187E+02 -0.13210384772E+02  0.36050205795E+02  0.00000000000E+00 0.  1.
         12    1    4    4    0    0 -0.47920388408E+02 -0.32303160836E+02  0.19632713602E+02  0.61035246117E+02  0.00000000000E+00 0. -1.
         -5    1    5    5    0  502 -0.24029179706E+02  0.53116617429E+02  0.17966310161E+02  0.61185413501E+02  0.47000000000E+01 0.  1.
         13    1    6    6    0    0 -0.30629803965E+02 -0.24225120984E+01  0.11711118197E+03  0.12107469760E+03  0.00000000000E+00 0. -1.
        -14    1    6    6    0    0  0.19931052162E+02  0.55253042667E+02  0.22990716402E+03  0.23729190807E+03  0.00000000000E+00 0.  1.
</event>
<event>
12    1  0.9028446E-003  0.2223213E+03  0.7818608E-02  0.1132175E+00
         21   -1    0    0  503  502  0.00000000000E+00  0.00000000000E+00  0.65067317792E+02  0.65067317792E+02  0.00000000000E+00 0.  1.
         21   -1    0    0  501  503 -0.00000000000E+00 -0.00000000000E+00 -0.90307653569E+03  0.90307653569E+03  0.00000000000E+00 0.  1.
          6    2    1    2  501    0 -0.11906103901E+03  0.73831807565E+02 -0.22588419457E+03  0.31689596221E+03  0.17254771713E+03 0.  0.
         24    2    3    3    0    0  0.68327301957E+01  0.10868228950E+02 -0.88100475862E+02  0.11986780052E+03  0.80260769694E+02 0.  0.
         -6    2    1    2    0  502  0.11906103901E+03 -0.73831807565E+02 -0.61212502333E+03  0.65124789128E+03  0.17262706883E+03 0.  0.
        -24    2    5    5    0    0  0.57822288451E+02  0.22141196336E+02 -0.37002003641E+03  0.38367002086E+03  0.80338085264E+02 0.  0.
          5    1    3    3  501    0 -0.12589376920E+03  0.62963578615E+02 -0.13778371871E+03  0.19702816169E+03  0.47000000000E+01 0. -1.
        -13    1    4    4    0    0  0.11802481504E+02  0.27465604633E+02  0.18874135189E+00  0.29894709077E+02  0.00000000000E+00 0.  1.
         14    1    4    4    0    0 -0.49697513082E+01 -0.16597375683E+02 -0.88289217214E+02  0.89973091443E+02  0.00000000000E+00 0. -1.
         -5    1    5    5    0  502  0.61238750557E+02 -0.95973003901E+02 -0.24210498691E+03  0.26757787041E+03  0.47000000000E+01 0.  1.
         13    1    6    6    0    0  0.10569437827E+02  0.32164265683E+02 -0.52320136182E+02  0.62318934947E+02  0.00000000000E+00 0. -1.
        -14    1    6    6    0    0  0.47252850625E+02 -0.10023069347E+02 -0.31769990023E+03  0.32135108591E+03  0.00000000000E+00 0.  1.
</event>
<event>
12    1  0.9028446E-003  0.2501732E+03  0.7818608E-02  0.1113614E+00
         21   -1    0    0  501  502  0.00000000000E+00  0.00000000000E+00  0.18864454537E+03  0.18864454537E+03  0.00000000000E+00 0. -1.
         21   -1    0    0  502  503 -0.00000000000E+00 -0.00000000000E+00 -0.43622237912E+03  0.43622237912E+03  0.00000000000E+00 0.  1.
          6    2    1    2  501    0  0.10758743754E+03  0.14224058138E+03  0.32117784676E+02  0.24961199854E+03  0.17166000704E+03 0.  0.
         24    2    3    3    0    0  0.11391711198E+03  0.87599015245E+02 -0.29310571484E+02  0.16702084606E+03  0.79913437823E+02 0.  0.
         -6    2    1    2    0  503 -0.10758743754E+03 -0.14224058138E+03 -0.27969561843E+03  0.37525492595E+03  0.17543996344E+03 0.  0.
        -24    2    5    5    0    0 -0.52428378487E+02 -0.15602184822E+03 -0.25327120717E+03  0.31238375114E+03  0.79660225990E+02 0.  0.
          5    1    3    3  501    0 -0.63296744422E+01  0.54641566133E+02  0.61428356160E+02  0.82591152483E+02  0.47000000000E+01 0. -1.
        -11    1    4    4    0    0  0.79976290684E+02  0.77402084639E+02 -0.54121508070E+02  0.12375955484E+03  0.00000000000E+00 0.  1.
         12    1    4    4    0    0  0.33940821296E+02  0.10196930606E+02  0.24810936586E+02  0.43261291223E+02  0.00000000000E+00 0. -1.
         -5    1    5    5    0  503 -0.55159059051E+02  0.13781266838E+02 -0.26424411262E+02  0.62871174807E+02  0.47000000000E+01 0.  1.
         13    1    6    6    0    0 -0.71650950877E+02 -0.96526269145E+02 -0.17196934419E+03  0.20982048217E+03  0.00000000000E+00 0. -1.
        -14    1    6    6    0    0  0.19222572390E+02 -0.59495579072E+02 -0.81301862977E+02  0.10256326897E+03  0.00000000000E+00 0.  1.
</event>
<event>
12    1  0.9028446E-003  0.2036761E+03  0.7818608E-02  0.1146752E+00
         21   -1    0    0  501  502  0.00000000000E+00  0.00000000000E+00  0.17597215039E+04  0.17597215039E+04  0.00000000000E+00 0.  1.
         21   -1    0    0  502  503 -0.00000000000E+00 -0.00000000000E+00 -0.32625016655E+02  0.32625016655E+02  0.00000000000E+00 0. -1.
          6    2    1    2  501    0 -0.96463665254E+02 -0.49947456151E+02  0.13372953043E+04  0.13527167729E+04  0.17229030622E+03 0.  0.
         24    2    3    3    0    0  0.19696824603E+02 -0.11967357458E+02  0.46584229603E+03  0.47272348715E+03  0.76988752328E+02 0.  0.
         -6    2    1    2    0  503  0.96463665254E+02  0.49947456151E+02  0.38980118292E+03  0.43962974765E+03  0.17184110605E+03 0.  0.
        -24    2    5    5    0    0 -0.16844133334E+02  0.23159559068E+02  0.14145048819E+03  0.16530073675E+03  0.80597785067E+02 0.  0.
          5    1    3    3  501    0 -0.11616048986E+03 -0.37980098692E+02  0.87145300832E+03  0.87999328577E+03  0.47000000000E+01 0. -1.
        -13    1    4    4    0    0 -0.11079149971E+02  0.25259072937E+02  0.10102297308E+03  0.10472062557E+03  0.00000000000E+00 0.  1.
         14    1    4    4    0    0  0.30775974574E+02 -0.37226430396E+02  0.36481932295E+03  0.36800286157E+03  0.00000000000E+00 0. -1.
         -5    1    5    5    0  503  0.11330779859E+03  0.26787897082E+02  0.24835069473E+03  0.27432901090E+03  0.47000000000E+01 0.  1.
         11    1    6    6    0    0  0.26198098777E+02  0.51133375752E+01  0.15239200679E+02  0.30736295125E+02  0.00000000000E+00 0. -1.
        -12    1    6    6    0    0 -0.43042232111E+02  0.18046221493E+02  0.12621128751E+03  0.13456444163E+03  0.00000000000E+00 0.  1.
</event>
<event>
12    1  0.9028446E-003  0.1730570E+03  0.7818608E-02  0.1179570E+00
         21   -1    0    0  503  502  0.00000000000E+00  0.00000000000E+00  0.17750013351E+03  0.17750013351E+03  0.00000000000E+00 0. -1.
         21   -1    0    0  501  503 -0.00000000000E+00 -0.00000000000E+00 -0.15329516521E+03  0.15329516521E+03  0.00000000000E+00 0.  1.
          6    2    1    2  501    0 -0.18220101407E+02 -0.81945671462E+01 -0.59558958238E+01  0.15512968704E+03  0.15372255554E+03 0.  0.
         24    2    3    3    0    0 -0.44457201906E+02  0.82337200322E+01  0.38768044662E+02  0.10053486206E+03  0.80994198902E+02 0.  0.
         -6    2    1    2    0  502  0.18220101407E+02  0.81945671462E+01  0.30160864124E+02  0.17566561167E+03  0.17189998945E+03 0.  0.
        -24    2    5    5    0    0 -0.49224041053E+02 -0.10366483516E+02 -0.10138693633E+02  0.94799244684E+02  0.79709682511E+02 0.  0.
          5    1    3    3  501    0  0.26237100499E+02 -0.16428287178E+02 -0.44723940486E+02  0.54594824982E+02  0.47000000000E+01 0. -1.
        -11    1    4    4    0    0 -0.51336892882E+01 -0.87141391513E+01 -0.23144107074E+02  0.25257487585E+02  0.00000000000E+00 0.  1.
         12    1    4    4    0    0 -0.39323512617E+02  0.16947859183E+02  0.61912151736E+02  0.75277374476E+02  0.00000000000E+00 0. -1.
         -5    1    5    5    0  502  0.67444142460E+02  0.18561050662E+02  0.40299557757E+02  0.80866366985E+02  0.47000000000E+01 0.  1.
         13    1    6    6    0    0 -0.37432221607E+02  0.30374854019E+02 -0.18382812581E+02  0.51591964195E+02  0.00000000000E+00 0. -1.
        -14    1    6    6    0    0 -0.11791819446E+02 -0.40741337536E+02  0.82441189473E+01  0.43207280489E+02  0.00000000000E+00 0.  1.
</event>
<event>
12    1  0.9028446E-003  0.1969104E+03  0.7818608E-02  0.1152608E+00
         21   -1    0    0  503  502  0.00000000000E+00  0.00000000000E+00  0.19766039685E+03  0.19766039685E+03  0.00000000000E+00 0.  1.
         21   -1    0    0  501  503 -0.00000000000E+00 -0.00000000000E+00 -0.27721256578E+03  0.27721256578E+03  0.00000000000E+00 0.  1.
          6    2    1    2  501    0  0.91062822439E+02 -0.20560607471E+02 -0.16894222110E+03  0.25862242507E+03  0.17213049838E+03 0.  0.
         24    2    3    3    0    0  0.11514613642E+03  0.30502066770E+02 -0.10845262651E+03  0.17574610900E+03  0.70254635589E+02 0.  0.
         -6    2    1    2    0  502 -0.91062822439E+02  0.20560607471E+02  0.89390052166E+02  0.21625053756E+03  0.17337398120E+03 0.  0.
        -24    2    5    5    0    0  0.16067949476E+02  0.35102933169E+02  0.55303027282E+02  0.10279351136E+03  0.77573747065E+02 0.  0.
          5    1    3    3  501    0 -0.24083313979E+02 -0.51062674241E+02 -0.60489594586E+02  0.82876316075E+02  0.47000000000E+01 0. -1.
        -11    1    4    4    0    0  0.19768200020E+00  0.23021750503E+02 -0.20305558330E+02  0.30697813822E+02  0.00000000000E+00 0.  1.
         12    1    4    4    0    0  0.11494845442E+03  0.74803162670E+01 -0.88147068183E+02  0.14504829518E+03  0.00000000000E+00 0. -1.
         -5    1    5    5    0  502 -0.10713077192E+03 -0.14542325698E+02  0.34087024884E+02  0.11345702620E+03  0.47000000000E+01 0.  1.
         11    1    6    6    0    0 -0.12398826498E+02  0.16754672073E+02  0.64430013387E+02  0.67717623702E+02  0.00000000000E+00 0. -1.
        -12    1    6    6    0    0  0.28466775974E+02  0.18348261096E+02 -0.91269861055E+01  0.35075887657E+02  0.00000000000E+00 0.  1.
</event>
<event>
12    1  0.9028446E-003  0.1865410E+03  0.7818608E-02  0.1162634E+00
         21   -1    0    0  501  502  0.00000000000E+00  0.00000000000E+00  0.77048570193E+03  0.77048570193E+03  0.00000000000E+00 0.  1.
         21   -1    0    0  502  503 -0.00000000000E+00 -0.00000000000E+00 -0.46668431171E+02  0.46668431171E+02  0.00000000000E+00 0.  1.
          6    2    1    2  501    0  0.54534089934E+02  0.27422048088E+02  0.46143437598E+03  0.49771401404E+03  0.17627144053E+03 0.  0.
         24    2    3    3    0    0  0.93865736933E+02  0.33591288948E+02  0.42463364292E+03  0.44329506566E+03  0.79105203859E+02 0.  0.
         -6    2    1    2    0  503 -0.54534089934E+02 -0.27422048088E+02  0.26238289478E+03  0.31944011906E+03  0.17167198522E+03 0.  0.
        -24    2    5    5    0    0 -0.81557952791E+02 -0.63302522562E+02  0.21652563059E+03  0.25507649353E+03  0.86728079805E+02 0.  0.
          5    1    3    3  501    0 -0.39331646999E+02 -0.61692408601E+01  0.36800733065E+02  0.54418948378E+02  0.47000000000E+01 0. -1.
        -13    1    4    4    0    0  0.10028514952E+03  0.37542840048E+02  0.30186583070E+03  0.32029604400E+03  0.00000000000E+00 0.  1.
         14    1    4    4    0    0 -0.64194125902E+01 -0.39515511005E+01  0.12276781222E+03  0.12299902166E+03  0.00000000000E+00 0. -1.
         -5    1    5    5    0  503  0.27023862857E+02  0.35880474475E+02  0.45857264190E+02  0.64363625529E+02  0.47000000000E+01 0.  1.
         11    1    6    6    0    0  0.14300066149E+02 -0.27227010071E+02  0.68327645545E+02  0.74929761210E+02  0.00000000000E+00 0. -1.
        -12    1    6    6    0    0 -0.95858018941E+02 -0.36075512491E+02  0.14819798504E+03  0.18014673232E+03  0.00000000000E+00 0.  1.
</event>
<event>
12    1  0.9028446E-003  0.2793937E+03  0.7818608E-02  0.1096241E+00
         21   -1    0    0  501  502  0.00000000000E+00  0.00000000000E+00  0.65704534887E+02  0.65704534887E+02  0.00000000000E+00 0. -1.
         21   -1    0    0  502  503 -0.00000000000E+00 -0.00000000000E+00 -0.12573271774E+04  0.12573271774E+04  0.00000000000E+00 0. -1.
          6    2    1    2  501    0  0.21848249157E+03  0.13677427360E+02 -0.43148962940E+03  0.51317800577E+03  0.17101664884E+03 0.  0.
         24    2    3    3    0    0  0.16478404677E+03  0.10815654325E+02 -0.41660644066E+03  0.45718414873E+03  0.90474631809E+02 0.  0.
         -6    2    1    2    0  503 -0.21848249157E+03 -0.13677427360E+02 -0.76013301314E+03  0.80985370655E+03  0.17360632822E+03 0.  0.
        -24    2    5    5    0    0 -0.22731919180E+03 -0.10195422155E+02 -0.76179125302E+03  0.79912750542E+03  0.80628128828E+02 0.  0.
          5    1    3    3  501    0  0.53698444800E+02  0.28617730343E+01 -0.14883188740E+02  0.55993857037E+02  0.47000000000E+01 0. -1.
        -13    1    4    4    0    0  0.65427423930E+02 -0.37855778481E+02 -0.20318228374E+03  0.21678756466E+03  0.00000000000E+00 0.  1.
         14    1    4    4    0    0  0.99356622843E+02  0.48671432806E+02 -0.21342415692E+03  0.24039658407E+03  0.00000000000E+00 0. -1.
         -5    1    5    5    0  503  0.88367002227E+01 -0.34820052050E+01  0.16582398764E+01  0.10726201124E+02  0.47000000000E+01 0.  1.
         13    1    6    6    0    0 -0.11521043982E+03  0.26782862274E+02 -0.46277467427E+03  0.47765172071E+03  0.00000000000E+00 0. -1.
        -14    1    6    6    0    0 -0.11210875197E+03 -0.36978284429E+02 -0.29901657875E+03  0.32147578471E+03  0.00000000000E+00 0.  1.
</event>
<event>
12    1  0.9028446E-003  0.1897154E+03  0.7818608E-02  0.1159008E+00
         21   -1    0    0  503  502  0.00000000000E+00  0.00000000000E+00  0.11897404873E+03  0.11897404873E+03  0.00000000000E+00 0.  1.
         21   -1    0    0  501  503 -0.00000000000E+00 -0.00000000000E+00 -0.52208915166E+03  0.52208915166E+03  0.00000000000E+00 0.  1.
          6    2    1    2  501    0  0.73625852517E+02  0.30338808787E+02 -0.40999209049E+03  0.45122316888E+03  0.17078531669E+03 0.  0.
         24    2    3    3    0    0  0.10531552607E+03  0.29340409128E+02 -0.39193789120E+03  0.41443626464E+03  0.78675836562E+02 0.  0.
         -6    2    1    2    0  502 -0.73625852517E+02 -0.30338808787E+02  0.68769875525E+01  0.18984003150E+03  0.17219388818E+03 0.  0.
        -24    2    5    5    0    0 -0.17100219306E+02  0.45555400596E+02  0.12302402200E+02  0.94936905360E+02  0.80585078492E+02 0.  0.
          5    1    3    3  501    0 -0.31689673549E+02  0.99839965956E+00 -0.18054199290E+02  0.36786904239E+02  0.47000000000E+01 0. -1.
        -13    1    4    4    0    0  0.53237834730E+02  0.30387900047E+02 -0.31883437675E+03  0.32467376136E+03  0.00000000000E+00 0.  1.
         14    1    4    4    0    0  0.52077691336E+02 -0.10474909198E+01 -0.73103514446E+02  0.89762503288E+02  0.00000000000E+00 0. -1.
         -5    1    5    5    0  502 -0.56525633211E+02 -0.75894209384E+02 -0.54254146473E+01  0.94903126144E+02  0.47000000000E+01 0.  1.
         11    1    6    6    0    0 -0.49220687736E+02  0.23657321251E+02  0.16788299646E+01  0.54636649056E+02  0.00000000000E+00 0. -1.
        -12    1    6    6    0    0  0.32120468430E+02  0.21898079345E+02  0.10623572235E+02  0.40300256304E+02  0.00000000000E+00 0.  1.
</event>
<event>
12    1  0.9028446E-003  0.1757026E+03  0.7818608E-02  0.1172413E+00
         21   -1    0    0  503  502  0.00000000000E+00  0.00000000000E+00  0.71394127632E+02  0.71394127632E+02  0.00000000000E+00 0.  1.
         21   -1    0    0  501  503 -0.00000000000E+00 -0.00000000000E+00 -0.54695402425E+03  0.54695402425E+03  0.00000000000E+00 0.  1.
          6    2    1    2  501    0  0.37290276572E+01  0.25022403723E+02 -0.94801183181E+02  0.19964635173E+03  0.17387172021E+03 0.  0.
         24    2    3    3    0    0  0.71755610877E+01  0.12104745722E+02  0.19854423865E+02  0.84118248183E+02  0.80521226918E+02 0.  0.
         -6    2    1    2    0  502 -0.37290276572E+01 -0.25022403723E+02 -0.38075871343E+03  0.41870180016E+03  0.17231939317E+03 0.  0.
        -24    2    5    5    0    0  0.76256599200E+01  0.12548042133E+02 -0.72621214302E+02  0.10803916046E+03  0.78632152299E+02 0.  0.
          5    1    3    3  501    0 -0.34465334304E+01  0.12917658001E+02 -0.11465560705E+03  0.11552810354E+03  0.47000000000E+01 0. -1.
        -11    1    4    4    0    0 -0.66638464109E+01  0.45082322007E+02  0.69581423939E+01  0.46100307506E+02  0.00000000000E+00 0.  1.
         12    1    4    4    0    0  0.13839407499E+02 -0.32977576285E+02  0.12896281472E+02  0.38017940677E+02  0.00000000000E+00 0. -1.
         -5    1    5    5    0  502 -0.11354687577E+02 -0.37570445856E+02 -0.30813749913E+03  0.31066263970E+03  0.47000000000E+01 0.  1.
         11    1    6    6    0    0  0.11052724507E+00 -0.32802538029E+02 -0.21156203958E+02  0.39033366282E+02  0.00000000000E+00 0. -1.
        -12    1    6    6    0    0  0.75151326749E+01  0.45350580162E+02 -0.51465010344E+02  0.69005794176E+02  0.00000000000E+00 0.  1.
</event>
<event>
12    1  0.9028446E-003  0.2169959E+03  0.7818608E-02  0.1136799E+00
         21   -1    0    0  503  502  0.00000000000E+00  0.00000000000E+00  0.76366234132E+03  0.76366234132E+03  0.00000000000E+00 0.  1.
         21   -1    0    0  501  503 -0.00000000000E+00 -0.00000000000E+00 -0.70421600884E+02  0.70421600884E+02  0.00000000000E+00 0.  1.
          6    2    1    2  501    0 -0.11642311671E+03  0.62983102317E+02  0.19396808752E+03  0.29105127510E+03  0.17194770273E+03 0.  0.
         24    2    3    3    0    0 -0.13629763394E+03  0.29005325892E+02  0.19255501502E+03  0.25138299432E+03  0.81839000948E+02 0.  0.
         -6    2    1    2    0  502  0.11642311671E+03 -0.62983102317E+02  0.49927265292E+03  0.54303266711E+03  0.16760096157E+03 0.  0.
        -24    2    5    5    0    0  0.44702098164E+02 -0.10286638015E+02  0.11015287826E+03  0.14383708737E+03  0.80320349938E+02 0.  0.
          5    1    3    3  501    0  0.19874517227E+02  0.33977776425E+02  0.14130725034E+01  0.39668280775E+02  0.47000000000E+01 0. -1.
        -11    1    4    4    0    0 -0.34208802380E+02  0.24487319875E+02  0.11719679912E+02  0.43671751650E+02  0.00000000000E+00 0.  1.
         12    1    4    4    0    0 -0.10208883156E+03  0.45180060169E+01  0.18083533511E+03  0.20771124267E+03  0.00000000000E+00 0. -1.
         -5    1    5    5    0  502  0.71721018549E+02 -0.52696464301E+02  0.38911977466E+03  0.39919557974E+03  0.47000000000E+01 0.  1.
         13    1    6    6    0    0  0.34521424900E+02  0.32209895698E+02  0.70369717444E+02  0.84741390661E+02  0.00000000000E+00 0. -1.
        -14    1    6    6    0    0  0.10180673265E+02 -0.42496533714E+02  0.39783160811E+02  0.59095696712E+02  0.00000000000E+00 0.  1.
</event>
<event>
12    1  0.9028446E-003  0.1876396E+03  0.7818608E-02  0.1161559E+00
         21   -1    0    0  501  502  0.00000000000E+00  0.00000000000E+00  0.19801566568E+03  0.19801566568E+03  0.00000000000E+00 0. -1.
         21   -1    0    0  502  503 -0.00000000000E+00 -0.00000000000E+00 -0.27744463099E+03  0.27744463099E+03  0.00000000000E+00 0.  1.
          6    2    1    2  501    0  0.75614039555E+02  0.33943074123E+01  0.10575759578E+03  0.21182666868E+03  0.16720306277E+03 0.  0.
         24    2    3    3    0    0 -0.41168852764E+01  0.30947234832E+01  0.75297665067E+00  0.79898013104E+02  0.79728285234E+02 0.  0.
         -6    2    1    2    0  503 -0.75614039555E+02 -0.33943074123E+01 -0.18518656108E+03  0.26363362798E+03  0.17169631067E+03 0.  0.
        -24    2    5    5    0    0 -0.91764612344E+02 -0.29846790561E+00 -0.56935673480E+02  0.13424736367E+03  0.79748671306E+02 0.  0.
          5    1    3    3  501    0  0.79730924832E+02  0.29958392906E+00  0.10500461913E+03  0.13192865558E+03  0.47000000000E+01 0. -1.
        -11    1    4    4    0    0  0.14846440469E+02 -0.34600740525E+02 -0.10044906715E+01  0.37664798433E+02  0.00000000000E+00 0.  1.
         12    1    4    4    0    0 -0.18963325745E+02  0.37695464008E+02  0.17574673222E+01  0.42233214671E+02  0.00000000000E+00 0. -1.
         -5    1    5    5    0  503  0.16150572789E+02 -0.30958395067E+01 -0.12825088760E+03  0.12938626432E+03  0.47000000000E+01 0.  1.
         11    1    6    6    0    0 -0.10153829105E+02 -0.61594985312E+00  0.19778236301E+02  0.22240914345E+02  0.00000000000E+00 0. -1.
        -12    1    6    6    0    0 -0.81610783239E+02  0.31748194751E+00 -0.76713909781E+02  0.11200644932E+03  0.00000000000E+00 0.  1.
</event>
<event>
12    1  0.9028446E-003  0.1783958E+03  0.7818608E-02  0.1169608E+00
         21   -1    0    0  501  502  0.00000000000E+00  0.00000000000E+00  0.11337004892E+03  0.11337004892E+03  0.00000000000E+00 0.  1.
         21   -1    0    0  502  503 -0.00000000000E+00 -0.00000000000E+00 -0.29193849814E+03  0.29193849814E+03  0.00000000000E+00 0.  1.
          6    2    1    2  501    0 -0.43097410949E+02  0.66120420882E+01 -0.46652539145E+02  0.18343725578E+03  0.17196412844E+03 0.  0.
         24    2    3    3    0    0  0.27966972382E+02  0.22124815489E+02 -0.83642571255E+01  0.10110333048E+03  0.94235150720E+02 0.  0.
         -6    2    1    2    0  503  0.43097410949E+02 -0.66120420882E+01 -0.13191591008E+03  0.22187129127E+03  0.17298542316E+03 0.  0.
        -24    2    5    5    0    0 -0.95005910604E+01 -0.62985376403E+02 -0.77189738317E+02  0.12720584608E+03  0.78521670285E+02 0.  0.
          5    1    3    3  501    0 -0.71064383332E+02 -0.15512773401E+02 -0.38288282020E+02  0.82333925310E+02  0.47000000000E+01 0. -1.
        -13    1    4    4    0    0 -0.38000795120E+01 -0.19425381853E+02 -0.36641577688E+02  0.41646023578E+02  0.00000000000E+00 0.  1.
         14    1    4    4    0    0  0.31767051894E+02  0.41550197342E+02  0.28277320562E+02  0.59457306897E+02  0.00000000000E+00 0. -1.
         -5    1    5    5    0  503  0.52598002010E+02  0.56373334315E+02 -0.54726171758E+02  0.94665445187E+02  0.47000000000E+01 0.  1.
         13    1    6    6    0    0  0.27678783885E+02 -0.52142031565E+02 -0.30188361634E+02  0.66304175670E+02  0.00000000000E+00 0. -1.
        -14    1    6    6    0    0 -0.37179374946E+02 -0.10843344838E+02 -0.47001376684E+02  0.60901670410E+02  0.00000000000E+00 0.  1.
</event>
<event>
12    1  0.9028446E-003  0.2720814E+03  0.7818608E-02  0.1102047E+00
         21   -1    0    0  503  502  0.00000000000E+00  0.00000000000E+00  0.70156660272E+02  0.70156660272E+02  0.00000000000E+00 0. -1.
         21   -1    0    0  501  503 -0.00000000000E+00 -0.00000000000E+00 -0.11425629530E+04  0.11425629530E+04  0.00000000000E+00 0.  1.
          6    2    1    2  501    0 -0.19314568888E+03 -0.21178513012E+01 -0.73554920494E+03  0.77970578704E+03  0.17204284069E+03 0.  0.
         24    2    3    3    0    0 -0.21243131346E+03  0.15401158934E+02 -0.69469144694E+03  0.73102008664E+03  0.80186669630E+02 0.  0.
         -6    2    1    2    0  502  0.19314568888E+03  0.21178513012E+01 -0.33685708778E+03  0.43301382622E+03  0.19162080701E+03 0.  0.
        -24    2    5    5    0    0  0.16898767778E+03 -0.61349783314E+02 -0.20163196015E+03  0.28162137169E+03  0.79589688319E+02 0.  0.
          5    1    3    3  501    0  0.19285624576E+02 -0.17519010235E+02 -0.40857757996E+02  0.48685700399E+02  0.47000000000E+01 0. -1.
        -11    1    4    4    0    0 -0.13592779702E+03  0.10397109181E+02 -0.55682790883E+03  0.57327287214E+03  0.00000000000E+00 0.  1.
         12    1    4    4    0    0 -0.76503516444E+02  0.50040497524E+01 -0.13786353811E+03  0.15774721450E+03  0.00000000000E+00 0. -1.
         -5    1    5    5    0  502  0.24158011103E+02  0.63467634615E+02 -0.13522512764E+03  0.15139245453E+03  0.47000000000E+01 0.  1.
         11    1    6    6    0    0  0.10192429690E+03 -0.81540845837E+00 -0.77259072740E+02  0.12789914586E+03  0.00000000000E+00 0. -1.
        -12    1    6    6    0    0  0.67063380877E+02 -0.60534374855E+02 -0.12437288741E+03  0.15372222584E+03  0.00000000000E+00 0.  1.
</event>
<event>
12    1  0.9028446E-003  0.2329198E+03  0.7818608E-02  0.1124680E+00
         21   -1    0    0  501  502  0.00000000000E+00  0.00000000000E+00  0.38660240380E+03  0.38660240380E+03  0.00000000000E+00 0.  1.
         21   -1    0    0  502  503 -0.00000000000E+00 -0.00000000000E+00 -0.14340559163E+03  0.14340559163E+03  0.00000000000E+00 0. -1.
          6    2    1    2  501    0  0.13460659774E+03 -0.80999378595E+02  0.16220534304E+03  0.28383480695E+03  0.17196449877E+03 0.  0.
         24    2    3    3    0    0  0.11383823187E+03 -0.10970149863E+03  0.17223548714E+03  0.24671566760E+03  0.78803526369E+02 0.  0.
         -6    2    1    2    0  503 -0.13460659774E+03  0.80999378595E+02  0.80991469126E+02  0.24617318848E+03  0.17135280904E+03 0.  0.
        -24    2    5    5    0    0 -0.11179822884E+03  0.41852808957E+02 -0.10146818737E+02  0.14428622601E+03  0.80405568813E+02 0.  0.
          5    1    3    3  501    0  0.20768365866E+02  0.28702120040E+02 -0.10030144102E+02  0.37119139352E+02  0.47000000000E+01 0. -1.
        -11    1    4    4    0    0  0.30385296022E+02 -0.46664823850E+02  0.14645546933E+02  0.57579198017E+02  0.00000000000E+00 0.  1.
         12    1    4    4    0    0  0.83452935853E+02 -0.63036674784E+02  0.15758994021E+03  0.18913646958E+03  0.00000000000E+00 0. -1.
         -5    1    5    5    0  503 -0.22808368898E+02  0.39146569637E+02  0.91138287863E+02  0.10188696247E+03  0.47000000000E+01 0.  1.
         11    1    6    6    0    0 -0.31651565759E+01 -0.18054870768E+02  0.57598495362E+01  0.19213860655E+02  0.00000000000E+00 0. -1.
        -12    1    6    6    0    0 -0.10863307227E+03  0.59907679726E+02 -0.15906668273E+02  0.12507236536E+03  0.00000000000E+00 0.  1.
</event>
<event>
12    1  0.9028446E-003  0.1751019E+03  0.7818608E-02  0.1173970E+00
         21   -1    0    0  503  502  0.00000000000E+00  0.00000000000E+00  0.31196105417E+02  0.31196105417E+02  0.00000000000E+00 0. -1.
         21   -1    0    0  501  503 -0.00000000000E+00 -0.00000000000E+00 -0.10608160182E+04  0.10608160182E+04  0.00000000000E+00 0. -1.
          6    2    1    2  501    0  0.35484658332E+02  0.13605085749E+02 -0.69548193410E+03  0.71718602765E+03  0.17092810845E+03 0.  0.
         24    2    3    3    0    0  0.53218107648E+02 -0.50493220645E+02 -0.44759260052E+03  0.46048721617E+03  0.79546262703E+02 0.  0.
         -6    2    1    2    0  502 -0.35484658332E+02 -0.13605085749E+02 -0.33413797868E+03  0.37482609596E+03  0.16553596010E+03 0.  0.
        -24    2    5    5    0    0  0.82539598221E+01  0.37496746213E+02 -0.26222801585E+03  0.27624822470E+03  0.77944951908E+02 0.  0.
          5    1    3    3  501    0 -0.17733449316E+02  0.64098306394E+02 -0.24788933358E+03  0.25669881147E+03  0.47000000000E+01 0. -1.
        -11    1    4    4    0    0 -0.10865030769E+02  0.50702401250E+01 -0.12957920278E+02  0.17654005961E+02  0.00000000000E+00 0.  1.
         12    1    4    4    0    0  0.64083138416E+02 -0.55563460770E+02 -0.43463468024E+03  0.44283321021E+03  0.00000000000E+00 0. -1.
         -5    1    5    5    0  502 -0.43738618154E+02 -0.51101831962E+02 -0.71909962830E+02  0.98577871260E+02  0.47000000000E+01 0.  1.
         11    1    6    6    0    0 -0.78029116785E+01 -0.21782179377E+02 -0.46349830104E+02  0.51804010653E+02  0.00000000000E+00 0. -1.
        -12    1    6    6    0    0  0.16056871501E+02  0.59278925590E+02 -0.21587818574E+03  0.22444421405E+03  0.00000000000E+00 0.  1.
</event>
<event>
12    1  0.9028446E-003  0.2156193E+03  0.7818608E-02  0.1140669E+00
         21   -1    0    0  503  502  0.00000000000E+00  0.00000000000E+00  0.29446642939E+03  0.29446642939E+03  0.00000000000E+00 0.  1.
         21   -1    0    0  501  503 -0.00000000000E+00 -0.00000000000E+00 -0.15420060327E+03  0.15420060327E+03  0.00000000000E+00 0. -1.
          6    2    1    2  501    0 -0.98627299044E+02 -0.17291622051E+00  0.12641627914E+03  0.24994548546E+03  0.19174017850E+03 0.  0.
         24    2    3    3    0    0 -0.50775492722E+02 -0.54981729997E+02  0.13824787762E+03  0.17608156897E+03  0.79316467208E+02 0.  0.
         -6    2    1    2    0  502  0.98627299044E+02  0.17291622051E+00  0.13849546987E+02  0.19872154720E+03  0.17196240680E+03 0.  0.
        -24    2    5    5    0    0  0.56907059142E+01  0.25715692994E+02 -0.35142492875E+02  0.90499766780E+02  0.79129842549E+02 0.  0.
          5    1    3    3  501    0 -0.47851806323E+02  0.54808813777E+02 -0.11831598481E+02  0.73863916485E+02  0.47000000000E+01 0. -1.
        -13    1    4    4    0    0  0.12529082174E+02  0.70097051749E+01  0.45943104542E+02  0.48134007954E+02  0.00000000000E+00 0.  1.
         14    1    4    4    0    0 -0.63304574895E+02 -0.61991435172E+02  0.92304773079E+02  0.12794756102E+03  0.00000000000E+00 0. -1.
         -5    1    5    5    0  502  0.92936593130E+02 -0.25542776774E+02  0.48992039862E+02  0.10822178042E+03  0.47000000000E+01 0.  1.
         11    1    6    6    0    0  0.28559484709E+02 -0.18037128258E+02 -0.17739582019E+02  0.38153308281E+02  0.00000000000E+00 0. -1.
        -12    1    6    6    0    0 -0.22868778794E+02  0.43752821252E+02 -0.17402910856E+02  0.52346458499E+02  0.00000000000E+00 0.  1.
</event>
<event>
12    1  0.9028446E-003  0.1916789E+03  0.7818608E-02  0.1156998E+00
         21   -1    0    0  501  502  0.00000000000E+00  0.00000000000E+00  0.29866039209E+03  0.29866039209E+03  0.00000000000E+00 0. -1.
         21   -1    0    0  502  503 -0.00000000000E+00 -0.00000000000E+00 -0.12665851898E+03  0.12665851898E+03  0.00000000000E+00 0. -1.
          6    2    1    2  501    0 -0.49204973540E+02  0.68484443300E+02  0.12268541625E+03  0.22757967583E+03  0.17213235922E+03 0.  0.
         24    2    3    3    0    0  0.39730905221E+02  0.22621843634E+02  0.68457192746E+02  0.11366848760E+03  0.78382684278E+02 0.  0.
         -6    2    1    2    0  503  0.49204973540E+02 -0.68484443300E+02  0.49316456847E+02  0.19773923524E+03  0.17192278454E+03 0.  0.
        -24    2    5    5    0    0  0.24226346592E+02 -0.72652134701E+02 -0.30737673558E+02  0.11364372258E+03  0.78133491920E+02 0.  0.
          5    1    3    3  501    0 -0.88935878761E+02  0.45862599666E+02  0.54228223509E+02  0.11391118823E+03  0.47000000000E+01 0. -1.
        -11    1    4    4    0    0  0.19161230266E+02 -0.27801781272E+02  0.39588149906E+02  0.52031849863E+02  0.00000000000E+00 0.  1.
         12    1    4    4    0    0  0.20569674955E+02  0.50423624907E+02  0.28869042840E+02  0.61636637732E+02  0.00000000000E+00 0. -1.
         -5    1    5    5    0  503  0.24978626947E+02  0.41676914006E+01  0.80054130405E+02  0.84095512667E+02  0.47000000000E+01 0.  1.
         13    1    6    6    0    0  0.31062627895E+02 -0.16124216137E+02  0.17397708208E+02  0.39083979438E+02  0.00000000000E+00 0. -1.
        -14    1    6    6    0    0 -0.68362813025E+01 -0.56527918563E+02 -0.48135381767E+02  0.74559743139E+02  0.00000000000E+00 0.  1.
</event>
<event>
12    1  0.9028446E-003  0.1762681E+03  0.7818608E-02  0.1171537E+00
         21   -1    0    0  503  502  0.00000000000E+00  0.00000000000E+00  0.25050914271E+04  0.25050914271E+04  0.00000000000E+00 0.  1.
         21   -1    0    0  501  503 -0.00000000000E+00 -0.00000000000E+00 -0.13121158318E+02  0.13121158318E+02  0.00000000000E+00 0.  1.
          6    2    1    2  501    0  0.21867379564E+02 -0.28589424822E+02  0.94627752368E+03  0.96250165655E+03  0.17225779965E+03 0.  0.
         24    2    3    3    0    0  0.62661515109E+02  0.25956761709E+02  0.50783833775E+03  0.51877825429E+03  0.81430220898E+02 0.  0.
         -6    2    1    2    0  502 -0.21867379564E+02  0.28589424822E+02  0.15456927451E+04  0.15557109288E+04  0.17255403338E+03 0.  0.
        -24    2    5    5    0    0 -0.18547423778E+01 -0.45083016387E+02  0.10571594456E+04  0.10612263396E+04  0.81113082372E+02 0.  0.
          5    1    3    3  501    0 -0.40794135545E+02 -0.54546186532E+02  0.43843918593E+03  0.44372340226E+03  0.47000000000E+01 0. -1.
        -11    1    4    4    0    0  0.21593709514E+02  0.59555110614E+01  0.41202062213E+03  0.41262907006E+03  0.00000000000E+00 0.  1.
         12    1    4    4    0    0  0.41067805595E+02  0.20001250648E+02  0.95817715625E+02  0.10614918422E+03  0.00000000000E+00 0. -1.
         -5    1    5    5    0  502 -0.20012637186E+02  0.73672441209E+02  0.48853329951E+03  0.49448458921E+03  0.47000000000E+01 0.  1.
         11    1    6    6    0    0  0.37938978019E+02 -0.35289340029E+02  0.57850449021E+03  0.58082023791E+03  0.00000000000E+00 0. -1.
        -12    1    6    6    0    0 -0.39793720396E+02 -0.97936763581E+01  0.47865495535E+03  0.48040610171E+03  0.00000000000E+00 0.  1.
</event>
<event>
12    1  0.9028446E-003  0.2881861E+03  0.7818608E-02  0.1091889E+00
         21   -1    0    0  503  502  0.00000000000E+00  0.00000000000E+00  0.16245988826E+03  0.16245988826E+03  0.00000000000E+00 0. -1.
         21   -1    0    0  501  503 -0.00000000000E+00 -0.00000000000E+00 -0.72348439435E+03  0.72348439435E+03  0.00000000000E+00 0. -1.
          6    2    1    2  501    0 -0.15034881314E+03  0.16757680817E+03 -0.52332985146E+03  0.59530345704E+03  0.17270008766E+03 0.  0.
         24    2    3    3    0    0 -0.61766110566E+02  0.15711447964E+03 -0.28367583542E+03  0.33954479556E+03  0.79490102948E+02 0.  0.
         -6    2    1    2    0  502  0.15034881314E+03 -0.16757680817E+03 -0.37694654635E+02  0.29064082557E+03  0.17990122360E+03 0.  0.
        -24    2    5    5    0    0  0.11148451635E+03 -0.91276059267E+02 -0.92889667058E+02  0.18865642851E+03  0.78756849799E+02 0.  0.
          5    1    3    3  501    0 -0.88582702575E+02  0.10462328534E+02 -0.23965401604E+03  0.25575866147E+03  0.47000000000E+01 0. -1.
        -11    1    4    4    0    0 -0.23922889438E+02 -0.88390400641E+00 -0.41795078832E+02  0.48165491173E+02  0.00000000000E+00 0.  1.
         12    1    4    4    0    0 -0.37843221128E+02  0.15799838364E+03 -0.24188075659E+03  0.29137930439E+03  0.00000000000E+00 0. -1.
         -5    1    5    5    0  502  0.38864296795E+02 -0.76300748904E+02  0.55195012423E+02  0.10198439707E+03  0.47000000000E+01 0.  1.
         13    1    6    6    0    0  0.12378055453E+03 -0.81050789282E+02 -0.80581230850E+02  0.16847608403E+03  0.00000000000E+00 0. -1.
        -14    1    6    6    0    0 -0.12296038188E+02 -0.10225269984E+02 -0.12308436208E+02  0.20180344478E+02  0.00000000000E+00 0.  1.
</event>
<event>
12    1  0.9028446E-003  0.1988822E+03  0.7818608E-02  0.1150758E+00
         21   -1    0    0  501  502  0.00000000000E+00  0.00000000000E+00  0.10385901229E+04  0.10385901229E+04  0.00000000000E+00 0.  1.
         21   -1    0    0  502  503 -0.00000000000E+00 -0.00000000000E+00 -0.38237143587E+02  0.38237143587E+02  0.00000000000E+00 0.  1.
          6    2    1    2  501    0 -0.12597573637E+02  0.98446535067E+02  0.54036328737E+03  0.57568393764E+03  0.17195666486E+03 0.  0.
         24    2    3    3    0    0 -0.60861386119E+02  0.10822195355E+03  0.40675355638E+03  0.43321076607E+03  0.82504622052E+02 0.  0.
         -6    2    1    2    0  503  0.12597573637E+02 -0.98446535067E+02  0.45998969198E+03  0.50114332888E+03  0.17234761451E+03 0.  0.
        -24    2    5    5    0    0  0.56823383079E+02 -0.26941407428E+02  0.21393425101E+03  0.24107742275E+03  0.91628181846E+02 0.  0.
          5    1    3    3  501    0  0.48263812482E+02 -0.97754184864E+01  0.13360973099E+03  0.14247317157E+03  0.47000000000E+01 0. -1.
        -11    1    4    4    0    0 -0.47471735237E+02  0.19394257199E+02  0.86124929065E+02  0.10023575343E+03  0.00000000000E+00 0.  1.
         12    1    4    4    0    0 -0.13389650882E+02  0.88827696355E+02  0.32062862731E+03  0.33297501264E+03  0.00000000000E+00 0. -1.
         -5    1    5    5    0  503 -0.44225809441E+02 -0.71505127639E+02  0.24605544097E+03  0.26006590613E+03  0.47000000000E+01 0.  1.
         11    1    6    6    0    0  0.99103017865E+01 -0.31479350371E+02  0.17999938780E+03  0.18299984478E+03  0.00000000000E+00 0. -1.
        -12    1    6    6    0    0  0.46913081292E+02  0.45379429433E+01  0.33934863212E+02  0.58077577977E+02  0.00000000000E+00 0.  1.
</event>
<event>
12    1  0.9028446E-003  0.2399085E+03  0.7818608E-02  0.1119930E+00
         21   -1    0    0  501  502  0.00000000000E+00  0.00000000000E+00  0.50776283645E+02  0.50776283645E+02  0.00000000000E+00 0.  1.
         21   -1    0    0  502  503 -0.00000000000E+00 -0.00000000000E+00 -0.11583406071E+04  0.11583406071E+04  0.00000000000E+00 0. -1.
          6    2    1    2  501    0 -0.79809184735E+02 -0.14703598068E+03 -0.64655899000E+03  0.68963367033E+03  0.17195053395E+03 0.  0.
         24    2    3    3    0    0 -0.16081582562E+02 -0.15105268208E+03 -0.52867248027E+03  0.55548203842E+03  0.77396211469E+02 0.  0.
         -6    2    1    2    0  503  0.79809184735E+02  0.14703598068E+03 -0.46100533349E+03  0.51948322045E+03  0.17131203471E+03 0.  0.
        -24    2    5    5    0    0  0.77658341357E+02  0.27176284684E+02 -0.28162129496E+03  0.30367845652E+03  0.78362508588E+02 0.  0.
          5    1    3    3  501    0 -0.63727602174E+02  0.40167013986E+01 -0.11788650972E+03  0.13415163191E+03  0.47000000000E+01 0. -1.
        -13    1    4    4    0    0  0.82837719444E+01 -0.13498381584E+03 -0.48039327339E+03  0.49906607632E+03  0.00000000000E+00 0.  1.
         14    1    4    4    0    0 -0.24365354506E+02 -0.16068866239E+02 -0.48279206883E+02  0.56415962100E+02  0.00000000000E+00 0. -1.
         -5    1    5    5    0  503  0.21508433779E+01  0.11985969600E+03 -0.17938403853E+03  0.21580476392E+03  0.47000000000E+01 0.  1.
         11    1    6    6    0    0  0.14499377207E+02  0.16242388026E+02 -0.19344401333E+03  0.19466543967E+03  0.00000000000E+00 0. -1.
        -12    1    6    6    0    0  0.63158964151E+02  0.10933896658E+02 -0.88177281622E+02  0.10901301685E+03  0.00000000000E+00 0.  1.
</event>
<event>
12    1  0.9028446E-003  0.1795656E+03  0.7818608E-02  0.1168815E+00
         21   -1    0    0  503  502  0.00000000000E+00  0.00000000000E+00  0.15555482730E+03  0.15555482730E+03  0.00000000000E+00 0. -1.
         21   -1    0    0  501  503 -0.00000000000E+00 -0.00000000000E+00 -0.24516109246E+03  0.24516109246E+03  0.00000000000E+00 0. -1.
          6    2    1    2  501    0 -0.48316578513E+02  0.14851947640E+02 -0.12614214874E+03  0.21747106979E+03  0.16978442920E+03 0.  0.
         24    2    3    3    0    0 -0.73859278327E+02  0.19984126528E+02 -0.14674095838E+03  0.18392752000E+03  0.80261232468E+02 0.  0.
         -6    2    1    2    0  502  0.48316578513E+02 -0.14851947640E+02  0.36535883583E+02  0.18324484997E+03  0.17230418493E+03 0.  0.
        -24    2    5    5    0    0  0.20939956835E+02  0.58324335813E+02  0.14511866294E+02  0.10193436349E+03  0.79622925448E+02 0.  0.
          5    1    3    3  501    0  0.25542699814E+02 -0.51321788879E+01  0.20598809642E+02  0.33543549791E+02  0.47000000000E+01 0. -1.
        -11    1    4    4    0    0 -0.10838977844E+02 -0.24548833120E+02 -0.70565319457E+02  0.75495648605E+02  0.00000000000E+00 0.  1.
         12    1    4    4    0    0 -0.63020300483E+02  0.44532959647E+02 -0.76175638927E+02  0.10843187139E+03  0.00000000000E+00 0. -1.
         -5    1    5    5    0  502  0.27376621679E+02 -0.73176283453E+02  0.22024017289E+02  0.81310486483E+02  0.47000000000E+01 0.  1.
         13    1    6    6    0    0  0.19843134715E+02 -0.39737832240E+01 -0.21858563161E+02  0.29788214648E+02  0.00000000000E+00 0. -1.
        -14    1    6    6    0    0  0.10968221193E+01  0.62298119037E+02  0.36370429455E+02  0.72146148844E+02  0.00000000000E+00 0.  1.
</event>
<event>
12    1  0.9028446E-003  0.1759360E+03  0.7818608E-02  0.1172270E+00
         21   -1    0    0  501  502  0.00000000000E+00  0.00000000000E+00  0.11884360055E+03  0.11884360055E+03  0.00000000000E+00 0.  1.
         21   -1    0    0  502  503 -0.00000000000E+00 -0.00000000000E+00 -0.28517354111E+03  0.28517354111E+03  0.00000000000E+00 0.  1.
          6    2    1    2  501    0 -0.26900198088E+02  0.29188751030E+02 -0.20012400539E+02  0.17518902022E+03  0.16945528255E+03 0.  0.
         24    2    3    3    0    0  0.40055004403E+02  0.49997979968E+02 -0.24109651503E+02  0.10479796528E+03  0.79354501151E+02 0.  0.
         -6    2    1    2    0  503  0.26900198088E+02 -0.29188751030E+02 -0.14631754003E+03  0.22882812145E+03  0.17139977480E+03 0.  0.
        -24    2    5    5    0    0  0.23814766145E+02  0.13828822217E+02 -0.92626593618E+01  0.85070819678E+02  0.79955413149E+02 0.  0.
          5    1    3    3  501    0 -0.66955202491E+02 -0.20809228938E+02  0.40972509643E+01  0.70391054936E+02  0.47000000000E+01 0. -1.
        -13    1    4    4    0    0  0.19424571521E+02  0.55176815436E+02  0.14901949054E+02  0.60364418543E+02  0.00000000000E+00 0.  1.
         14    1    4    4    0    0  0.20630432882E+02 -0.51788354683E+01 -0.39011600557E+02  0.44433546738E+02  0.00000000000E+00 0. -1.
         -5    1    5    5    0  503  0.30854319430E+01 -0.43017573247E+02 -0.13705488066E+03  0.14375730177E+03  0.47000000000E+01 0.  1.
         13    1    6    6    0    0 -0.16989439522E+02 -0.22210650960E+02  0.58548419425E+01  0.28569796036E+02  0.00000000000E+00 0. -1.
        -14    1    6    6    0    0  0.40804205667E+02  0.36039473177E+02 -0.15117501304E+02  0.56501023643E+02  0.00000000000E+00 0.  1.
</event>
<event>
12    1  0.9028446E-003  0.1780528E+03  0.7818608E-02  0.1169925E+00
         21   -1    0    0  501  502  0.00000000000E+00  0.00000000000E+00  0.34404086643E+03  0.34404086643E+03  0.00000000000E+00 0. -1.
         21   -1    0    0  502  503 -0.00000000000E+00 -0.00000000000E+00 -0.91980305915E+02  0.91980305915E+02  0.00000000000E+00 0. -1.
          6    2    1    2  501    0  0.41978007685E+02  0.82371013272E+01  0.11383216061E+03  0.21133042406E+03  0.17283745074E+03 0.  0.
         24    2    3    3    0    0  0.37425339279E+02  0.59410851536E+02  0.12290374407E+03  0.15894852713E+03  0.72311815553E+02 0.  0.
         -6    2    1    2    0  503 -0.41978007685E+02 -0.82371013272E+01  0.13822839990E+03  0.22469074828E+03  0.17189775698E+03 0.  0.
        -24    2    5    5    0    0  0.31107229773E+02 -0.36691969980E+02  0.86621957711E+02  0.13068837405E+03  0.85218115153E+02 0.  0.
          5    1    3    3  501    0  0.45526684063E+01 -0.51173750209E+02 -0.90715834595E+01  0.52381896935E+02  0.47000000000E+01 0. -1.
        -13    1    4    4    0    0  0.44149380588E+02  0.34771663892E+02  0.12090814045E+03  0.13333047230E+03  0.00000000000E+00 0.  1.
         14    1    4    4    0    0 -0.67240413092E+01  0.24639187644E+02  0.19956036190E+01  0.25618054826E+02  0.00000000000E+00 0. -1.
         -5    1    5    5    0  503 -0.73085237458E+02  0.28454868653E+02  0.51606442186E+02  0.94002374222E+02  0.47000000000E+01 0.  1.
         11    1    6    6    0    0 -0.12728111387E+02  0.33695554715E+01  0.66797361942E+02  0.68082643059E+02  0.00000000000E+00 0. -1.
        -12    1    6    6    0    0  0.43835341160E+02 -0.40061525451E+02  0.19824595770E+02  0.62605730996E+02  0.00000000000E+00 0.  1.
</event>
<event>
12    1  0.9028446E-003  0.2003030E+03  0.7818608E-02  0.1149527E+00
         21   -1    0    0  501  502  0.00000000000E+00  0.00000000000E+00  0.12380525340E+03  0.12380525340E+03  0.00000000000E+00 0. -1.
         21   -1    0    0  502  503 -0.00000000000E+00 -0.00000000000E+00 -0.35895816400E+03  0.35895816400E+03  0.00000000000E+00 0. -1.
          6    2    1    2  501    0 -0.21486195234E+01 -0.10046158653E+03 -0.42014300278E+02  0.20466192864E+03  0.17327480103E+03 0.  0.
         24    2    3    3    0    0 -0.90328041515E+01  0.70154321478E+01 -0.53657668373E+02  0.96235181190E+02  0.79064890340E+02 0.  0.
         -6    2    1    2    0  503  0.21486195234E+01  0.10046158653E+03 -0.19313861032E+03  0.27810148875E+03  0.17303400913E+03 0.  0.
        -24    2    5    5    0    0  0.98777282346E+01  0.10870648692E+03 -0.21450324997E+03  0.25347923599E+03  0.79532440042E+02 0.  0.
          5    1    3    3  501    0  0.68841846281E+01 -0.10747701868E+03  0.11643368095E+02  0.10842674745E+03  0.47000000000E+01 0. -1.
        -11    1    4    4    0    0  0.27204957874E+01 -0.28886463120E+02 -0.50608335814E+02  0.58335516649E+02  0.00000000000E+00 0.  1.
         12    1    4    4    0    0 -0.11753299939E+02  0.35901895268E+02 -0.30493325595E+01  0.37899664541E+02  0.00000000000E+00 0. -1.
         -5    1    5    5    0  503 -0.77291087112E+01 -0.82449003931E+01  0.21364639643E+02  0.24622252761E+02  0.47000000000E+01 0.  1.
         11    1    6    6    0    0  0.37977936545E+01  0.87480814938E+02 -0.84747357224E+02  0.12185824049E+03  0.00000000000E+00 0. -1.
        -12    1    6    6    0    0  0.60799345801E+01  0.21225671984E+02 -0.12975589274E+03  0.13162099550E+03  0.00000000000E+00 0.  1.
</event>
<event>
12    1  0.9028446E-003  0.1930090E+03  0.7818608E-02  0.1155879E+00
         21   -1    0    0  501  502  0.00000000000E+00  0.00000000000E+00  0.64237427910E+03  0.64237427910E+03  0.00000000000E+00 0.  1.
         21   -1    0    0  502  503 -0.00000000000E+00 -0.00000000000E+00 -0.67514613778E+02  0.67514613778E+02  0.00000000000E+00 0. -1.
          6    2    1    2  501    0 -0.86199615757E+02  0.11339346253E+02  0.42141793760E+03  0.46331872706E+03  0.17179118193E+03 0.  0.
         24    2    3    3    0    0 -0.18245598615E+02  0.63384591066E+02  0.18400362837E+03  0.21090220585E+03  0.79195308744E+02 0.  0.
         -6    2    1    2    0  503  0.86199615757E+02 -0.11339346253E+02  0.15344172772E+03  0.24657016581E+03  0.17231810216E+03 0.  0.
        -24    2    5    5    0    0  0.10122045255E+03 -0.55812394044E+01  0.44533960058E+02  0.13638045128E+03  0.79621753587E+02 0.  0.
          5    1    3    3  501    0 -0.67954017142E+02 -0.52045244814E+02  0.23741430923E+03  0.25241652121E+03  0.47000000000E+01 0. -1.
        -11    1    4    4    0    0 -0.43022152542E+02  0.55564825932E+02  0.16296484518E+03  0.17747083213E+03  0.00000000000E+00 0.  1.
         12    1    4    4    0    0  0.24776553927E+02  0.78197651340E+01  0.21038783185E+02  0.33431373725E+02  0.00000000000E+00 0. -1.
         -5    1    5    5    0  503 -0.15020836790E+02 -0.57581068482E+01  0.10890776767E+03  0.11018971454E+03  0.47000000000E+01 0.  1.
         11    1    6    6    0    0  0.54747735593E+01  0.62038160500E+01  0.38875650091E+02  0.39746404228E+02  0.00000000000E+00 0. -1.
        -12    1    6    6    0    0  0.95745678988E+02 -0.11785055454E+02  0.56583099677E+01  0.96634047047E+02  0.00000000000E+00 0.  1.
</event>
<event>
12    1  0.9028446E-003  0.2673321E+03  0.7818608E-02  0.1102895E+00
         21   -1    0    0  501  502  0.00000000000E+00  0.00000000000E+00  0.11937881057E+04  0.11937881057E+04  0.00000000000E+00 0.  1.
         21   -1    0    0  502  503 -0.00000000000E+00 -0.00000000000E+00 -0.66765740147E+02  0.66765740147E+02  0.00000000000E+00 0. -1.
          6    2    1    2  501    0 -0.94951967094E+02  0.18068838549E+03  0.76739850529E+03  0.81245145815E+03  0.17179271588E+03 0.  0.
         24    2    3    3    0    0 -0.81033484117E+02  0.19171974199E+03  0.76114867258E+03  0.79304616497E+03  0.79069798187E+02 0.  0.
         -6    2    1    2    0  503  0.94951967094E+02 -0.18068838549E+03  0.35962386022E+03  0.44810238765E+03  0.17263331159E+03 0.  0.
        -24    2    5    5    0    0  0.85011156918E+02 -0.94928830559E+02  0.32619691078E+03  0.35540410332E+03  0.60574519258E+02 0.  0.
          5    1    3    3  501    0 -0.13918482977E+02 -0.11031356503E+02  0.62498327105E+01  0.19405293185E+02  0.47000000000E+01 0. -1.
        -13    1    4    4    0    0 -0.81995952662E+02  0.17363705789E+03  0.57926185366E+03  0.61026015701E+03  0.00000000000E+00 0.  1.
         14    1    4    4    0    0  0.96246854516E+00  0.18082684105E+02  0.18188681892E+03  0.18278600796E+03  0.00000000000E+00 0. -1.
         -5    1    5    5    0  503  0.99408101760E+01 -0.85759554933E+02  0.33426949445E+02  0.92698284334E+02  0.47000000000E+01 0.  1.
         11    1    6    6    0    0  0.59699156033E+02 -0.21885357819E+02  0.13772320335E+03  0.15169258010E+03  0.00000000000E+00 0. -1.
        -12    1    6    6    0    0  0.25312000885E+02 -0.73043472740E+02  0.18847370743E+03  0.20371152322E+03  0.00000000000E+00 0.  1.
</event>
<event>
12    1  0.9028446E-003  0.2047284E+03  0.7818608E-02  0.1145879E+00
         21   -1    0    0  503  502  0.00000000000E+00  0.00000000000E+00  0.14475360134E+03  0.14475360134E+03  0.00000000000E+00 0. -1.
         21   -1    0    0  501  503 -0.00000000000E+00 -0.00000000000E+00 -0.37562987505E+03  0.37562987505E+03  0.00000000000E+00 0.  1.
          6    2    1    2  501    0 -0.18122147513E+02  0.11266386111E+03 -0.24041288415E+03  0.31577216471E+03  0.16997690230E+03 0.  0.
         24    2    3    3    0    0 -0.71010214952E+01 -0.98707067836E+01 -0.10218264414E+03  0.13066172525E+03  0.80519179843E+02 0.  0.
         -6    2    1    2    0  502  0.18122147513E+02 -0.11266386111E+03  0.95366104291E+01  0.20461131168E+03  0.16956793358E+03 0.  0.
        -24    2    5    5    0    0 -0.54424501026E+02 -0.50532814608E+02  0.13701871171E+02  0.10888920060E+03  0.78444407504E+02 0.  0.
          5    1    3    3  501    0 -0.11021126017E+02  0.12253456789E+03 -0.13823024001E+03  0.18511043947E+03  0.47000000000E+01 0. -1.
        -13    1    4    4    0    0 -0.27044404081E+02 -0.11769249660E+02 -0.31946338056E+01  0.29666828526E+02  0.00000000000E+00 0.  1.
         14    1    4    4    0    0  0.19943382585E+02  0.18985428760E+01 -0.98988010334E+02  0.10099489672E+03  0.00000000000E+00 0. -1.
         -5    1    5    5    0  502  0.72546648539E+02 -0.62131046499E+02 -0.41652607415E+01  0.95722111084E+02  0.47000000000E+01 0.  1.
         13    1    6    6    0    0  0.89607814833E+01 -0.87133762288E+01  0.28862684811E+02  0.31452712198E+02  0.00000000000E+00 0. -1.
        -14    1    6    6    0    0 -0.63385282510E+02 -0.41819438379E+02 -0.15160813640E+02  0.77436488398E+02  0.00000000000E+00 0.  1.
</event>
<event>
12    1  0.9028446E-003  0.2007295E+03  0.7818608E-02  0.1149997E+00
         21   -1    0    0  503  502  0.00000000000E+00  0.00000000000E+00  0.18589231941E+03  0.18589231941E+03  0.00000000000E+00 0.  1.
         21   -1    0    0  501  503 -0.00000000000E+00 -0.00000000000E+00 -0.21262832054E+03  0.21262832054E+03  0.00000000000E+00 0. -1.
          6    2    1    2  501    0  0.20835786275E+02 -0.10099163384E+03 -0.20870839345E+02  0.20181162323E+03  0.17221759271E+03 0.  0.
         24    2    3    3    0    0  0.52380351620E+02 -0.45610325504E+01  0.86448045694E+01  0.96042139422E+02  0.79905291721E+02 0.  0.
         -6    2    1    2    0  502 -0.20835786275E+02  0.10099163384E+03 -0.58651617812E+01  0.19670901672E+03  0.16741146031E+03 0.  0.
        -24    2    5    5    0    0 -0.14687006807E+02  0.13168113533E+03  0.20927402809E+02  0.15524114352E+03  0.78142350128E+02 0.  0.
          5    1    3    3  501    0 -0.31544565345E+02 -0.96430601294E+02 -0.29515643914E+02  0.10576948381E+03  0.47000000000E+01 0. -1.
        -13    1    4    4    0    0  0.35226140077E+02 -0.15243140299E+02  0.42091689672E+02  0.56964415299E+02  0.00000000000E+00 0.  1.
         14    1    4    4    0    0  0.17154211544E+02  0.10682107748E+02 -0.33446885103E+02  0.39077724124E+02  0.00000000000E+00 0. -1.
         -5    1    5    5    0  502 -0.61487794677E+01 -0.30689501486E+02 -0.26792564590E+02  0.41467873200E+02  0.47000000000E+01 0.  1.
         11    1    6    6    0    0 -0.15419410843E+02 -0.45077638816E+01  0.92814185253E+01  0.18553244886E+02  0.00000000000E+00 0. -1.
        -12    1    6    6    0    0  0.73240403529E+00  0.13618889921E+03  0.11645984284E+02  0.13668789864E+03  0.00000000000E+00 0.  1.
</event>
<event>
12    1  0.9028446E-003  0.1943456E+03  0.7818608E-02  0.1155571E+00
         21   -1    0    0  503  502  0.00000000000E+00  0.00000000000E+00  0.21624962531E+02  0.21624962531E+02  0.00000000000E+00 0.  1.
         21   -1    0    0  501  503 -0.00000000000E+00 -0.00000000000E+00 -0.20419259289E+04  0.20419259289E+04  0.00000000000E+00 0.  1.
          6    2    1    2  501    0 -0.80548434959E+02 -0.41258297224E+01 -0.58292008210E+03  0.61309095475E+03  0.17198727813E+03 0.  0.
         24    2    3    3    0    0 -0.70521506676E+02  0.62342745698E+02 -0.39794687824E+03  0.41622605957E+03  0.77604857578E+02 0.  0.
         -6    2    1    2    0  502  0.80548434959E+02  0.41258297224E+01 -0.14373808843E+04  0.14504599367E+04  0.17681953682E+03 0.  0.
        -24    2    5    5    0    0  0.75059103504E+02 -0.37836962155E+01 -0.39918108698E+03  0.41220486087E+03  0.70136450884E+02 0.  0.
          5    1    3    3  501    0 -0.10026928283E+02 -0.66468575420E+02 -0.18497320386E+03  0.19686489518E+03  0.47000000000E+01 0. -1.
        -11    1    4    4    0    0 -0.38966165076E+02  0.82928458343E+01 -0.27888711742E+03  0.28171822372E+03  0.00000000000E+00 0.  1.
         12    1    4    4    0    0 -0.31555341601E+02  0.54049899863E+02 -0.11905976082E+03  0.13450783585E+03  0.00000000000E+00 0. -1.
         -5    1    5    5    0  502  0.54893314550E+01  0.79095259379E+01 -0.10381997973E+04  0.10382550758E+04  0.47000000000E+01 0.  1.
         11    1    6    6    0    0 -0.13821221031E+02 -0.10122052468E+01 -0.56323372559E+02  0.58003215486E+02  0.00000000000E+00 0. -1.
        -12    1    6    6    0    0  0.88880324535E+02 -0.27714909687E+01 -0.34285771442E+03  0.35420164538E+03  0.00000000000E+00 0.  1.
</event>
<event>
12    1  0.9028446E-003  0.2080521E+03  0.7818608E-02  0.1143540E+00
         21   -1    0    0  503  502  0.00000000000E+00  0.00000000000E+00  0.30826913779E+03  0.30826913779E+03  0.00000000000E+00 0. -1.
         21   -1    0    0  501  503 -0.00000000000E+00 -0.00000000000E+00 -0.15141652762E+03  0.15141652762E+03  0.00000000000E+00 0.  1.
          6    2    1    2  501    0 -0.98141147284E+01  0.11450938926E+03  0.12988323807E+02  0.20845711136E+03  0.17342708452E+03 0.  0.
         24    2    3    3    0    0 -0.72719172638E+02  0.45719636511E+02  0.23152084838E+02  0.11457171083E+03  0.72196223301E+02 0.  0.
         -6    2    1    2    0  502  0.98141147284E+01 -0.11450938926E+03  0.14386428636E+03  0.25122855405E+03  0.17090973173E+03 0.  0.
        -24    2    5    5    0    0  0.66730599773E+01 -0.14263294754E+02  0.68805357705E+01  0.81388088860E+02  0.79553176738E+02 0.  0.
          5    1    3    3  501    0  0.62905057909E+02  0.68789752748E+02 -0.10163761031E+02  0.93885400527E+02  0.47000000000E+01 0. -1.
        -11    1    4    4    0    0 -0.49458235585E+02  0.50083755960E+02  0.44019292077E+02  0.83019261338E+02  0.00000000000E+00 0.  1.
         12    1    4    4    0    0 -0.23260937053E+02 -0.43641194492E+01 -0.20867207239E+02  0.31552449494E+02  0.00000000000E+00 0. -1.
         -5    1    5    5    0  502  0.31410547512E+01 -0.10024609450E+03  0.13698375059E+03  0.16984046519E+03  0.47000000000E+01 0.  1.
         13    1    6    6    0    0  0.10701444267E+02  0.81113169920E+01  0.39447777937E+02  0.41670631828E+02  0.00000000000E+00 0. -1.
        -14    1    6    6    0    0 -0.40283842895E+01 -0.22374611746E+02 -0.32567242167E+02  0.39717457032E+02  0.00000000000E+00 0.  1.
</event>
<event>
12    1  0.9028446E-003  0.3358304E+03  0.7818608E-02  0.1068790E+00
         21   -1    0    0  501  502  0.00000000000E+00  0.00000000000E+00  0.25407975130E+03  0.25407975130E+03  0.00000000000E+00 0. -1.
         21   -1    0    0  502  503 -0.00000000000E+00 -0.00000000000E+00 -0.44426611184E+03  0.44426611184E+03  0.00000000000E+00 0.  1.
          6    2    1    2  501    0 -0.15561664804E+03  0.24053272918E+03 -0.66800266825E+02  0.34056633659E+03  0.17161182657E+03 0.  0.
         24    2    3    3    0    0 -0.10056779045E+03  0.61731180120E+02 -0.57441113989E+02  0.15318956532E+03  0.79012291917E+02 0.  0.
         -6    2    1    2    0  503  0.15561664804E+03 -0.24053272918E+03 -0.12338609372E+03  0.35777952655E+03  0.17524133799E+03 0.  0.
        -24    2    5    5    0    0  0.11975630912E+03 -0.12279610865E+03 -0.86642410543E+01  0.18946116986E+03  0.80000049608E+02 0.  0.
          5    1    3    3  501    0 -0.55048857595E+02  0.17880154906E+03 -0.93591528352E+01  0.18737677127E+03  0.47000000000E+01 0. -1.
        -13    1    4    4    0    0 -0.63214415380E+02  0.20707862024E+02 -0.69723206250E+02  0.96364948769E+02  0.00000000000E+00 0.  1.
         14    1    4    4    0    0 -0.37353375065E+02  0.41023318096E+02  0.12282092261E+02  0.56824616556E+02  0.00000000000E+00 0. -1.
         -5    1    5    5    0  503  0.35860338924E+02 -0.11773662053E+03 -0.11472185266E+03  0.16831835669E+03  0.47000000000E+01 0.  1.
         13    1    6    6    0    0  0.37055919451E+01  0.10088698069E+02  0.62039330260E+01  0.12409755251E+02  0.00000000000E+00 0. -1.
        -14    1    6    6    0    0  0.11605071717E+03 -0.13288480672E+03 -0.14868174080E+02  0.17705141461E+03  0.00000000000E+00 0.  1.
</event>
<event>
12    1  0.9028446E-003  0.2449166E+03  0.7818608E-02  0.1116908E+00
         21   -1    0    0  503  502  0.00000000000E+00  0.00000000000E+00  0.24704328324E+03  0.24704328324E+03  0.00000000000E+00 0. -1.
         21   -1    0    0  501  503 -0.00000000000E+00 -0.00000000000E+00 -0.26107862494E+03  0.26107862494E+03  0.00000000000E+00 0.  1.
          6    2    1    2  501    0 -0.17250256252E+03  0.22478295316E+02 -0.78026989978E+02  0.25704541435E+03  0.17239990150E+03 0.  0.
         24    2    3    3    0    0 -0.12283932222E+03  0.69882950375E+02 -0.14199325388E+02  0.16318541474E+03  0.80341352411E+02 0.  0.
         -6    2    1    2    0  502  0.17250256252E+03 -0.22478295316E+02  0.63991648277E+02  0.25107649383E+03  0.16935780722E+03 0.  0.
        -24    2    5    5    0    0  0.17904672199E+03 -0.31501032543E+01  0.91417922145E+02  0.21657003748E+03  0.80484115436E+02 0.  0.
          5    1    3    3  501    0 -0.49663240300E+02 -0.47404655059E+02 -0.63827664590E+02  0.93859999603E+02  0.47000000000E+01 0. -1.
        -11    1    4    4    0    0 -0.31328942319E+02  0.24685502883E+02 -0.41473374839E+02  0.57540572642E+02  0.00000000000E+00 0.  1.
         12    1    4    4    0    0 -0.91510379900E+02  0.45197447492E+02  0.27274049451E+02  0.10564484210E+03  0.00000000000E+00 0. -1.
         -5    1    5    5    0  502 -0.65441594712E+01 -0.19328192061E+02 -0.27426273868E+02  0.34506456350E+02  0.47000000000E+01 0.  1.
         11    1    6    6    0    0  0.30119816268E+00 -0.17024957573E+02  0.87812326072E+01  0.19158547618E+02  0.00000000000E+00 0. -1.
        -12    1    6    6    0    0  0.17874552383E+03  0.13874854319E+02  0.82636689538E+02  0.19741148986E+03  0.00000000000E+00 0.  1.
</event>
<event>
12    1  0.9028446E-003  0.1943266E+03  0.7818608E-02  0.1158155E+00
         21   -1    0    0  501  502  0.00000000000E+00  0.00000000000E+00  0.97578116736E+02  0.97578116736E+02  0.00000000000E+00 0. -1.
         21   -1    0    0  502  503 -0.00000000000E+00 -0.00000000000E+00 -0.42158129866E+03  0.42158129866E+03  0.00000000000E+00 0. -1.
          6    2    1    2  501    0 -0.15462823386E+02  0.56108351989E+02 -0.54652437089E+02  0.18702590833E+03  0.16912881315E+03 0.  0.
         24    2    3    3    0    0 -0.26116340426E+02  0.99694753017E+02 -0.56560312609E+02  0.14187060112E+03  0.79417198922E+02 0.  0.
         -6    2    1    2    0  503  0.15462823386E+02 -0.56108351989E+02 -0.26935074484E+03  0.33213350707E+03  0.18540657136E+03 0.  0.
        -24    2    5    5    0    0 -0.12911582299E+02 -0.99166840393E+02 -0.12696626855E+03  0.18062585245E+03  0.80650443466E+02 0.  0.
          5    1    3    3  501    0  0.10653517040E+02 -0.43586401028E+02  0.19078755199E+01  0.45155307206E+02  0.47000000000E+01 0. -1.
        -11    1    4    4    0    0 -0.40217708165E+02  0.70729052389E+02 -0.69643594314E+02  0.10709945439E+03  0.00000000000E+00 0.  1.
         12    1    4    4    0    0  0.14101367739E+02  0.28965700628E+02  0.13083281705E+02  0.34771146733E+02  0.00000000000E+00 0. -1.
         -5    1    5    5    0  503  0.28374405684E+02  0.43058488404E+02 -0.14238447629E+03  0.15150765462E+03  0.47000000000E+01 0.  1.
         11    1    6    6    0    0  0.27186133678E+02 -0.32629491975E+02 -0.77950050078E+02  0.88769250972E+02  0.00000000000E+00 0. -1.
        -12    1    6    6    0    0 -0.40097715977E+02 -0.66537348418E+02 -0.49016218471E+02  0.91856601473E+02  0.00000000000E+00 0.  1.
</event>
<event>
12    1  0.9028446E-003  0.2133164E+03  0.7818608E-02  0.1139466E+00
         21   -1    0    0  501  502  0.00000000000E+00  0.00000000000E+00  0.81442072069E+03  0.81442072069E+03  0.00000000000E+00 0.  1.
         21   -1    0    0  502  503 -0.00000000000E+00 -0.00000000000E+00 -0.81229714850E+02  0.81229714850E+02  0.00000000000E+00 0.  1.
          6    2    1    2  501    0 -0.12370838132E+03  0.43664816809E+01  0.62157703411E+03  0.65716199532E+03  0.17372693798E+03 0.  0.
         24    2    3    3    0    0 -0.41808412803E+02  0.57974138650E+02  0.24567577252E+03  0.26869676625E+03  0.82051342800E+02 0.  0.
         -6    2    1    2    0  503  0.12370838132E+03 -0.43664816809E+01  0.11161397173E+03  0.23848844022E+03  0.17057616382E+03 0.  0.
        -24    2    5    5    0    0  0.35930412048E+02  0.16396334085E+02 -0.78921437100E+01  0.88689014207E+02  0.79016587039E+02 0.  0.
          5    1    3    3  501    0 -0.81899968516E+02 -0.53607656969E+02  0.37590126159E+03  0.38846522907E+03  0.47000000000E+01 0. -1.
        -11    1    4    4    0    0 -0.66881950847E+02  0.39588413682E+02  0.17671489091E+03  0.19305074596E+03  0.00000000000E+00 0.  1.
         12    1    4    4    0    0  0.25073538044E+02  0.18385724968E+02  0.68960881611E+02  0.75646020287E+02  0.00000000000E+00 0. -1.
         -5    1    5    5    0  503  0.87777969272E+02 -0.20762815765E+02  0.11950611544E+03  0.14979942602E+03  0.47000000000E+01 0.  1.
         11    1    6    6    0    0  0.75037362232E+01 -0.31051460543E+02  0.37527503486E+01  0.32164924908E+02  0.00000000000E+00 0. -1.
        -12    1    6    6    0    0  0.28426675824E+02  0.47447794627E+02 -0.11644894059E+02  0.56524089299E+02  0.00000000000E+00 0.  1.
</event>
<event>
12    1  0.9028446E-003  0.2137066E+03  0.7818608E-02  0.1138679E+00
         21   -1    0    0  503  502  0.00000000000E+00  0.00000000000E+00  0.65472607461E+02  0.65472607461E+02  0.00000000000E+00 0.  1.
         21   -1    0    0  501  503 -0.00000000000E+00 -0.00000000000E+00 -0.73562072365E+03  0.73562072365E+03  0.00000000000E+00 0.  1.
          6    2    1    2  501    0  0.11500169477E+03 -0.53360942726E+02 -0.42655320179E+03  0.47709345500E+03  0.17203996871E+03 0.  0.
         24    2    3    3    0    0  0.11374858797E+03 -0.97217622442E+02 -0.34606267068E+03  0.38530132989E+03  0.79421252819E+02 0.  0.
         -6    2    1    2    0  502 -0.11500169477E+03  0.53360942726E+02 -0.24359491440E+03  0.32399987611E+03  0.17194376230E+03 0.  0.
        -24    2    5    5    0    0 -0.73181841327E+02  0.31781419378E+02 -0.25176862506E+03  0.27600533980E+03  0.80161502706E+02 0.  0.
          5    1    3    3  501    0  0.12531067963E+01  0.43856679716E+02 -0.80490531109E+02  0.91792125101E+02  0.47000000000E+01 0. -1.
        -11    1    4    4    0    0  0.48104322663E+02 -0.69657684943E+02 -0.26095151310E+03  0.27433904411E+03  0.00000000000E+00 0.  1.
         12    1    4    4    0    0  0.65644265306E+02 -0.27559937499E+02 -0.85111157580E+02  0.11096228579E+03  0.00000000000E+00 0. -1.
         -5    1    5    5    0  502 -0.41819853438E+02  0.21579523348E+02  0.81737106681E+01  0.47994536310E+02  0.47000000000E+01 0.  1.
         11    1    6    6    0    0 -0.56587946757E+01 -0.22393259549E+02 -0.85310075473E+02  0.88381496975E+02  0.00000000000E+00 0. -1.
        -12    1    6    6    0    0 -0.67523046652E+02  0.54174678927E+02 -0.16645854959E+03  0.18762384283E+03  0.00000000000E+00 0.  1.
</event>
<event>
12    1  0.9028446E-003  0.2427222E+03  0.7818608E-02  0.1119751E+00
         21   -1    0    0  501  502  0.00000000000E+00  0.00000000000E+00  0.35233281048E+03  0.35233281048E+03  0.00000000000E+00 0. -1.
         21   -1    0    0  502  503 -0.00000000000E+00 -0.00000000000E+00 -0.35194999869E+03  0.35194999869E+03  0.00000000000E+00 0. -1.
          6    2    1    2  501    0 -0.84537482008E+02  0.15040773162E+03  0.26016761507E+03  0.35581072536E+03  0.17071910484E+03 0.  0.
         24    2    3    3    0    0 -0.70076926100E+02  0.33352692323E+02  0.18853127231E+03  0.21773521882E+03  0.76429099303E+02 0.  0.
         -6    2    1    2    0  503  0.84537482008E+02 -0.15040773162E+03 -0.25978480328E+03  0.34847208381E+03  0.15548497543E+03 0.  0.
        -24    2    5    5    0    0 -0.57278559245E+00 -0.82103741516E+02 -0.85176795943E+02  0.14251277001E+03  0.79457224937E+02 0.  0.
          5    1    3    3  501    0 -0.14460555908E+02  0.11705503930E+03  0.71636342761E+02  0.13807550654E+03  0.47000000000E+01 0. -1.
        -11    1    4    4    0    0  0.85928876187E+01 -0.14223483996E+02  0.35780274808E+02  0.39450897074E+02  0.00000000000E+00 0.  1.
         12    1    4    4    0    0 -0.78669813718E+02  0.47576176319E+02  0.15275099750E+03  0.17828432175E+03  0.00000000000E+00 0. -1.
         -5    1    5    5    0  503  0.85110267600E+02 -0.68303990105E+02 -0.17460800734E+03  0.20595931380E+03  0.47000000000E+01 0.  1.
         11    1    6    6    0    0 -0.10188738933E+02 -0.60106500887E+01 -0.60937968051E+02  0.62075552883E+02  0.00000000000E+00 0. -1.
        -12    1    6    6    0    0  0.96159533404E+01 -0.76093091427E+02 -0.24238827892E+02  0.80437217127E+02  0.00000000000E+00 0.  1.
</event>
<event>
12    1  0.9028446E-003  0.2277869E+03  0.7818608E-02  0.1129940E+00
         21   -1    0    0  501  502  0.00000000000E+00  0.00000000000E+00  0.64865910532E+02  0.64865910532E+02  0.00000000000E+00 0. -1.
         21   -1    0    0  502  503 -0.00000000000E+00 -0.00000000000E+00 -0.97733498683E+03  0.97733498683E+03  0.00000000000E+00 0.  1.
          6    2    1    2  501    0 -0.13444723326E+03  0.15457125389E+02 -0.69037867280E+03  0.72406411775E+03  0.17126340385E+03 0.  0.
         24    2    3    3    0    0 -0.13822411502E+03  0.25886858224E+02 -0.69323911276E+03  0.71168202263E+03  0.78324954361E+02 0.  0.
         -6    2    1    2    0  503  0.13444723326E+03 -0.15457125389E+02 -0.22209040350E+03  0.31813677962E+03  0.18322631350E+03 0.  0.
        -24    2    5    5    0    0  0.77285532716E+02 -0.21161404216E+02 -0.28758014884E+02  0.11639560559E+03  0.79372885711E+02 0.  0.
          5    1    3    3  501    0  0.37768817558E+01 -0.10429732836E+02  0.28604399584E+01  0.12382095121E+02  0.47000000000E+01 0. -1.
        -11    1    4    4    0    0 -0.49442625115E+02  0.40961522722E+02 -0.19293325009E+03  0.20333631872E+03  0.00000000000E+00 0.  1.
         12    1    4    4    0    0 -0.88781489903E+02 -0.15074664498E+02 -0.50030586267E+03  0.50834570391E+03  0.00000000000E+00 0. -1.
         -5    1    5    5    0  503  0.57161700546E+02  0.57042788273E+01 -0.19333238862E+03  0.20174117402E+03  0.47000000000E+01 0.  1.
         13    1    6    6    0    0  0.73528685817E+02 -0.39187284583E+01 -0.49830657490E+02  0.88909608573E+02  0.00000000000E+00 0. -1.
        -14    1    6    6    0    0  0.37568468995E+01 -0.17242675758E+02  0.21072642606E+02  0.27485997022E+02  0.00000000000E+00 0.  1.
</event>
<event>
12    1  0.9028446E-003  0.1852720E+03  0.7818608E-02  0.1163501E+00
         21   -1    0    0  501  502  0.00000000000E+00  0.00000000000E+00  0.65177961776E+03  0.65177961776E+03  0.00000000000E+00 0.  1.
         21   -1    0    0  502  503 -0.00000000000E+00 -0.00000000000E+00 -0.58197558579E+02  0.58197558579E+02  0.00000000000E+00 0.  1.
          6    2    1    2  501    0  0.32408420626E+02 -0.57470758956E+02  0.17708053109E+03  0.25412716346E+03  0.16991146769E+03 0.  0.
         24    2    3    3    0    0  0.85931392960E+02 -0.46830687809E+02  0.13559126207E+03  0.18541494383E+03  0.80102393415E+02 0.  0.
         -6    2    1    2    0  503 -0.32408420626E+02  0.57470758956E+02  0.41650152809E+03  0.45585001288E+03  0.17312572738E+03 0.  0.
        -24    2    5    5    0    0 -0.45827581630E+02  0.65280926509E+02  0.14445994529E+03  0.18332517847E+03  0.79860369796E+02 0.  0.
          5    1    3    3  501    0 -0.53522972333E+02 -0.10640071147E+02  0.41489269023E+02  0.68712219623E+02  0.47000000000E+01 0. -1.
        -13    1    4    4    0    0  0.65188514618E+02 -0.69779358266E+02  0.10440785087E+03  0.14149099124E+03  0.00000000000E+00 0.  1.
         14    1    4    4    0    0  0.20742878341E+02  0.22948670457E+02  0.31183411193E+02  0.43923952592E+02  0.00000000000E+00 0. -1.
         -5    1    5    5    0  503  0.13419161004E+02 -0.78101675521E+01  0.27204158280E+03  0.27252483442E+03  0.47000000000E+01 0.  1.
         11    1    6    6    0    0 -0.30609667359E+02 -0.50602563439E+00  0.89040786161E+01  0.31882446797E+02  0.00000000000E+00 0. -1.
        -12    1    6    6    0    0 -0.15217914271E+02  0.65786952143E+02  0.13555586667E+03  0.15144273167E+03  0.00000000000E+00 0.  1.
</event>
<event>
12    1  0.9028446E-003  0.2251353E+03  0.7818608E-02  0.1130121E+00
         21   -1    0    0  503  502  0.00000000000E+00  0.00000000000E+00  0.59063260797E+03  0.59063260797E+03  0.00000000000E+00 0. -1.
         21   -1    0    0  501  503 -0.00000000000E+00 -0.00000000000E+00 -0.85948420008E+02  0.85948420008E+02  0.00000000000E+00 0. -1.
          6    2    1    2  501    0  0.12999343525E+03 -0.65364296834E+02  0.26655797635E+03  0.34887689799E+03  0.17172987710E+03 0.  0.
         24    2    3    3    0    0  0.38828596966E+02  0.11084470440E+02  0.18346814190E+03  0.20368236522E+03  0.78710999124E+02 0.  0.
         -6    2    1    2    0  502 -0.12999343525E+03  0.65364296834E+02  0.23812621161E+03  0.32770412999E+03  0.17179964972E+03 0.  0.
        -24    2    5    5    0    0 -0.96434715465E+02  0.44939614304E+02  0.61975531607E+02  0.14716464013E+03  0.80605468218E+02 0.  0.
          5    1    3    3  501    0  0.91164838285E+02 -0.76448767273E+02  0.83089834444E+02  0.14519453277E+03  0.47000000000E+01 0. -1.
        -11    1    4    4    0    0 -0.59974927882E+01  0.24801293688E+02  0.16807340610E+02  0.30554226986E+02  0.00000000000E+00 0.  1.
         12    1    4    4    0    0  0.44826089754E+02 -0.13716823248E+02  0.16666080129E+03  0.17312813824E+03  0.00000000000E+00 0. -1.
         -5    1    5    5    0  502 -0.33558719786E+02  0.20424682530E+02  0.17615068001E+03  0.18053948985E+03  0.47000000000E+01 0.  1.
         13    1    6    6    0    0 -0.22879552209E+02  0.50975712468E+02  0.96672467950E+01  0.56704963024E+02  0.00000000000E+00 0. -1.
        -14    1    6    6    0    0 -0.73555163255E+02 -0.60360981642E+01  0.52308284812E+02  0.90459677108E+02  0.00000000000E+00 0.  1.
</event>
<event>
12    1  0.9028446E-003  0.3208113E+03  0.7818608E-02  0.1075345E+00
         21   -1    0    0  501  502  0.00000000000E+00  0.00000000000E+00  0.28273721678E+03  0.28273721678E+03  0.00000000000E+00 0. -1.
         21   -1    0    0  502  503 -0.00000000000E+00 -0.00000000000E+00 -0.36565445206E+03  0.36565445206E+03  0.00000000000E+00 0.  1.
          6    2    1    2  501    0 -0.11439455697E+03 -0.24516804424E+03 -0.67255185132E+02  0.32719828037E+03  0.17129497998E+03 0.  0.
         24    2    3    3    0    0 -0.12464709223E+03 -0.13920566681E+03 -0.82962015224E+02  0.21948600427E+03  0.79851705225E+02 0.  0.
         -6    2    1    2    0  503  0.11439455697E+03  0.24516804424E+03 -0.15662050151E+02  0.32119338847E+03  0.17241348092E+03 0.  0.
        -24    2    5    5    0    0  0.11024300420E+03  0.24590285201E+03  0.23124480653E+02  0.28189631091E+03  0.79429565657E+02 0.  0.
          5    1    3    3  501    0  0.10252535261E+02 -0.10596237743E+03  0.15706830091E+02  0.10771227610E+03  0.47000000000E+01 0. -1.
        -13    1    4    4    0    0 -0.94895823396E+02 -0.73388826183E+02 -0.16059442610E+02  0.12103323016E+03  0.00000000000E+00 0.  1.
         14    1    4    4    0    0 -0.29751268834E+02 -0.65816840628E+02 -0.66902572614E+02  0.98452774110E+02  0.00000000000E+00 0. -1.
         -5    1    5    5    0  503  0.41515527750E+01 -0.73480776707E+00 -0.38786530804E+02  0.39297077559E+02  0.47000000000E+01 0.  1.
         11    1    6    6    0    0  0.55609496907E+02  0.20216475972E+03  0.28981685227E+02  0.21166706002E+03  0.00000000000E+00 0. -1.
        -12    1    6    6    0    0  0.54633507288E+02  0.43738092293E+02 -0.58572045740E+01  0.70229250896E+02  0.00000000000E+00 0.  1.
</event>
<event>
12    1  0.9028446E-003  0.2209850E+03  0.7818608E-02  0.1135165E+00
         21   -1    0    0  503  502  0.00000000000E+00  0.00000000000E+00  0.21798381194E+03  0.21798381194E+03  0.00000000000E+00 0.  1.
         21   -1    0    0  501  503 -0.00000000000E+00 -0.00000000000E+00 -0.22190704756E+03  0.22190704756E+03  0.00000000000E+00 0. -1.
          6    2    1    2  501    0  0.10395186052E+03 -0.65276935133E+02 -0.44904541662E+02  0.21513800319E+03  0.17088263512E+03 0.  0.
         24    2    3    3    0    0  0.55585780721E+02  0.30118235506E+02 -0.35645019513E+02  0.10767942974E+03  0.79544987555E+02 0.  0.
         -6    2    1    2    0  502 -0.10395186052E+03  0.65276935133E+02  0.40981306036E+02  0.22475285631E+03  0.18375884036E+03 0.  0.
        -24    2    5    5    0    0 -0.11790087012E+03  0.10414666257E+03  0.19946144404E+02  0.17816961250E+03  0.81236812116E+02 0.  0.
          5    1    3    3  501    0  0.48366079802E+02 -0.95395170638E+02 -0.92595221493E+01  0.10745857345E+03  0.47000000000E+01 0. -1.
        -13    1    4    4    0    0  0.19653391072E+02 -0.12279608778E+02  0.18828252186E+02  0.29858795233E+02  0.00000000000E+00 0.  1.
         14    1    4    4    0    0  0.35932389648E+02  0.42397844284E+02 -0.54473271699E+02  0.77820634509E+02  0.00000000000E+00 0. -1.
         -5    1    5    5    0  502  0.13949009595E+02 -0.38869727435E+02  0.21035161632E+02  0.46583243816E+02  0.47000000000E+01 0.  1.
         13    1    6    6    0    0 -0.13935169758E+01 -0.99947181121E+01 -0.77615715918E+01  0.12730996555E+02  0.00000000000E+00 0. -1.
        -14    1    6    6    0    0 -0.11650735314E+03  0.11414138068E+03  0.27707715996E+02  0.16543861594E+03  0.00000000000E+00 0.  1.
</event>
<event>
12    1  0.9028446E-003  0.1909079E+03  0.7818608E-02  0.1157966E+00
         21   -1    0    0  501  502  0.00000000000E+00  0.00000000000E+00  0.28567528307E+02  0.28567528307E+02  0.00000000000E+00 0. -1.
         21   -1    0    0  502  503 -0.00000000000E+00 -0.00000000000E+00 -0.12674299468E+04  0.12674299468E+04  0.00000000000E+00 0.  1.
          6    2    1    2  501    0 -0.71373884797E+02 -0.33557263880E+02 -0.60209060575E+03  0.63163195475E+03  0.17385484559E+03 0.  0.
         24    2    3    3    0    0  0.16007191983E+02  0.19791242834E+02 -0.20841307112E+03  0.22483273274E+03  0.80410360110E+02 0.  0.
         -6    2    1    2    0  503  0.71373884797E+02  0.33557263880E+02 -0.63677181274E+03  0.66436552036E+03  0.17228720715E+03 0.  0.
        -24    2    5    5    0    0 -0.27680693776E+02  0.25335497118E+02 -0.36240508463E+03  0.37251179247E+03  0.77585320419E+02 0.  0.
          5    1    3    3  501    0 -0.87381076780E+02 -0.53348506714E+02 -0.39367753463E+03  0.40679922200E+03  0.47000000000E+01 0. -1.
        -11    1    4    4    0    0  0.29090087124E+02  0.71966340765E+01 -0.20394000448E+03  0.20612993509E+03  0.00000000000E+00 0.  1.
         12    1    4    4    0    0 -0.13082895141E+02  0.12594608757E+02 -0.44730666315E+01  0.18702797654E+02  0.00000000000E+00 0. -1.
         -5    1    5    5    0  503  0.99054578573E+02  0.82217667613E+01 -0.27436672812E+03  0.29185372789E+03  0.47000000000E+01 0.  1.
         13    1    6    6    0    0 -0.67055482537E+01 -0.45066074041E+01  0.19506930406E+00  0.80815802731E+01  0.00000000000E+00 0. -1.
        -14    1    6    6    0    0 -0.20975145522E+02  0.29842104523E+02 -0.36260015393E+03  0.36443021220E+03  0.00000000000E+00 0.  1.
</event>
<event>
12    1  0.9028446E-003  0.3003403E+03  0.7818608E-02  0.1085120E+00
         21   -1    0    0  503  502  0.00000000000E+00  0.00000000000E+00  0.79371808472E+02  0.79371808472E+02  0.00000000000E+00 0.  1.
         21   -1    0    0  501  503 -0.00000000000E+00 -0.00000000000E+00 -0.11396694415E+04  0.11396694415E+04  0.00000000000E+00 0.  1.
          6    2    1    2  501    0 -0.51262181038E+01 -0.24599182683E+03 -0.49145758867E+03  0.57596428114E+03  0.17223830791E+03 0.  0.
         24    2    3    3    0    0 -0.86953222355E+01 -0.26166154755E+03 -0.48679743391E+03  0.55858366856E+03  0.80632493613E+02 0.  0.
         -6    2    1    2    0  502  0.51262181038E+01  0.24599182683E+03 -0.56884004432E+03  0.64307696879E+03  0.17155388302E+03 0.  0.
        -24    2    5    5    0    0 -0.52894564946E+02  0.17892676334E+03 -0.45951247904E+03  0.50222690476E+03  0.79167694342E+02 0.  0.
          5    1    3    3  501    0  0.35691041317E+01  0.15669720711E+02 -0.46601547587E+01  0.17380612585E+02  0.47000000000E+01 0. -1.
        -11    1    4    4    0    0 -0.27022387377E+01 -0.20348527047E+03 -0.29739428140E+03  0.36035665112E+03  0.00000000000E+00 0.  1.
         12    1    4    4    0    0 -0.59930834978E+01 -0.58176277073E+02 -0.18940315251E+03  0.19822701744E+03  0.00000000000E+00 0. -1.
         -5    1    5    5    0  502  0.58020783050E+02  0.67065063496E+02 -0.10932756528E+03  0.14085006403E+03  0.47000000000E+01 0.  1.
         11    1    6    6    0    0 -0.25887267000E+02  0.74766308125E+02 -0.10331712120E+03  0.13013292803E+03  0.00000000000E+00 0. -1.
        -12    1    6    6    0    0 -0.27007297946E+02  0.10416045521E+03 -0.35619535784E+03  0.37209397673E+03  0.00000000000E+00 0.  1.
</event>
<event>
12    1  0.9028446E-003  0.2284216E+03  0.7818608E-02  0.1127856E+00
         21   -1    0    0  503  502  0.00000000000E+00  0.00000000000E+00  0.31628411715E+03  0.31628411715E+03  0.00000000000E+00 0.  1.
         21   -1    0    0  501  503 -0.00000000000E+00 -0.00000000000E+00 -0.17089596686E+03  0.17089596686E+03  0.00000000000E+00 0.  1.
          6    2    1    2  501    0  0.14590782196E+03  0.33965542784E+02  0.25876039165E+02  0.22988256391E+03  0.17243454752E+03 0.  0.
         24    2    3    3    0    0  0.13337182092E+03 -0.21958676250E+02 -0.16729429820E+02  0.15831451528E+03  0.80705550288E+02 0.  0.
         -6    2    1    2    0  502 -0.14590782196E+03 -0.33965542784E+02  0.11951211113E+03  0.25729752010E+03  0.17168610467E+03 0.  0.
        -24    2    5    5    0    0 -0.15143812507E+03  0.17934289135E+02  0.71796614416E+02  0.18642414405E+03  0.79649627708E+02 0.  0.
          5    1    3    3  501    0  0.12536001035E+02  0.55924219035E+02  0.42605468985E+02  0.71568048625E+02  0.47000000000E+01 0. -1.
        -13    1    4    4    0    0  0.34277768904E+01  0.15110160857E+02 -0.17248351744E+02  0.23185604443E+02  0.00000000000E+00 0.  1.
         14    1    4    4    0    0  0.12994404403E+03 -0.37068837107E+02  0.51892192396E+00  0.13512891084E+03  0.00000000000E+00 0. -1.
         -5    1    5    5    0  502  0.55303031086E+01 -0.51899831919E+02  0.47715496711E+02  0.70873376045E+02  0.47000000000E+01 0. -1.
         13    1    6    6    0    0 -0.10060742958E+03  0.49116276066E+02  0.53239722966E+02  0.12397068832E+03  0.00000000000E+00 0. -1.
        -14    1    6    6    0    0 -0.50830695485E+02 -0.31181986932E+02  0.18556891450E+02  0.62453455731E+02  0.00000000000E+00 0.  1.
</event>
<event>
12    1  0.9028446E-003  0.1773049E+03  0.7818608E-02  0.1170787E+00
         21   -1    0    0  503  502  0.00000000000E+00  0.00000000000E+00  0.64976365397E+03  0.64976365397E+03  0.00000000000E+00 0.  1.
         21   -1    0    0  501  503 -0.00000000000E+00 -0.00000000000E+00 -0.49186440021E+02  0.49186440021E+02  0.00000000000E+00 0.  1.
          6    2    1    2  501    0 -0.29872015903E+02  0.23891747116E+02  0.35578525647E+03  0.39751752166E+03  0.17312965774E+03 0.  0.
         24    2    3    3    0    0 -0.60471246373E+02 -0.31315153608E+02  0.27243119656E+03  0.29285566568E+03  0.83116024802E+02 0.  0.
         -6    2    1    2    0  502  0.29872015903E+02 -0.23891747116E+02  0.24479195749E+03  0.30143257234E+03  0.17168383821E+03 0.  0.
        -24    2    5    5    0    0  0.56767343680E+02 -0.45310690184E+02  0.24371619694E+03  0.26671403206E+03  0.80394031445E+02 0.  0.
          5    1    3    3  501    0  0.30599230470E+02  0.55206900724E+02  0.83354059905E+02  0.10466185597E+03  0.47000000000E+01 0. -1.
        -11    1    4    4    0    0 -0.13649803756E+02  0.15607059149E+02  0.11652126304E+02  0.23783807208E+02  0.00000000000E+00 0.  1.
         12    1    4    4    0    0 -0.46821442617E+02 -0.46922212757E+02  0.26077907026E+03  0.26907185848E+03  0.00000000000E+00 0. -1.
         -5    1    5    5    0  502 -0.26895327777E+02  0.21418943068E+02  0.10757605430E+01  0.34718540279E+02  0.47000000000E+01 0.  1.
         11    1    6    6    0    0  0.13787065937E+02 -0.26413176360E+02  0.15245367684E+02  0.33468796040E+02  0.00000000000E+00 0. -1.
        -12    1    6    6    0    0  0.42980277743E+02 -0.18897513824E+02  0.22847082926E+03  0.23324523602E+03  0.00000000000E+00 0.  1.
</event>
<event>
12    1  0.9028446E-003  0.2124222E+03  0.7818608E-02  0.1139893E+00
         21   -1    0    0  501  502  0.00000000000E+00  0.00000000000E+00  0.16762719184E+03  0.16762719184E+03  0.00000000000E+00 0.  1.
         21   -1    0    0  502  503 -0.00000000000E+00 -0.00000000000E+00 -0.27357320026E+03  0.27357320026E+03  0.00000000000E+00 0. -1.
          6    2    1    2  501    0 -0.11911057084E+03  0.34356224558E+02 -0.20484228630E+02  0.21223115358E+03  0.17104028963E+03 0.  0.
         24    2    3    3    0    0 -0.87692979755E+02  0.50058194480E+02  0.40894978701E+02  0.14135722339E+03  0.90075433874E+02 0.  0.
         -6    2    1    2    0  503  0.11911057084E+03 -0.34356224558E+02 -0.85461779789E+02  0.22896923851E+03  0.17249787862E+03 0.  0.
        -24    2    5    5    0    0  0.47578754612E+01  0.19996232797E+02 -0.13561090755E+02  0.83289701018E+02  0.79566226555E+02 0.  0.
          5    1    3    3  501    0 -0.31417591086E+02 -0.15701969921E+02 -0.61379207332E+02  0.70873930198E+02  0.47000000000E+01 0. -1.
        -13    1    4    4    0    0 -0.82230317015E+02  0.15810307504E+02 -0.49379121116E+01  0.83881904102E+02  0.00000000000E+00 0.  1.
         14    1    4    4    0    0 -0.54626627397E+01  0.34247886976E+02  0.45832890813E+02  0.57475319284E+02  0.00000000000E+00 0. -1.
         -5    1    5    5    0  503  0.11435269538E+03 -0.54352457355E+02 -0.71900689034E+02  0.14567953750E+03  0.47000000000E+01 0.  1.
         11    1    6    6    0    0  0.28137039489E+02  0.76786686879E+01 -0.37586475056E+02  0.47575183143E+02  0.00000000000E+00 0. -1.
        -12    1    6    6    0    0 -0.23379164028E+02  0.12317564109E+02  0.24025384300E+02  0.35714517874E+02  0.00000000000E+00 0.  1.
</event>
<event>
12    1  0.9028446E-003  0.2112675E+03  0.7818608E-02  0.1141321E+00
         21   -1    0    0  503  502  0.00000000000E+00  0.00000000000E+00  0.97768758574E+03  0.97768758574E+03  0.00000000000E+00 0. -1.
         21   -1    0    0  501  503 -0.00000000000E+00 -0.00000000000E+00 -0.58592829463E+02  0.58592829463E+02  0.00000000000E+00 0. -1.
          6    2    1    2  501    0  0.63216366155E+02 -0.96963328986E+02  0.21166751584E+03  0.29906037890E+03  0.17673646157E+03 0.  0.
         24    2    3    3    0    0  0.50278493577E+02  0.15295941307E+02  0.11490532174E+03  0.15021635141E+03  0.81239316400E+02 0.  0.
         -6    2    1    2    0  502 -0.63216366155E+02  0.96963328986E+02  0.70742724044E+03  0.73722003631E+03  0.17216818898E+03 0.  0.
        -24    2    5    5    0    0 -0.46650625345E+02  0.13477157889E+03  0.60365423325E+03  0.62543982987E+03  0.80230219662E+02 0.  0.
          5    1    3    3  501    0  0.12937872578E+02 -0.11225927029E+03  0.96762194104E+02  0.14884402750E+03  0.47000000000E+01 0. -1.
        -11    1    4    4    0    0 -0.78589670112E+01 -0.21038727309E+02  0.54108611588E+02  0.58584411385E+02  0.00000000000E+00 0.  1.
         12    1    4    4    0    0  0.58137460588E+02  0.36334668616E+02  0.60796710149E+02  0.91631940021E+02  0.00000000000E+00 0. -1.
         -5    1    5    5    0  502 -0.16565740810E+02 -0.37808249903E+02  0.10377300719E+03  0.11178020643E+03  0.47000000000E+01 0.  1.
         11    1    6    6    0    0 -0.83370420015E+01  0.12332293439E+03  0.46221371213E+03  0.47845539823E+03  0.00000000000E+00 0. -1.
        -12    1    6    6    0    0 -0.38313583343E+02  0.11448644496E+02  0.14144052112E+03  0.14698443164E+03  0.00000000000E+00 0.  1.
</event>
<event>
12    1  0.9028446E-003  0.1797290E+03  0.7818608E-02  0.1168566E+00
         21   -1    0    0  501  502  0.00000000000E+00  0.00000000000E+00  0.27657080950E+02  0.27657080950E+02  0.00000000000E+00 0.  1.
         21   -1    0    0  502  503 -0.00000000000E+00 -0.00000000000E+00 -0.11574083207E+04  0.11574083207E+04  0.00000000000E+00 0.  1.
          6    2    1    2  501    0 -0.51934437318E+01  0.53437393158E+02 -0.59050393233E+03  0.61665518630E+03  0.16937000280E+03 0.  0.
         24    2    3    3    0    0  0.15201655548E+02  0.99246513193E+02 -0.47906020854E+03  0.49435952356E+03  0.69366378142E+02 0.  0.
         -6    2    1    2    0  503  0.51934437318E+01 -0.53437393158E+02 -0.53924730741E+03  0.56841021533E+03  0.17152255684E+03 0.  0.
        -24    2    5    5    0    0 -0.27673398796E+02  0.17953862912E+02 -0.39340226308E+03  0.40267003392E+03  0.79307360472E+02 0.  0.
          5    1    3    3  501    0 -0.20395099280E+02 -0.45809120035E+02 -0.11144372379E+03  0.12229566274E+03  0.47000000000E+01 0. -1.
        -11    1    4    4    0    0 -0.47818600667E+01  0.27929915174E+02 -0.39554092431E+02  0.48656680686E+02  0.00000000000E+00 0.  1.
         12    1    4    4    0    0  0.19983515615E+02  0.71316598019E+02 -0.43950611611E+03  0.44570284288E+03  0.00000000000E+00 0. -1.
         -5    1    5    5    0  503  0.32866842528E+02 -0.71391256071E+02 -0.14584504432E+03  0.16574018141E+03  0.47000000000E+01 0.  1.
         13    1    6    6    0    0  0.14137567663E+02 -0.10486089938E+02 -0.23678074016E+02  0.29503899585E+02  0.00000000000E+00 0. -1.
        -14    1    6    6    0    0 -0.41810966459E+02  0.28439952850E+02 -0.36972418907E+03  0.37316613434E+03  0.00000000000E+00 0.  1.
</event>
<event>
12    1  0.9028446E-003  0.3625024E+03  0.7818608E-02  0.1057708E+00
         21   -1    0    0  501  502  0.00000000000E+00  0.00000000000E+00  0.27687262636E+03  0.27687262636E+03  0.00000000000E+00 0. -1.
         21   -1    0    0  502  503 -0.00000000000E+00 -0.00000000000E+00 -0.47315719188E+03  0.47315719188E+03  0.00000000000E+00 0.  1.
          6    2    1    2  501    0  0.30217130980E+03 -0.10029604822E+03 -0.99814210350E+02  0.37599317191E+03  0.17332394809E+03 0.  0.
         24    2    3    3    0    0  0.24238074250E+03 -0.15483061626E+02 -0.50892056629E+02  0.26117321826E+03  0.81445067226E+02 0.  0.
         -6    2    1    2    0  503 -0.30217130980E+03  0.10029604822E+03 -0.96470355168E+02  0.37403664632E+03  0.17096808361E+03 0.  0.
        -24    2    5    5    0    0 -0.14785028099E+03  0.11426436262E+03 -0.59331344040E+02  0.21462682891E+03  0.87340810331E+02 0.  0.
          5    1    3    3  501    0  0.59790567302E+02 -0.84812986589E+02 -0.48922153721E+02  0.11481995365E+03  0.47000000000E+01 0. -1.
        -13    1    4    4    0    0  0.21003311351E+03  0.13986787190E+02 -0.53967738607E+02  0.21730636391E+03  0.00000000000E+00 0.  1.
         14    1    4    4    0    0  0.32347628988E+02 -0.29469848816E+02  0.30756819776E+01  0.43866854344E+02  0.00000000000E+00 0. -1.
         -5    1    5    5    0  503 -0.15432102881E+03 -0.13968314405E+02 -0.37139011128E+02  0.15940981741E+03  0.47000000000E+01 0.  1.
         13    1    6    6    0    0 -0.10715593194E+03  0.68016388427E+02  0.30482038661E+01  0.12695634837E+03  0.00000000000E+00 0. -1.
        -14    1    6    6    0    0 -0.40694349052E+02  0.46247974194E+02 -0.62379547906E+02  0.87670480544E+02  0.00000000000E+00 0.  1.
</event>
<event>
12    1  0.9028446E-003  0.2068493E+03  0.7818608E-02  0.1144138E+00
         21   -1    0    0  503  502  0.00000000000E+00  0.00000000000E+00  0.37337328952E+03  0.37337328952E+03  0.00000000000E+00 0. -1.
         21   -1    0    0  501  503 -0.00000000000E+00 -0.00000000000E+00 -0.11719127986E+03  0.11719127986E+03  0.00000000000E+00 0.  1.
          6    2    1    2  501    0 -0.40105802649E+02  0.10591779757E+03  0.16568488907E+03  0.26502476318E+03  0.17308838028E+03 0.  0.
         24    2    3    3    0    0  0.44326585429E+02  0.53120466934E+02  0.39243738241E+02  0.10400973003E+03  0.67017331839E+02 0.  0.
         -6    2    1    2    0  502  0.40105802649E+02 -0.10591779757E+03  0.90497120596E+02  0.22553980619E+03  0.17277563512E+03 0.  0.
        -24    2    5    5    0    0  0.45303442237E+02 -0.57369979883E+02  0.12446063430E+03  0.16587812399E+03  0.81739745881E+02 0.  0.
          5    1    3    3  501    0 -0.84432388077E+02  0.52797330639E+02  0.12644115082E+03  0.16101503315E+03  0.47000000000E+01 0. -1.
        -13    1    4    4    0    0 -0.11743725818E+02 -0.67487457821E+01  0.12202529107E+01  0.13599620689E+02  0.00000000000E+00 0.  1.
         14    1    4    4    0    0  0.56070311246E+02  0.59869212716E+02  0.38023485330E+02  0.90410109342E+02  0.00000000000E+00 0. -1.
         -5    1    5    5    0  502 -0.51976395879E+01 -0.48547817690E+02 -0.33963513709E+02  0.59661682203E+02  0.47000000000E+01 0.  1.
         11    1    6    6    0    0 -0.13811125104E+02 -0.59597304027E+01  0.67141435194E+02  0.68805798324E+02  0.00000000000E+00 0. -1.
        -12    1    6    6    0    0  0.59114567341E+02 -0.51410249480E+02  0.57319199111E+02  0.97072325666E+02  0.00000000000E+00 0.  1.
</event>
<event>
12    1  0.9028446E-003  0.1761934E+03  0.7818608E-02  0.1171942E+00
         21   -1    0    0  501  502  0.00000000000E+00  0.00000000000E+00  0.89303959185E+03  0.89303959185E+03  0.00000000000E+00 0. -1.
         21   -1    0    0  502  503 -0.00000000000E+00 -0.00000000000E+00 -0.43175586793E+02  0.43175586793E+02  0.00000000000E+00 0. -1.
          6    2    1    2  501    0 -0.11342502934E+01 -0.29518692386E+02  0.63387409067E+03  0.65747560770E+03  0.17206153599E+03 0.  0.
         24    2    3    3    0    0  0.71740206165E+00  0.38195508025E+02  0.20072316613E+03  0.21903467098E+03  0.78911255045E+02 0.  0.
         -6    2    1    2    0  503  0.11342502934E+01  0.29518692386E+02  0.21598991439E+03  0.27873957095E+03  0.17369935398E+03 0.  0.
        -24    2    5    5    0    0  0.62370299073E+02  0.35170723448E+01  0.86980949983E+02  0.13351098970E+03  0.79731265551E+02 0.  0.
          5    1    3    3  501    0 -0.18516523551E+01 -0.67714200411E+02  0.43315092454E+03  0.43844093672E+03  0.47000000000E+01 0. -1.
        -11    1    4    4    0    0 -0.26260449603E+02  0.13170822449E+02  0.22371259051E+02  0.36926345729E+02  0.00000000000E+00 0.  1.
         12    1    4    4    0    0  0.26977851665E+02  0.25024685576E+02  0.17835190708E+03  0.18210832525E+03  0.00000000000E+00 0. -1.
         -5    1    5    5    0  503 -0.61236048780E+02  0.26001620041E+02  0.12900896441E+03  0.14522858125E+03  0.47000000000E+01 0.  1.
         11    1    6    6    0    0  0.32562931241E+01  0.32815429453E+02  0.16170833880E+02  0.36728078135E+02  0.00000000000E+00 0. -1.
        -12    1    6    6    0    0  0.59114005949E+02 -0.29298357108E+02  0.70810116103E+02  0.96782911565E+02  0.00000000000E+00 0.  1.
</event>
<event>
12    1  0.9028446E-003  0.3195631E+03  0.7818608E-02  0.1076013E+00
         21   -1    0    0  503  502  0.00000000000E+00  0.00000000000E+00  0.47039791241E+03  0.47039791241E+03  0.00000000000E+00 0.  1.
         21   -1    0    0  501  503 -0.00000000000E+00 -0.00000000000E+00 -0.21668048956E+03  0.21668048956E+03  0.00000000000E+00 0.  1.
          6    2    1    2  501    0 -0.17294009249E+03  0.20512286970E+03  0.14376189247E+03  0.34912756297E+03  0.17099387778E+03 0.  0.
         24    2    3    3    0    0 -0.17514920365E+03  0.11613259715E+03  0.76399159698E+02  0.23739584614E+03  0.79724102397E+02 0.  0.
         -6    2    1    2    0  502  0.17294009249E+03 -0.20512286970E+03  0.10995553038E+03  0.33795083900E+03  0.17359978012E+03 0.  0.
        -24    2    5    5    0    0  0.11603455425E+03 -0.16372204093E+03  0.11802596662E+02  0.21708580144E+03  0.81963525037E+02 0.  0.
          5    1    3    3  501    0  0.22091111546E+01  0.88990272550E+02  0.67362732770E+02  0.11173171683E+03  0.47000000000E+01 0. -1.
        -13    1    4    4    0    0 -0.79372591560E+02  0.98507642080E+02  0.32750336046E+02  0.13067650267E+03  0.00000000000E+00 0.  1.
         14    1    4    4    0    0 -0.95776612086E+02  0.17624955066E+02  0.43648823653E+02  0.10671934347E+03  0.00000000000E+00 0. -1.
         -5    1    5    5    0  502  0.56905538243E+02 -0.41400828771E+02  0.98152933720E+02  0.12086503756E+03  0.47000000000E+01 0.  1.
         11    1    6    6    0    0  0.21151124510E+02 -0.52397047069E+02 -0.31297859881E+02  0.64593936578E+02  0.00000000000E+00 0. -1.
        -12    1    6    6    0    0  0.94883429738E+02 -0.11132499386E+03  0.43100456543E+02  0.15249186487E+03  0.00000000000E+00 0.  1.
</event>
<event>
12    1  0.9028446E-003  0.1877820E+03  0.7818608E-02  0.1160496E+00
         21   -1    0    0  503  502  0.00000000000E+00  0.00000000000E+00  0.60535927446E+03  0.60535927446E+03  0.00000000000E+00 0. -1.
         21   -1    0    0  501  503 -0.00000000000E+00 -0.00000000000E+00 -0.75786900705E+02  0.75786900705E+02  0.00000000000E+00 0. -1.
          6    2    1    2  501    0 -0.52297848126E+02  0.51194787091E+02  0.10088173992E+03  0.21316475448E+03  0.17293384851E+03 0.  0.
         24    2    3    3    0    0  0.21524131198E+02  0.63948152960E+02  0.24572117029E+02  0.10612466144E+03  0.78140900562E+02 0.  0.
         -6    2    1    2    0  502  0.52297848126E+02 -0.51194787091E+02  0.42869063384E+03  0.46798142068E+03  0.17284380063E+03 0.  0.
        -24    2    5    5    0    0  0.30060603830E+01 -0.58042732822E+01  0.36999174749E+03  0.37877588082E+03  0.80836555438E+02 0.  0.
          5    1    3    3  501    0 -0.73821979324E+02 -0.12753365869E+02  0.76309622887E+02  0.10704009304E+03  0.47000000000E+01 0. -1.
        -11    1    4    4    0    0  0.29226950092E+02  0.28489397649E+02  0.47943340259E+02  0.62963674172E+02  0.00000000000E+00 0.  1.
         12    1    4    4    0    0 -0.77028188942E+01  0.35458755310E+02 -0.23371223230E+02  0.43160987272E+02  0.00000000000E+00 0. -1.
         -5    1    5    5    0  502  0.49291787743E+02 -0.45390513809E+02  0.58698886346E+02  0.89205539855E+02  0.47000000000E+01 0.  1.
         11    1    6    6    0    0 -0.11760040481E+02 -0.39814480263E+02  0.24147017376E+03  0.24501293069E+03  0.00000000000E+00 0. -1.
        -12    1    6    6    0    0  0.14766100864E+02  0.34010206981E+02  0.12852157373E+03  0.13376295013E+03  0.00000000000E+00 0.  1.
</event>
<event>
12    1  0.9028446E-003  0.2071172E+03  0.7818608E-02  0.1144797E+00
         21   -1    0    0  503  502  0.00000000000E+00  0.00000000000E+00  0.44058883817E+03  0.44058883817E+03  0.00000000000E+00 0.  1.
         21   -1    0    0  501  503 -0.00000000000E+00 -0.00000000000E+00 -0.16363391461E+03  0.16363391461E+03  0.00000000000E+00 0. -1.
          6    2    1    2  501    0 -0.26163767153E+01  0.11331651379E+03 -0.55941074359E+02  0.21453892511E+03  0.17334955685E+03 0.  0.
         24    2    3    3    0    0 -0.42002078207E+02  0.19153945641E+02  0.11665484940E+02  0.92021336237E+02  0.78745124145E+02 0.  0.
         -6    2    1    2    0  502  0.26163767153E+01 -0.11331651379E+03  0.33289599792E+03  0.38968382768E+03  0.16788764815E+03 0.  0.
        -24    2    5    5    0    0  0.24551350764E+02 -0.22817867371E+02  0.74518653810E+02  0.11499838934E+03  0.80920800097E+02 0.  0.
          5    1    3    3  501    0  0.39385701492E+02  0.94162568148E+02 -0.67606559299E+02  0.12251758887E+03  0.47000000000E+01 0. -1.
        -13    1    4    4    0    0 -0.82307570257E-01  0.23082347933E+02  0.36465306976E+02  0.43156924977E+02  0.00000000000E+00 0.  1.
         14    1    4    4    0    0 -0.41919770637E+02 -0.39284022916E+01 -0.24799822036E+02  0.48864411260E+02  0.00000000000E+00 0. -1.
         -5    1    5    5    0  502 -0.21934974048E+02 -0.90498646418E+02  0.25837734411E+03  0.27468543834E+03  0.47000000000E+01 0.  1.
         11    1    6    6    0    0  0.50186873397E+01  0.30317423454E+02  0.22166473794E+02  0.37890446658E+02  0.00000000000E+00 0. -1.
        -12    1    6    6    0    0  0.19532663424E+02 -0.53135290825E+02  0.52352180016E+02  0.77107942677E+02  0.00000000000E+00 0.  1.
</event>
<event>
12    1  0.9028446E-003  0.2089674E+03  0.7818608E-02  0.1144379E+00
         21   -1    0    0  501  502  0.00000000000E+00  0.00000000000E+00  0.18019254293E+03  0.18019254293E+03  0.00000000000E+00 0.  1.
         21   -1    0    0  502  503 -0.00000000000E+00 -0.00000000000E+00 -0.23133039607E+03  0.23133039607E+03  0.00000000000E+00 0.  1.
          6    2    1    2  501    0  0.99361026787E+02 -0.60575781142E+02 -0.30496248038E+02  0.20153850817E+03  0.16169635192E+03 0.  0.
         24    2    3    3    0    0  0.85563201868E+02 -0.75386241283E+02 -0.69686741097E+02  0.15717958067E+03  0.82734707393E+02 0.  0.
         -6    2    1    2    0  503 -0.99361026787E+02  0.60575781142E+02 -0.20641605101E+02  0.20998443083E+03  0.17356654754E+03 0.  0.
        -24    2    5    5    0    0 -0.40461676294E+02 -0.35628292950E+02 -0.43482267766E+01  0.95914620897E+02  0.79209752674E+02 0.  0.
          5    1    3    3  501    0  0.13797824919E+02  0.14810460141E+02  0.39190493059E+02  0.44358927493E+02  0.47000000000E+01 0. -1.
        -11    1    4    4    0    0  0.54124919927E+02 -0.65900969219E+02 -0.59562228209E+01  0.85486380737E+02  0.00000000000E+00 0.  1.
         12    1    4    4    0    0  0.31438281941E+02 -0.94852720638E+01 -0.63730518276E+02  0.71693199937E+02  0.00000000000E+00 0. -1.
         -5    1    5    5    0  503 -0.58899350493E+02  0.96204074092E+02 -0.16293378324E+02  0.11406980993E+03  0.47000000000E+01 0.  1.
         11    1    6    6    0    0 -0.48249037435E+02  0.67084134019E+01 -0.16078477118E+02  0.51298049185E+02  0.00000000000E+00 0. -1.
        -12    1    6    6    0    0  0.77873611404E+01 -0.42336706352E+02  0.11730250341E+02  0.44616571712E+02  0.00000000000E+00 0.  1.
</event>
<event>
12    1  0.9028446E-003  0.1832723E+03  0.7818608E-02  0.1166256E+00
         21   -1    0    0  503  502  0.00000000000E+00  0.00000000000E+00  0.11778012280E+03  0.11778012280E+03  0.00000000000E+00 0.  1.
         21   -1    0    0  501  503 -0.00000000000E+00 -0.00000000000E+00 -0.34588490404E+03  0.34588490404E+03  0.00000000000E+00 0.  1.
          6    2    1    2  501    0  0.61661028204E+02 -0.98203013634E+00 -0.21729368049E+03  0.28007410173E+03  0.16559562825E+03 0.  0.
         24    2    3    3    0    0  0.88523902497E+02 -0.40012720857E+02 -0.15106211458E+03  0.19850376915E+03  0.84536884039E+02 0.  0.
         -6    2    1    2    0  502 -0.61661028204E+02  0.98203013634E+00 -0.10811100755E+02  0.18359092511E+03  0.17258534440E+03 0.  0.
        -24    2    5    5    0    0 -0.10968373687E+03 -0.67002906843E+01 -0.80021346957E+01  0.13465036023E+03  0.77403290113E+02 0.  0.
          5    1    3    3  501    0 -0.26862874293E+02  0.39030690721E+02 -0.66231565909E+02  0.81570332573E+02  0.47000000000E+01 0. -1.
        -13    1    4    4    0    0  0.55165110445E+02 -0.19577297949E+02 -0.20206343353E+02  0.61925409300E+02  0.00000000000E+00 0.  1.
         14    1    4    4    0    0  0.33358792052E+02 -0.20435422908E+02 -0.13085577123E+03  0.13657835985E+03  0.00000000000E+00 0. -1.
         -5    1    5    5    0  502  0.48022708667E+02  0.76823208207E+01 -0.28089660595E+01  0.48940564884E+02  0.47000000000E+01 0.  1.
         13    1    6    6    0    0 -0.20063382323E+02 -0.79282243964E+01  0.30287809310E+02  0.37185312223E+02  0.00000000000E+00 0. -1.
        -14    1    6    6    0    0 -0.89620354548E+02  0.12279337120E+01 -0.38289944006E+02  0.97465048004E+02  0.00000000000E+00 0.  1.
</event>
<event>
12    1  0.9028446E-003  0.1902452E+03  0.7818608E-02  0.1158717E+00
         21   -1    0    0  503  502  0.00000000000E+00  0.00000000000E+00  0.26021918210E+02  0.26021918210E+02  0.00000000000E+00 0. -1.
         21   -1    0    0  501  503 -0.00000000000E+00 -0.00000000000E+00 -0.14484093895E+04  0.14484093895E+04  0.00000000000E+00 0. -1.
          6    2    1    2  501    0 -0.31628612003E+01  0.81441380658E+02 -0.54957846233E+03  0.58157522025E+03  0.17190272942E+03 0.  0.
         24    2    3    3    0    0 -0.41227470747E+01  0.12910162368E+01 -0.43372603720E+03  0.44061821721E+03  0.77507897841E+02 0.  0.
         -6    2    1    2    0  502  0.31628612003E+01 -0.81441380658E+02 -0.87280900898E+03  0.89285608748E+03  0.16956923251E+03 0.  0.
        -24    2    5    5    0    0 -0.42150121870E+02 -0.10181481958E+03 -0.65708241072E+03  0.67143251456E+03  0.83195173333E+02 0.  0.
          5    1    3    3  501    0  0.95988587439E+00  0.80150364421E+02 -0.11585242513E+03  0.14095700304E+03  0.47000000000E+01 0. -1.
        -13    1    4    4    0    0 -0.40778930428E+02  0.27262280447E+01 -0.21894337299E+03  0.22272528833E+03  0.00000000000E+00 0.  1.
         14    1    4    4    0    0  0.36656183353E+02 -0.14352118079E+01 -0.21478266421E+03  0.21789292888E+03  0.00000000000E+00 0. -1.
         -5    1    5    5    0  502  0.45312983070E+02  0.20373438925E+02 -0.21572659826E+03  0.22142357292E+03  0.47000000000E+01 0.  1.
         13    1    6    6    0    0 -0.80832578536E+01  0.12281200070E+02 -0.33515664943E+02  0.36598725787E+02  0.00000000000E+00 0. -1.
        -14    1    6    6    0    0 -0.34066864016E+02 -0.11409601965E+03 -0.62356674578E+03  0.63483378877E+03  0.00000000000E+00 0.  1.
</event>
<event>
12    1  0.9028446E-003  0.2083284E+03  0.7818608E-02  0.1143856E+00
         21   -1    0    0  503  502  0.00000000000E+00  0.00000000000E+00  0.17771686853E+03  0.17771686853E+03  0.00000000000E+00 0.  1.
         21   -1    0    0  501  503 -0.00000000000E+00 -0.00000000000E+00 -0.24653685829E+03  0.24653685829E+03  0.00000000000E+00 0.  1.
          6    2    1    2  501    0 -0.16501011763E+01  0.11666861796E+03  0.38146888931E+01  0.20362617390E+03  0.16683757848E+03 0.  0.
         24    2    3    3    0    0  0.10209320830E+01  0.23010693160E+02  0.53315561290E+02  0.97553709678E+02  0.78381393801E+02 0.  0.
         -6    2    1    2    0  502  0.16501011763E+01 -0.11666861796E+03 -0.72634678652E+02  0.22062755292E+03  0.17258745990E+03 0.  0.
        -24    2    5    5    0    0 -0.31974644727E+02 -0.79118387227E+02 -0.10525527272E+03  0.16040433047E+03  0.85841596530E+02 0.  0.
          5    1    3    3  501    0 -0.26710332593E+01  0.93657924805E+02 -0.49500872397E+02  0.10607246422E+03  0.47000000000E+01 0. -1.
        -13    1    4    4    0    0  0.31783468994E+02 -0.12971449192E+02  0.21166398833E+02  0.40329441293E+02  0.00000000000E+00 0.  1.
         14    1    4    4    0    0 -0.30762536911E+02  0.35982142352E+02  0.32149162457E+02  0.57224268385E+02  0.00000000000E+00 0. -1.
         -5    1    5    5    0  502  0.33624745903E+02 -0.37550230738E+02  0.32620594066E+02  0.60223222454E+02  0.47000000000E+01 0.  1.
         13    1    6    6    0    0 -0.35632176800E+02 -0.42297978699E+01 -0.65892741471E+01  0.36482348435E+02  0.00000000000E+00 0. -1.
        -14    1    6    6    0    0  0.36575320739E+01 -0.74888589357E+02 -0.98665998570E+02  0.12392198203E+03  0.00000000000E+00 0.  1.
</event>
<event>
12    1  0.9028446E-003  0.1825467E+03  0.7818608E-02  0.1167016E+00
         21   -1    0    0  503  502  0.00000000000E+00  0.00000000000E+00  0.21716923395E+02  0.21716923395E+02  0.00000000000E+00 0. -1.
         21   -1    0    0  501  503 -0.00000000000E+00 -0.00000000000E+00 -0.18572987208E+04  0.18572987208E+04  0.00000000000E+00 0. -1.
          6    2    1    2  501    0 -0.73189805220E+01  0.33002452395E+02 -0.13564338995E+04  0.13686622019E+04  0.17938943592E+03 0.  0.
         24    2    3    3    0    0 -0.46282015600E+02  0.74306948612E+02 -0.10765659659E+04  0.10830535014E+04  0.79668440423E+02 0.  0.
         -6    2    1    2    0  502  0.73189805220E+01 -0.33002452395E+02 -0.47914789788E+03  0.51035344232E+03  0.17243897096E+03 0.  0.
        -24    2    5    5    0    0 -0.41284328056E+02 -0.33221850702E+01 -0.13886631428E+03  0.16530729177E+03  0.79543791796E+02 0.  0.
          5    1    3    3  501    0  0.38963035079E+02 -0.41304496216E+02 -0.27986793364E+03  0.28560870048E+03  0.47000000000E+01 0. -1.
        -13    1    4    4    0    0 -0.25481015924E+02 -0.65587553708E+01 -0.12002708502E+03  0.12287717682E+03  0.00000000000E+00 0.  1.
         14    1    4    4    0    0 -0.20800999676E+02  0.80865703983E+02 -0.95653888087E+03  0.96017632458E+03  0.00000000000E+00 0. -1.
         -5    1    5    5    0  502  0.48603308578E+02 -0.29680267325E+02 -0.34028158360E+03  0.34504615055E+03  0.47000000000E+01 0.  1.
         13    1    6    6    0    0  0.21298487750E+02  0.12894915571E+02 -0.42736604875E+02  0.49460305541E+02  0.00000000000E+00 0. -1.
        -14    1    6    6    0    0 -0.62582815807E+02 -0.16217100641E+02 -0.96129709403E+02  0.11584698623E+03  0.00000000000E+00 0.  1.
</event>
<event>
12    1  0.9028446E-003  0.2940847E+03  0.7818608E-02  0.1088319E+00
         21   -1    0    0  503  502  0.00000000000E+00  0.00000000000E+00  0.21039606426E+03  0.21039606426E+03  0.00000000000E+00 0. -1.
         21   -1    0    0  501  503 -0.00000000000E+00 -0.00000000000E+00 -0.43320524772E+03  0.43320524772E+03  0.00000000000E+00 0. -1.
          6    2    1    2  501    0 -0.12926348712E+03  0.20187914498E+03 -0.18575045146E+03  0.34783478456E+03  0.17035718021E+03 0.  0.
         24    2    3    3    0    0 -0.12277721647E+03  0.19734123675E+03 -0.10475657293E+03  0.26631937082E+03  0.77034142382E+02 0.  0.
         -6    2    1    2    0  502  0.12926348712E+03 -0.20187914498E+03 -0.37058732006E+02  0.29576652742E+03  0.16923430753E+03 0.  0.
        -24    2    5    5    0    0  0.76493035686E+02 -0.21007098235E+03 -0.16293647533E+02  0.23827648066E+03  0.80803441457E+02 0.  0.
          5    1    3    3  501    0 -0.64862706523E+01  0.45379082313E+01 -0.80993878529E+02  0.81515413741E+02  0.47000000000E+01 0. -1.
        -13    1    4    4    0    0 -0.19299959342E+02  0.96606779692E+02 -0.26277139130E+02  0.10196002331E+03  0.00000000000E+00 0.  1.
         14    1    4    4    0    0 -0.10347725713E+03  0.10073445706E+03 -0.78479433800E+02  0.16435934750E+03  0.00000000000E+00 0. -1.
         -5    1    5    5    0  502  0.52770451437E+02  0.81918373626E+01 -0.20765084473E+02  0.57490046769E+02  0.47000000000E+01 0.  1.
         13    1    6    6    0    0  0.93056115005E+02 -0.17610941126E+03 -0.67166934768E+01  0.19929646069E+03  0.00000000000E+00 0. -1.
        -14    1    6    6    0    0 -0.16563079319E+02 -0.33961571091E+02 -0.95769540566E+01  0.38980019965E+02  0.00000000000E+00 0.  1.
</event>
<event>
12    1  0.9028446E-003  0.1850411E+03  0.7818608E-02  0.1163557E+00
         21   -1    0    0  501  502  0.00000000000E+00  0.00000000000E+00  0.27021286211E+03  0.27021286211E+03  0.00000000000E+00 0. -1.
         21   -1    0    0  502  503 -0.00000000000E+00 -0.00000000000E+00 -0.12514024214E+03  0.12514024214E+03  0.00000000000E+00 0. -1.
          6    2    1    2  501    0 -0.53117142004E+02 -0.34405434160E+02  0.74760536947E+02  0.19957288219E+03  0.17388223816E+03 0.  0.
         24    2    3    3    0    0 -0.72423297044E+02 -0.80514191027E+02  0.50391124150E+02  0.14376335467E+03  0.80006048776E+02 0.  0.
         -6    2    1    2    0  503  0.53117142004E+02  0.34405434160E+02  0.70312083029E+02  0.19578022206E+03  0.17140869772E+03 0.  0.
        -24    2    5    5    0    0  0.84750749534E+02  0.60022685821E+02  0.80737416117E+02  0.15349894632E+03  0.79107419373E+02 0.  0.
          5    1    3    3  501    0  0.19306155040E+02  0.46108756867E+02  0.24369412797E+02  0.55809527523E+02  0.47000000000E+01 0. -1.
        -13    1    4    4    0    0 -0.30726108039E+02  0.10979017409E+02  0.21762001437E+02  0.39220112761E+02  0.00000000000E+00 0.  1.
         14    1    4    4    0    0 -0.41697189005E+02 -0.91493208436E+02  0.28629122713E+02  0.10454324191E+03  0.00000000000E+00 0. -1.
         -5    1    5    5    0  503 -0.31633607530E+02 -0.25617251662E+02 -0.10425333088E+02  0.42281275738E+02  0.47000000000E+01 0.  1.
         13    1    6    6    0    0  0.69102573743E+02  0.12255834748E+02  0.16790240525E+02  0.72161508854E+02  0.00000000000E+00 0. -1.
        -14    1    6    6    0    0  0.15648175792E+02  0.47766851073E+02  0.63947175592E+02  0.81337437465E+02  0.00000000000E+00 0.  1.
</event>
<event>
12    1  0.9028446E-003  0.2110470E+03  0.7818608E-02  0.1140952E+00
         21   -1    0    0  501  502  0.00000000000E+00  0.00000000000E+00  0.57594603426E+02  0.57594603426E+02  0.00000000000E+00 0. -1.
         21   -1    0    0  502  503 -0.00000000000E+00 -0.00000000000E+00 -0.92253227008E+03  0.92253227008E+03  0.00000000000E+00 0.  1.
          6    2    1    2  501    0 -0.11832725433E+03 -0.19996911933E+02 -0.23188446121E+03  0.31282094074E+03  0.17229428896E+03 0.  0.
         24    2    3    3    0    0  0.54302916693E+01 -0.85487324758E+01 -0.11130031955E+03  0.13958810255E+03  0.83633177315E+02 0.  0.
         -6    2    1    2    0  503  0.11832725433E+03  0.19996911933E+02 -0.63305320544E+03  0.66730593277E+03  0.17360769392E+03 0.  0.
        -24    2    5    5    0    0  0.95236739656E+02 -0.37617584059E+02 -0.54092849803E+03  0.55612295866E+03  0.78638323729E+02 0.  0.
          5    1    3    3  501    0 -0.12375754600E+03 -0.11448179457E+02 -0.12058414167E+03  0.17323283819E+03  0.47000000000E+01 0. -1.
        -11    1    4    4    0    0 -0.91292505161E+01  0.34472091783E+02 -0.68273142933E+02  0.77025258018E+02  0.00000000000E+00 0.  1.
         12    1    4    4    0    0  0.14559542185E+02 -0.43020824259E+02 -0.43027176615E+02  0.62562844532E+02  0.00000000000E+00 0. -1.
         -5    1    5    5    0  503  0.23090514673E+02  0.57614495992E+02 -0.92124707414E+02  0.11118297411E+03  0.47000000000E+01 0.  1.
         11    1    6    6    0    0  0.79327309118E+01 -0.12861105101E+02 -0.11540820260E+02  0.19013857484E+02  0.00000000000E+00 0. -1.
        -12    1    6    6    0    0  0.87304008744E+02 -0.24756478958E+02 -0.52938767777E+03  0.53710910117E+03  0.00000000000E+00 0.  1.
</event>
<event>
12    1  0.9028446E-003  0.1722749E+03  0.7818608E-02  0.1175544E+00
         21   -1    0    0  501  502  0.00000000000E+00  0.00000000000E+00  0.10168173282E+03  0.10168173282E+03  0.00000000000E+00 0.  1.
         21   -1    0    0  502  503 -0.00000000000E+00 -0.00000000000E+00 -0.50213375609E+03  0.50213375609E+03  0.00000000000E+00 0.  1.
          6    2    1    2  501    0  0.95209948759E+01  0.85451142351E+00 -0.46563254871E+01  0.17215257691E+03  0.17182388901E+03 0.  0.
         24    2    3    3    0    0  0.15176434795E+00  0.50223478138E+02 -0.46720765056E+02  0.10645185826E+03  0.81404836772E+02 0.  0.
         -6    2    1    2    0  503 -0.95209948759E+01 -0.85451142351E+00 -0.39579569779E+03  0.43166291200E+03  0.17200946392E+03 0.  0.
        -24    2    5    5    0    0 -0.62967555747E+02  0.25470463396E+02 -0.30547610606E+03  0.32336121387E+03  0.81444248905E+02 0.  0.
          5    1    3    3  501    0  0.93692305280E+01 -0.49368966714E+02  0.42064439569E+02  0.65700718652E+02  0.47000000000E+01 0. -1.
        -11    1    4    4    0    0  0.30318841681E+02  0.40496506524E+02 -0.72661175442E+00  0.50593746315E+02  0.00000000000E+00 0.  1.
         12    1    4    4    0    0 -0.30167077333E+02  0.97269716141E+01 -0.45994153302E+02  0.55858111940E+02  0.00000000000E+00 0. -1.
         -5    1    5    5    0  503  0.53446560871E+02 -0.26324974820E+02 -0.90319591725E+02  0.10830169813E+03  0.47000000000E+01 0.  1.
         13    1    6    6    0    0  0.14931567540E+02  0.42754807485E+00 -0.13493364317E+02  0.20129714035E+02  0.00000000000E+00 0. -1.
        -14    1    6    6    0    0 -0.77899123287E+02  0.25042915322E+02 -0.29198274174E+03  0.30323149984E+03  0.00000000000E+00 0.  1.
</event>
<event>
12    1  0.9028446E-003  0.2045818E+03  0.7818608E-02  0.1146319E+00
         21   -1    0    0  503  502  0.00000000000E+00  0.00000000000E+00  0.17168803467E+03  0.17168803467E+03  0.00000000000E+00 0.  1.
         21   -1    0    0  501  503 -0.00000000000E+00 -0.00000000000E+00 -0.13838294416E+04  0.13838294416E+04  0.00000000000E+00 0.  1.
          6    2    1    2  501    0 -0.82531038376E+02 -0.75508034272E+02 -0.13131940846E+04  0.13290344003E+04  0.17129184953E+03 0.  0.
         24    2    3    3    0    0 -0.11082811908E+03 -0.72725563362E+02 -0.78687470914E+03  0.80192659165E+03  0.79640259648E+02 0.  0.
         -6    2    1    2    0  502  0.82531038376E+02  0.75508034272E+02  0.10105267768E+03  0.22648307599E+03  0.16902693428E+03 0.  0.
        -24    2    5    5    0    0  0.84645656097E+02  0.11517066958E+03  0.82065298492E+02  0.18220885307E+03  0.77692874136E+02 0.  0.
          5    1    3    3  501    0  0.28297080703E+02 -0.27824709108E+01 -0.52631937546E+03  0.52710780862E+03  0.47000000000E+01 0. -1.
        -13    1    4    4    0    0 -0.24379448788E+02 -0.62953205480E+02 -0.32729401599E+03  0.33418383640E+03  0.00000000000E+00 0.  1.
         14    1    4    4    0    0 -0.86448670291E+02 -0.97723578812E+01 -0.45958069315E+03  0.46774275525E+03  0.00000000000E+00 0. -1.
         -5    1    5    5    0  502 -0.21146177211E+01 -0.39662635307E+02  0.18987379184E+02  0.44274222928E+02  0.47000000000E+01 0.  1.
         11    1    6    6    0    0  0.47414692915E+02  0.11572640318E+02  0.78255039830E+01  0.49429926368E+02  0.00000000000E+00 0. -1.
        -12    1    6    6    0    0  0.37230963181E+02  0.10359802926E+03  0.74239794509E+02  0.13277892670E+03  0.00000000000E+00 0.  1.
</event>
<event>
12    1  0.9028446E-003  0.2379208E+03  0.7818608E-02  0.1121257E+00
         21   -1    0    0  503  502  0.00000000000E+00  0.00000000000E+00  0.94811297714E+02  0.94811297714E+02  0.00000000000E+00 0.  1.
         21   -1    0    0  501  503 -0.00000000000E+00 -0.00000000000E+00 -0.63000839306E+03  0.63000839306E+03  0.00000000000E+00 0.  1.
          6    2    1    2  501    0  0.42722666405E+02 -0.15850129149E+03 -0.35160395406E+03  0.42429888961E+03  0.17162844049E+03 0.  0.
         24    2    3    3    0    0 -0.43026497594E+02 -0.75255702144E+02 -0.20019027402E+03  0.23134568343E+03  0.77006358368E+02 0.  0.
         -6    2    1    2    0  502 -0.42722666405E+02  0.15850129149E+03 -0.18359314129E+03  0.30052080117E+03  0.17221621520E+03 0.  0.
        -24    2    5    5    0    0  0.76367230877E+01  0.24728647469E+02 -0.11445557721E+03  0.14167093127E+03  0.79377251580E+02 0.  0.
          5    1    3    3  501    0  0.85749163999E+02 -0.83245589345E+02 -0.15141368004E+03  0.19295320618E+03  0.47000000000E+01 0. -1.
        -13    1    4    4    0    0 -0.54821632639E+02 -0.76110286497E+02 -0.13080636493E+03  0.16096115128E+03  0.00000000000E+00 0.  1.
         14    1    4    4    0    0  0.11795135045E+02  0.85458435273E+00 -0.69383909087E+02  0.70384532145E+02  0.00000000000E+00 0. -1.
         -5    1    5    5    0  502 -0.50359389493E+02  0.13377264402E+03 -0.69137564079E+02  0.15884986989E+03  0.47000000000E+01 0.  1.
         13    1    6    6    0    0 -0.10175552771E+02 -0.20365895000E+02 -0.70567944617E+01  0.23835056144E+02  0.00000000000E+00 0. -1.
        -14    1    6    6    0    0  0.17812275858E+02  0.45094542469E+02 -0.10739878275E+03  0.11783587513E+03  0.00000000000E+00 0.  1.
</event>
<event>
12    1  0.9028446E-003  0.2583301E+03  0.7818608E-02  0.1109887E+00
         21   -1    0    0  501  502  0.00000000000E+00  0.00000000000E+00  0.74238762864E+03  0.74238762864E+03  0.00000000000E+00 0.  1.
         21   -1    0    0  502  503 -0.00000000000E+00 -0.00000000000E+00 -0.88438841132E+02  0.88438841132E+02  0.00000000000E+00 0. -1.
          6    2    1    2  501    0  0.17702459589E+03 -0.24184224611E+02  0.38835974471E+03  0.46032411008E+03  0.17074077059E+03 0.  0.
         24    2    3    3    0    0  0.71235692720E+02  0.62166005547E+01  0.81114445359E+02  0.13392364106E+03  0.79011507700E+02 0.  0.
         -6    2    1    2    0  503 -0.17702459589E+03  0.24184224611E+02  0.26558904280E+03  0.37050235970E+03  0.18657940565E+03 0.  0.
        -24    2    5    5    0    0 -0.11657706020E+03 -0.53744227228E+02  0.20548808560E+03  0.25491272679E+03  0.79224314657E+02 0.  0.
          5    1    3    3  501    0  0.10578890317E+03 -0.30400825166E+02  0.30724529935E+03  0.32640046902E+03  0.47000000000E+01 0. -1.
        -13    1    4    4    0    0  0.27171630416E+02  0.41733814962E+02  0.41733745256E+02  0.64974720498E+02  0.00000000000E+00 0.  1.
         14    1    4    4    0    0  0.44064062305E+02 -0.35517214407E+02  0.39380700103E+02  0.68948920562E+02  0.00000000000E+00 0. -1.
         -5    1    5    5    0  503 -0.60447535696E+02  0.77928451839E+02  0.60100957200E+02  0.11558963290E+03  0.47000000000E+01 0.  1.
         13    1    6    6    0    0 -0.45750449748E+02  0.12394819386E+02  0.35414873793E+02  0.59168813454E+02  0.00000000000E+00 0. -1.
        -14    1    6    6    0    0 -0.70826610447E+02 -0.66139046614E+02  0.17007321181E+03  0.19574391334E+03  0.00000000000E+00 0.  1.
</event>
<event>
12    1  0.9028446E-003  0.2886285E+03  0.7818608E-02  0.1091273E+00
         21   -1    0    0  501  502  0.00000000000E+00  0.00000000000E+00  0.50097421797E+03  0.50097421797E+03  0.00000000000E+00 0.  1.
         21   -1    0    0  502  503 -0.00000000000E+00 -0.00000000000E+00 -0.16993489690E+03  0.16993489690E+03  0.00000000000E+00 0. -1.
          6    2    1    2  501    0  0.85362224241E+02  0.21169453594E+03  0.21992757633E+03  0.36163214475E+03  0.17409303090E+03 0.  0.
         24    2    3    3    0    0  0.68986996717E+02  0.97747090783E+02  0.19384956430E+03  0.24350373560E+03  0.86039038826E+02 0.  0.
         -6    2    1    2    0  503 -0.85362224241E+02 -0.21169453594E+03  0.11111174475E+03  0.30927697012E+03  0.17664976238E+03 0.  0.
        -24    2    5    5    0    0 -0.41143421742E+02 -0.11118821210E+03  0.13618259786E+03  0.19654959411E+03  0.77655929069E+02 0.  0.
          5    1    3    3  501    0  0.16375227524E+02  0.11394744516E+03  0.26078012031E+02  0.11812840914E+03  0.47000000000E+01 0. -1.
        -13    1    4    4    0    0 -0.25547557495E+01  0.47459310966E+02  0.11991352151E+03  0.12898901355E+03  0.00000000000E+00 0.  1.
         14    1    4    4    0    0  0.71541752467E+02  0.50287779817E+02  0.73936042783E+02  0.11451472205E+03  0.00000000000E+00 0. -1.
         -5    1    5    5    0  503 -0.44218802499E+02 -0.10050632385E+03 -0.25070853116E+02  0.11272737602E+03  0.47000000000E+01 0.  1.
         11    1    6    6    0    0  0.21330589347E+01  0.10923116283E+02  0.50771059693E+01  0.12232800774E+02  0.00000000000E+00 0. -1.
        -12    1    6    6    0    0 -0.43276480677E+02 -0.12211132838E+03  0.13110549190E+03  0.18431679333E+03  0.00000000000E+00 0.  1.
</event>
<event>
12    1  0.9028446E-003  0.1777323E+03  0.7818608E-02  0.1170406E+00
         21   -1    0    0  501  502  0.00000000000E+00  0.00000000000E+00  0.63200734350E+03  0.63200734350E+03  0.00000000000E+00 0.  1.
         21   -1    0    0  502  503 -0.00000000000E+00 -0.00000000000E+00 -0.49582450939E+02  0.49582450939E+02  0.00000000000E+00 0.  1.
          6    2    1    2  501    0 -0.43463183155E+02 -0.39423542381E-01  0.30265075612E+03  0.35097900528E+03  0.17233610220E+03 0.  0.
         24    2    3    3    0    0 -0.79572151532E+02 -0.36944595924E+02  0.26167283658E+03  0.28489474667E+03  0.70680356601E+02 0.  0.
         -6    2    1    2    0  503  0.43463183155E+02  0.39423542381E-01  0.27977413644E+03  0.33061078916E+03  0.17070699061E+03 0.  0.
        -24    2    5    5    0    0  0.41998821521E+02  0.62884176091E+02  0.15938735845E+03  0.19471864960E+03  0.82417849148E+02 0.  0.
          5    1    3    3  501    0  0.36108968377E+02  0.36905172382E+02  0.40977919536E+02  0.66084258604E+02  0.47000000000E+01 0. -1.
        -13    1    4    4    0    0  0.10341935333E+02  0.65035350885E+01  0.38664539173E+02  0.40548713722E+02  0.00000000000E+00 0.  1.
         14    1    4    4    0    0 -0.89914086865E+02 -0.43448131013E+02  0.22300829741E+03  0.24434603295E+03  0.00000000000E+00 0. -1.
         -5    1    5    5    0  503  0.14643616339E+01 -0.62844752549E+02  0.12038677800E+03  0.13589213956E+03  0.47000000000E+01 0.  1.
         13    1    6    6    0    0 -0.88730082823E+01  0.34695764004E+02  0.11805705621E+03  0.12336934318E+03  0.00000000000E+00 0. -1.
        -14    1    6    6    0    0  0.50871829803E+02  0.28188412088E+02  0.41330302232E+02  0.71349306416E+02  0.00000000000E+00 0.  1.
</event>
<event>
12    1  0.9028446E-003  0.1807733E+03  0.7818608E-02  0.1167069E+00
         21   -1    0    0  503  502  0.00000000000E+00  0.00000000000E+00  0.12453364040E+04  0.12453364040E+04  0.00000000000E+00 0.  1.
         21   -1    0    0  501  503 -0.00000000000E+00 -0.00000000000E+00 -0.41087871509E+02  0.41087871509E+02  0.00000000000E+00 0.  1.
          6    2    1    2  501    0  0.45982967723E+02  0.31866179856E+02  0.21532872574E+03  0.28111766970E+03  0.17184527154E+03 0.  0.
         24    2    3    3    0    0  0.14502044057E+02  0.77053442723E+02  0.19175307851E+03  0.22102741739E+03  0.77047607386E+02 0.  0.
         -6    2    1    2    0  502 -0.45982967723E+02 -0.31866179856E+02  0.98891980671E+03  0.10053066058E+04  0.17189851876E+03 0.  0.
        -24    2    5    5    0    0  0.39586511447E+02 -0.28494078502E+02  0.46220392634E+03  0.47165389523E+03  0.80286505457E+02 0.  0.
          5    1    3    3  501    0  0.31480923666E+02 -0.45187262867E+02  0.23575647228E+02  0.60090252308E+02  0.47000000000E+01 0. -1.
        -11    1    4    4    0    0  0.82845330566E-01  0.90281195420E+02  0.15432226244E+03  0.17879055287E+03  0.00000000000E+00 0.  1.
         12    1    4    4    0    0  0.14419198726E+02 -0.13227752697E+02  0.37430816073E+02  0.42236864528E+02  0.00000000000E+00 0. -1.
         -5    1    5    5    0  502 -0.85569479169E+02 -0.33721013545E+01  0.52671588037E+03  0.53365271054E+03  0.47000000000E+01 0.  1.
         11    1    6    6    0    0  0.37272573921E+02 -0.29111323436E+02  0.46532370017E+03  0.46772092092E+03  0.00000000000E+00 0. -1.
        -12    1    6    6    0    0  0.23139375252E+01  0.61724493424E+00 -0.31197738311E+01  0.39329743117E+01  0.00000000000E+00 0.  1.
</event>
<event>
12    1  0.9028446E-003  0.2049671E+03  0.7818608E-02  0.1145852E+00
         21   -1    0    0  501  502  0.00000000000E+00  0.00000000000E+00  0.54696390375E+02  0.54696390375E+02  0.00000000000E+00 0. -1.
         21   -1    0    0  502  503 -0.00000000000E+00 -0.00000000000E+00 -0.82442424755E+03  0.82442424755E+03  0.00000000000E+00 0. -1.
          6    2    1    2  501    0 -0.10758583174E+03  0.22534773980E+02 -0.26460339816E+03  0.33399475716E+03  0.17162462604E+03 0.  0.
         24    2    3    3    0    0 -0.50444589607E+02 -0.52419428735E+02 -0.15750348660E+03  0.19125115795E+03  0.80481078521E+02 0.  0.
         -6    2    1    2    0  503  0.10758583174E+03 -0.22534773980E+02 -0.50512445902E+03  0.54512588077E+03  0.17299994091E+03 0.  0.
        -24    2    5    5    0    0  0.70991998001E+02  0.37206164683E+02 -0.42079714453E+03  0.43539314003E+03  0.77928089128E+02 0.  0.
          5    1    3    3  501    0 -0.57141242129E+02  0.74954202715E+02 -0.10709991156E+03  0.14274359920E+03  0.47000000000E+01 0. -1.
        -11    1    4    4    0    0 -0.43799842651E+02 -0.67891067189E+01 -0.13048431765E+03  0.13780665927E+03  0.00000000000E+00 0.  1.
         12    1    4    4    0    0 -0.66447469556E+01 -0.45630322016E+02 -0.27019168947E+02  0.53444498688E+02  0.00000000000E+00 0. -1.
         -5    1    5    5    0  503  0.36593833735E+02 -0.59740938664E+02 -0.84327314493E+02  0.10973274074E+03  0.47000000000E+01 0.  1.
         11    1    6    6    0    0  0.49954290500E+02  0.56585450448E+02 -0.22044006456E+03  0.23300464889E+03  0.00000000000E+00 0. -1.
        -12    1    6    6    0    0  0.21037707501E+02 -0.19379285765E+02 -0.20035707997E+03  0.20238849115E+03  0.00000000000E+00 0.  1.
</event>
<event>
12    1  0.9028446E-003  0.2058440E+03  0.7818608E-02  0.1148650E+00
         21   -1    0    0  501  502  0.00000000000E+00  0.00000000000E+00  0.38967836310E+02  0.38967836310E+02  0.00000000000E+00 0. -1.
         21   -1    0    0  502  503 -0.00000000000E+00 -0.00000000000E+00 -0.10131124063E+04  0.10131124063E+04  0.00000000000E+00 0. -1.
          6    2    1    2  501    0 -0.77890804410E+02  0.16299039591E+01 -0.44093747169E+03  0.48661852306E+03  0.19053109733E+03 0.  0.
         24    2    3    3    0    0 -0.70746391314E+02  0.72887402919E+02 -0.32973571598E+03  0.35426825193E+03  0.80391084977E+02 0.  0.
         -6    2    1    2    0  503  0.77890804410E+02 -0.16299039591E+01 -0.53320709828E+03  0.56546171953E+03  0.17136952061E+03 0.  0.
        -24    2    5    5    0    0  0.84922853170E+02 -0.57828424557E+02 -0.38440181475E+03  0.40617322077E+03  0.81583775453E+02 0.  0.
          5    1    3    3  501    0 -0.71444130959E+01 -0.71257498959E+02 -0.11120175571E+03  0.13235027114E+03  0.47000000000E+01 0. -1.
        -11    1    4    4    0    0 -0.24262350291E+02  0.53909551192E+02 -0.26922643061E+03  0.27564065790E+03  0.00000000000E+00 0.  1.
         12    1    4    4    0    0 -0.46484041023E+02  0.18977851726E+02 -0.60509285370E+02  0.78627594024E+02  0.00000000000E+00 0. -1.
         -5    1    5    5    0  503 -0.70320487600E+01  0.56198520598E+02 -0.14880528354E+03  0.15928849876E+03  0.47000000000E+01 0.  1.
         11    1    6    6    0    0  0.99926941998E+02 -0.46526880362E+02 -0.29748712614E+03  0.31725184720E+03  0.00000000000E+00 0. -1.
        -12    1    6    6    0    0 -0.15004088828E+02 -0.11301544195E+02 -0.86914688606E+02  0.88921373574E+02  0.00000000000E+00 0.  1.
</event>
<event>
12    1  0.9028446E-003  0.1836670E+03  0.7818608E-02  0.1164477E+00
         21   -1    0    0  501  502  0.00000000000E+00  0.00000000000E+00  0.64389508634E+02  0.64389508634E+02  0.00000000000E+00 0.  1.
         21   -1    0    0  502  503 -0.00000000000E+00 -0.00000000000E+00 -0.62526638287E+03  0.62526638287E+03  0.00000000000E+00 0. -1.
          6    2    1    2  501    0 -0.51440095489E+02  0.35794088957E+02 -0.14062553604E+03  0.23132038874E+03  0.17264495541E+03 0.  0.
         24    2    3    3    0    0  0.62291783787E+00  0.76337471832E+02 -0.11470800739E+03  0.16027018435E+03  0.81858459553E+02 0.  0.
         -6    2    1    2    0  503  0.51440095489E+02 -0.35794088957E+02 -0.42025133820E+03  0.45833550277E+03  0.17185152201E+03 0.  0.
        -24    2    5    5    0    0  0.16982910318E+02 -0.39198664493E+02 -0.98788983885E+02  0.13497962455E+03  0.81457235188E+02 0.  0.
          5    1    3    3  501    0 -0.52063013327E+02 -0.40543382875E+02 -0.25917528656E+02  0.71050204386E+02  0.47000000000E+01 0. -1.
        -11    1    4    4    0    0 -0.23723599510E+02  0.50720759962E+02 -0.20462550007E+02  0.59616445865E+02  0.00000000000E+00 0.  1.
         12    1    4    4    0    0  0.24346517348E+02  0.25616711870E+02 -0.94245457381E+02  0.10065373848E+03  0.00000000000E+00 0. -1.
         -5    1    5    5    0  503  0.34457185171E+02  0.34045755356E+01 -0.32146235431E+03  0.32335587823E+03  0.47000000000E+01 0.  1.
         11    1    6    6    0    0  0.32796029367E+02  0.14437569085E+02 -0.34004817817E+02  0.49399904637E+02  0.00000000000E+00 0. -1.
        -12    1    6    6    0    0 -0.15813119050E+02 -0.53636233578E+02 -0.64784166067E+02  0.85579719908E+02  0.00000000000E+00 0.  1.
</event>
<event>
12    1  0.9028446E-003  0.1745390E+03  0.7818608E-02  0.1174108E+00
         21   -1    0    0  503  502  0.00000000000E+00  0.00000000000E+00  0.10230357431E+03  0.10230357431E+03  0.00000000000E+00 0.  1.
         21   -1    0    0  501  503 -0.00000000000E+00 -0.00000000000E+00 -0.33746220811E+03  0.33746220811E+03  0.00000000000E+00 0.  1.
          6    2    1    2  501    0 -0.92371498468E+00  0.24415072632E+02 -0.19749467712E+03  0.26120926165E+03  0.16920160123E+03 0.  0.
         24    2    3    3    0    0  0.46296350899E+02  0.23286056289E+02 -0.19008133492E+03  0.21316702042E+03  0.81385945869E+02 0.  0.
         -6    2    1    2    0  502  0.92371498468E+00 -0.24415072632E+02 -0.37663956671E+02  0.17855652077E+03  0.17282045150E+03 0.  0.
        -24    2    5    5    0    0 -0.22324977466E+02 -0.56438871178E+02 -0.75159518383E+02  0.12383876750E+03  0.77481199880E+02 0.  0.
          5    1    3    3  501    0 -0.47220065883E+02  0.11290163432E+01 -0.74133422039E+01  0.48042241232E+02  0.47000000000E+01 0. -1.
        -11    1    4    4    0    0 -0.15302094452E+02  0.30454171973E+02 -0.76777724264E+02  0.84002557272E+02  0.00000000000E+00 0.  1.
         12    1    4    4    0    0  0.61598445350E+02 -0.71681156839E+01 -0.11330361066E+03  0.12916446315E+03  0.00000000000E+00 0. -1.
         -5    1    5    5    0  502  0.23248692451E+02  0.32023798546E+02  0.37495561712E+02  0.54717753262E+02  0.47000000000E+01 0.  1.
         11    1    6    6    0    0  0.20107893022E+02 -0.42703335552E+02 -0.60825892254E+02  0.76991502113E+02  0.00000000000E+00 0. -1.
        -12    1    6    6    0    0 -0.42432870487E+02 -0.13735535626E+02 -0.14333626129E+02  0.46847265392E+02  0.00000000000E+00 0.  1.
</event>
<event>
12    1  0.9028446E-003  0.2262834E+03  0.7818608E-02  0.1130357E+00
         21   -1    0    0  501  502  0.00000000000E+00  0.00000000000E+00  0.26218934140E+03  0.26218934140E+03  0.00000000000E+00 0. -1.
         21   -1    0    0  502  503 -0.00000000000E+00 -0.00000000000E+00 -0.27107888700E+03  0.27107888700E+03  0.00000000000E+00 0.  1.
          6    2    1    2  501    0  0.30373928678E+02 -0.13089138421E+03  0.14110738718E+03  0.26667486377E+03  0.18206882833E+03 0.  0.
         24    2    3    3    0    0  0.65528873668E+02 -0.62509382352E+02  0.18596481345E+02  0.12195796641E+03  0.79539048810E+02 0.  0.
         -6    2    1    2    0  503 -0.30373928678E+02  0.13089138421E+03 -0.14999693277E+03  0.26659336463E+03  0.17469348076E+03 0.  0.
        -24    2    5    5    0    0 -0.41001133125E+01  0.21785193223E+02 -0.73495393410E+01  0.85031135248E+02  0.81761070567E+02 0.  0.
          5    1    3    3  501    0 -0.35154944991E+02 -0.68382001857E+02  0.12251090583E+03  0.14471689736E+03  0.47000000000E+01 0. -1.
        -13    1    4    4    0    0  0.84218222614E+02 -0.50389136070E+02  0.17213149836E+02  0.99639683768E+02  0.00000000000E+00 0.  1.
         14    1    4    4    0    0 -0.18689348945E+02 -0.12120246282E+02  0.13833315093E+01  0.22318282640E+02  0.00000000000E+00 0. -1.
         -5    1    5    5    0  503 -0.26273815365E+02  0.10910619099E+03 -0.14264739343E+03  0.18156222938E+03  0.47000000000E+01 0.  1.
         11    1    6    6    0    0  0.11107099439E+02 -0.22748961760E+02 -0.24223826235E+02  0.35038217372E+02  0.00000000000E+00 0. -1.
        -12    1    6    6    0    0 -0.15207212752E+02  0.44534154982E+02  0.16874286894E+02  0.49992917877E+02  0.00000000000E+00 0.  1.
</event>
<event>
12    1  0.9028446E-003  0.2567703E+03  0.7818608E-02  0.1109155E+00
         21   -1    0    0  503  502  0.00000000000E+00  0.00000000000E+00  0.36917092099E+03  0.36917092099E+03  0.00000000000E+00 0. -1.
         21   -1    0    0  501  503 -0.00000000000E+00 -0.00000000000E+00 -0.18150026350E+03  0.18150026350E+03  0.00000000000E+00 0. -1.
          6    2    1    2  501    0  0.15459487822E+03  0.11209280860E+03  0.13010317824E+03  0.28752673815E+03  0.17111520695E+03 0.  0.
         24    2    3    3    0    0  0.77204642944E+02  0.11687871436E+03  0.35408914514E+02  0.16504716029E+03  0.79784604585E+02 0.  0.
         -6    2    1    2    0  502 -0.15459487822E+03 -0.11209280860E+03  0.57567479252E+02  0.26314444634E+03  0.17165841330E+03 0.  0.
        -24    2    5    5    0    0 -0.68185790685E+01 -0.41733238703E+02  0.31472406288E+01  0.90598927589E+02  0.80063127116E+02 0.  0.
          5    1    3    3  501    0  0.77390235280E+02 -0.47859057600E+01  0.94694263728E+02  0.12247957786E+03  0.47000000000E+01 0. -1.
        -13    1    4    4    0    0  0.37919944498E+02  0.13933626272E+02 -0.16008060019E+02  0.43454874495E+02  0.00000000000E+00 0.  1.
         14    1    4    4    0    0  0.39284698445E+02  0.10294508809E+03  0.51416974533E+02  0.12159228579E+03  0.00000000000E+00 0. -1.
         -5    1    5    5    0  502 -0.14777629915E+03 -0.70359569902E+02  0.54420238623E+02  0.17254551875E+03  0.47000000000E+01 0.  1.
         13    1    6    6    0    0 -0.15742656100E+02  0.69246144476E+01 -0.27478482345E+02  0.32416793461E+02  0.00000000000E+00 0. -1.
        -14    1    6    6    0    0  0.89240770313E+01 -0.48657853150E+02  0.30625722974E+02  0.58182134128E+02  0.00000000000E+00 0.  1.
</event>
<event>
12    1  0.9028446E-003  0.2102896E+03  0.7818608E-02  0.1141387E+00
         21   -1    0    0  501  502  0.00000000000E+00  0.00000000000E+00  0.56206734497E+02  0.56206734497E+02  0.00000000000E+00 0.  1.
         21   -1    0    0  502  503 -0.00000000000E+00 -0.00000000000E+00 -0.78609765323E+03  0.78609765323E+03  0.00000000000E+00 0. -1.
          6    2    1    2  501    0  0.98774170086E+02  0.69797577397E+02 -0.37258522195E+03  0.42770932394E+03  0.17171918846E+03 0.  0.
         24    2    3    3    0    0  0.75430638868E+02  0.95033247805E+02 -0.17532849802E+03  0.22742436533E+03  0.79124334187E+02 0.  0.
         -6    2    1    2    0  503 -0.98774170086E+02 -0.69797577397E+02 -0.35730569679E+03  0.41459506379E+03  0.17202810082E+03 0.  0.
        -24    2    5    5    0    0 -0.90895177592E+02 -0.57433409009E+02 -0.37068160821E+03  0.39420005976E+03  0.80176696552E+02 0.  0.
          5    1    3    3  501    0  0.23343531218E+02 -0.25235670408E+02 -0.19725672393E+03  0.20028495861E+03  0.47000000000E+01 0. -1.
        -13    1    4    4    0    0  0.92001314896E+02  0.80641520685E+02 -0.14097272759E+03  0.18665638678E+03  0.00000000000E+00 0.  1.
         14    1    4    4    0    0 -0.16570676028E+02  0.14391727119E+02 -0.34355770435E+02  0.40767978558E+02  0.00000000000E+00 0. -1.
         -5    1    5    5    0  503 -0.78789924942E+01 -0.12364168387E+02  0.13375911426E+02  0.20395004023E+02  0.47000000000E+01 0.  1.
         11    1    6    6    0    0 -0.42212319877E+02 -0.71538711444E+02 -0.21570333782E+03  0.23114410469E+03  0.00000000000E+00 0. -1.
        -12    1    6    6    0    0 -0.48682857715E+02  0.14105302435E+02 -0.15497827039E+03  0.16305595508E+03  0.00000000000E+00 0.  1.
</event>
<event>
12    1  0.9028446E-003  0.1809581E+03  0.7818608E-02  0.1167802E+00
         21   -1    0    0  501  502  0.00000000000E+00  0.00000000000E+00  0.49171553972E+02  0.49171553972E+02  0.00000000000E+00 0. -1.
         21   -1    0    0  502  503 -0.00000000000E+00 -0.00000000000E+00 -0.73457453993E+03  0.73457453993E+03  0.00000000000E+00 0. -1.
          6    2    1    2  501    0  0.85805010532E+00 -0.40600309995E+02 -0.21458139781E+03  0.28069737719E+03  0.17634262063E+03 0.  0.
         24    2    3    3    0    0  0.61593735001E+02  0.90619942963E+01 -0.10736181085E+03  0.14775642144E+03  0.80184123837E+02 0.  0.
         -6    2    1    2    0  503 -0.85805010532E+00  0.40600309995E+02 -0.47082158814E+03  0.50304871671E+03  0.17244106849E+03 0.  0.
        -24    2    5    5    0    0 -0.87407265880E+01 -0.38532836071E+02 -0.27714304696E+03  0.29362651467E+03  0.88583756298E+02 0.  0.
          5    1    3    3  501    0 -0.60735684896E+02 -0.49662304291E+02 -0.10721958696E+03  0.13294095575E+03  0.47000000000E+01 0. -1.
        -13    1    4    4    0    0  0.57665689512E+01  0.16532134668E+02 -0.85602488223E+02  0.87374772012E+02  0.00000000000E+00 0.  1.
         14    1    4    4    0    0  0.55827166050E+02 -0.74701403720E+01 -0.21759322627E+02  0.60381649427E+02  0.00000000000E+00 0. -1.
         -5    1    5    5    0  503  0.78826764827E+01  0.79133146066E+02 -0.19367854118E+03  0.20942220205E+03  0.47000000000E+01 0.  1.
         13    1    6    6    0    0 -0.24944562029E+00  0.10375737805E+02 -0.20932558356E+03  0.20958272374E+03  0.00000000000E+00 0. -1.
        -14    1    6    6    0    0 -0.84912809677E+01 -0.48908573877E+02 -0.67817463402E+02  0.84043790927E+02  0.00000000000E+00 0.  1.
</event>
<event>
12    1  0.9028446E-003  0.1816634E+03  0.7818608E-02  0.1166204E+00
         21   -1    0    0  501  502  0.00000000000E+00  0.00000000000E+00  0.11394833973E+03  0.11394833973E+03  0.00000000000E+00 0.  1.
         21   -1    0    0  502  503 -0.00000000000E+00 -0.00000000000E+00 -0.32682545750E+03  0.32682545750E+03  0.00000000000E+00 0.  1.
          6    2    1    2  501    0  0.39952376444E+02  0.41667866379E+02 -0.32070786405E+02  0.18447258514E+03  0.17224748432E+03 0.  0.
         24    2    3    3    0    0  0.43212858510E+02 -0.94160752504E+01  0.34639976731E+02  0.10025491625E+03  0.83036778778E+02 0.  0.
         -6    2    1    2    0  503 -0.39952376444E+02 -0.41667866379E+02 -0.18080633136E+03  0.25630121209E+03  0.17224104734E+03 0.  0.
        -24    2    5    5    0    0 -0.29642084969E+02 -0.94144831489E+02 -0.14181035932E+03  0.18994678637E+03  0.78915785147E+02 0.  0.
          5    1    3    3  501    0 -0.32604820660E+01  0.51083941629E+02 -0.66710763136E+02  0.84217668893E+02  0.47000000000E+01 0. -1.
        -13    1    4    4    0    0 -0.19582399418E+02  0.10942016758E+02  0.24921911201E+02  0.33530579411E+02  0.00000000000E+00 0.  1.
         14    1    4    4    0    0  0.62795257928E+02 -0.20358092008E+02  0.97180655294E+01  0.66724336835E+02  0.00000000000E+00 0. -1.
         -5    1    5    5    0  503 -0.10310291475E+02  0.52476965111E+02 -0.38995972041E+02  0.66354425723E+02  0.47000000000E+01 0.  1.
         13    1    6    6    0    0  0.11246987947E+02 -0.27277682346E+02 -0.18853361368E+01  0.29565540489E+02  0.00000000000E+00 0. -1.
        -14    1    6    6    0    0 -0.40889072917E+02 -0.66867149143E+02 -0.13992502318E+03  0.16038124588E+03  0.00000000000E+00 0.  1.
</event>
<event>
12    1  0.9028446E-003  0.2133053E+03  0.7818608E-02  0.1139705E+00
         21   -1    0    0  501  502  0.00000000000E+00  0.00000000000E+00  0.13517541230E+03  0.13517541230E+03  0.00000000000E+00 0.  1.
         21   -1    0    0  502  503 -0.00000000000E+00 -0.00000000000E+00 -0.34930833565E+03  0.34930833565E+03  0.00000000000E+00 0.  1.
          6    2    1    2  501    0 -0.10710984132E+03  0.57111312947E+02 -0.52111883767E+02  0.21957864239E+03  0.17539929187E+03 0.  0.
         24    2    3    3    0    0 -0.91750301159E+02 -0.10763429938E+02 -0.76744623883E+02  0.14560730955E+03  0.82327286567E+02 0.  0.
         -6    2    1    2    0  503  0.10710984132E+03 -0.57111312947E+02 -0.16202103958E+03  0.26490510557E+03  0.17084986835E+03 0.  0.
        -24    2    5    5    0    0  0.13869876002E+03 -0.50466093704E+02 -0.10022142728E+03  0.19502448734E+03  0.78778445848E+02 0.  0.
          5    1    3    3  501    0 -0.15359540157E+02  0.67874742884E+02  0.24632740116E+02  0.73971332833E+02  0.47000000000E+01 0. -1.
        -11    1    4    4    0    0 -0.72558593456E+02 -0.42432141570E+02 -0.38765380955E+02  0.92563442477E+02  0.00000000000E+00 0.  1.
         12    1    4    4    0    0 -0.19191707704E+02  0.31668711633E+02 -0.37979242928E+02  0.53043867077E+02  0.00000000000E+00 0. -1.
         -5    1    5    5    0  503 -0.31588918704E+02 -0.66452192427E+01 -0.61799612303E+02  0.69880618232E+02  0.47000000000E+01 0.  1.
         11    1    6    6    0    0  0.21211905304E+02 -0.44310274313E+02 -0.22583519502E+02  0.54068111577E+02  0.00000000000E+00 0. -1.
        -12    1    6    6    0    0  0.11748685472E+03 -0.61558193906E+01 -0.77637907778E+02  0.14095637576E+03  0.00000000000E+00 0.  1.
</event>
<event>
12    1  0.9028446E-003  0.2206540E+03  0.7818608E-02  0.1133452E+00
         21   -1    0    0  503  502  0.00000000000E+00  0.00000000000E+00  0.10583074896E+03  0.10583074896E+03  0.00000000000E+00 0. -1.
         21   -1    0    0  501  503 -0.00000000000E+00 -0.00000000000E+00 -0.47921227595E+03  0.47921227595E+03  0.00000000000E+00 0.  1.
          6    2    1    2  501    0 -0.71847553900E+02  0.11725884497E+03 -0.24600440812E+03  0.33026248909E+03  0.17217268994E+03 0.  0.
         24    2    3    3    0    0 -0.10262166446E+03  0.12870512819E+03 -0.22815491330E+03  0.29259608834E+03  0.80384018353E+02 0.  0.
         -6    2    1    2    0  502  0.71847553900E+02 -0.11725884497E+03 -0.12737711887E+03  0.25478053582E+03  0.17255863727E+03 0.  0.
        -24    2    5    5    0    0  0.88300474948E+02 -0.14084219502E+03 -0.81260287621E+02  0.20023032835E+03  0.76520927037E+02 0.  0.
          5    1    3    3  501    0  0.30774110562E+02 -0.11446283221E+02 -0.17849494822E+02  0.37666400755E+02  0.47000000000E+01 0. -1.
        -13    1    4    4    0    0 -0.37213567343E+02  0.10810070101E+03 -0.15041468324E+03  0.18893170217E+03  0.00000000000E+00 0.  1.
         14    1    4    4    0    0 -0.65408097118E+02  0.20604427185E+02 -0.77740230061E+02  0.10366438616E+03  0.00000000000E+00 0. -1.
         -5    1    5    5    0  502 -0.16452921048E+02  0.23583350046E+02 -0.46116831247E+02  0.54550207467E+02  0.47000000000E+01 0.  1.
         11    1    6    6    0    0  0.41290216936E+02 -0.47724829178E+02  0.71256738079E+01  0.63508397570E+02  0.00000000000E+00 0. -1.
        -12    1    6    6    0    0  0.47010258012E+02 -0.93117365839E+02 -0.88385961429E+02  0.13672193078E+03  0.00000000000E+00 0.  1.
</event>
<event>
12    1  0.9028446E-003  0.1771339E+03  0.7818608E-02  0.1170890E+00
         21   -1    0    0  503  502  0.00000000000E+00  0.00000000000E+00  0.20315791152E+02  0.20315791152E+02  0.00000000000E+00 0. -1.
         21   -1    0    0  501  503 -0.00000000000E+00 -0.00000000000E+00 -0.25763510203E+04  0.25763510203E+04  0.00000000000E+00 0. -1.
          6    2    1    2  501    0 -0.36365405840E+02 -0.16426349615E+02 -0.21011916385E+04  0.21085488919E+04  0.17140554242E+03 0.  0.
         24    2    3    3    0    0  0.33396224899E+02 -0.12978350754E+01 -0.16159547853E+04  0.16180670361E+04  0.75591488577E+02 0.  0.
         -6    2    1    2    0  502  0.36365405840E+02  0.16426349615E+02 -0.45484359067E+03  0.48811791961E+03  0.17258083257E+03 0.  0.
        -24    2    5    5    0    0  0.29954396568E+01  0.14278500338E+02 -0.44608199451E+03  0.45323205619E+03  0.78849874429E+02 0.  0.
          5    1    3    3  501    0 -0.69761630739E+02 -0.15128514539E+02 -0.48523685325E+03  0.49048185576E+03  0.47000000000E+01 0. -1.
        -13    1    4    4    0    0  0.20533587562E+02 -0.10703897125E+02 -0.15514624606E+04  0.15516352562E+04  0.00000000000E+00 0.  1.
         14    1    4    4    0    0  0.12862637337E+02  0.94060620499E+01 -0.64492324625E+02  0.66431779880E+02  0.00000000000E+00 0. -1.
         -5    1    5    5    0  502  0.33369966183E+02  0.21478492771E+01 -0.87615961571E+01  0.34885863423E+02  0.47000000000E+01 0.  1.
         13    1    6    6    0    0  0.16661250793E+02  0.44075880621E+02 -0.24394247365E+03  0.24845162704E+03  0.00000000000E+00 0. -1.
        -14    1    6    6    0    0 -0.13665811136E+02 -0.29797380283E+02 -0.20213952086E+03  0.20478042914E+03  0.00000000000E+00 0.  1.
</event>
<event>
12    1  0.9028446E-003  0.1951171E+03  0.7818608E-02  0.1154176E+00
         21   -1    0    0  503  502  0.00000000000E+00  0.00000000000E+00  0.13007408838E+03  0.13007408838E+03  0.00000000000E+00 0.  1.
         21   -1    0    0  501  503 -0.00000000000E+00 -0.00000000000E+00 -0.38522205258E+03  0.38522205258E+03  0.00000000000E+00 0.  1.
          6    2    1    2  501    0  0.88309897550E+02  0.22020017716E+01 -0.25473686747E+03  0.32017857921E+03  0.17268457986E+03 0.  0.
         24    2    3    3    0    0  0.10182924612E+03  0.49345506453E+02 -0.14924500918E+03  0.20374875063E+03  0.80220360529E+02 0.  0.
         -6    2    1    2    0  502 -0.88309897550E+02 -0.22020017716E+01 -0.41109672992E+00  0.19511756174E+03  0.17397473116E+03 0.  0.
        -24    2    5    5    0    0 -0.85661207695E+02 -0.23968918280E+02 -0.59424522473E+02  0.13198683523E+03  0.77310408450E+02 0.  0.
          5    1    3    3  501    0 -0.13519348570E+02 -0.47143504682E+02 -0.10549185829E+03  0.11642982859E+03  0.47000000000E+01 0. -1.
        -13    1    4    4    0    0  0.17517093537E+02 -0.21793283571E+02 -0.36915502115E+02  0.46309287094E+02  0.00000000000E+00 0.  1.
         14    1    4    4    0    0  0.84312152583E+02  0.71138790024E+02 -0.11232950707E+03  0.15743946353E+03  0.00000000000E+00 0. -1.
         -5    1    5    5    0  502 -0.26486898549E+01  0.21766916509E+02  0.59013425743E+02  0.63130726514E+02  0.47000000000E+01 0.  1.
         13    1    6    6    0    0 -0.16633270915E+02 -0.26763200146E+02 -0.54213683091E+02  0.62706124244E+02  0.00000000000E+00 0. -1.
        -14    1    6    6    0    0 -0.69027936780E+02  0.27942818652E+01 -0.52108393817E+01  0.69280710983E+02  0.00000000000E+00 0.  1.
</event>
<event>
12    1  0.9028446E-003  0.1851449E+03  0.7818608E-02  0.1163215E+00
         21   -1    0    0  503  502  0.00000000000E+00  0.00000000000E+00  0.23148982948E+03  0.23148982948E+03  0.00000000000E+00 0. -1.
         21   -1    0    0  501  503 -0.00000000000E+00 -0.00000000000E+00 -0.22541466967E+03  0.22541466967E+03  0.00000000000E+00 0. -1.
          6    2    1    2  501    0  0.26632314811E+02  0.61891066805E+02 -0.13166372226E+03  0.22614351378E+03  0.17107240784E+03 0.  0.
         24    2    3    3    0    0  0.41485450609E+02 -0.24638839783E+02 -0.89361173185E+02  0.12857489160E+03  0.78854095884E+02 0.  0.
         -6    2    1    2    0  502 -0.26632314811E+02 -0.61891066805E+02  0.13773888207E+03  0.23076098536E+03  0.17244955317E+03 0.  0.
        -24    2    5    5    0    0 -0.70025770944E+02 -0.41040273368E+02  0.35795651068E+02  0.11792366897E+03  0.77696527812E+02 0.  0.
          5    1    3    3  501    0 -0.14853135798E+02  0.86529906588E+02 -0.42302549077E+02  0.97568622187E+02  0.47000000000E+01 0. -1.
        -11    1    4    4    0    0  0.59981406254E+02 -0.32357080001E+00 -0.46280056321E+02  0.75760922693E+02  0.00000000000E+00 0.  1.
         12    1    4    4    0    0 -0.18495955645E+02 -0.24315268983E+02 -0.43081116864E+02  0.52813968902E+02  0.00000000000E+00 0. -1.
         -5    1    5    5    0  502  0.43393456133E+02 -0.20850793438E+02  0.10194323101E+03  0.11283731639E+03  0.47000000000E+01 0.  1.
         11    1    6    6    0    0 -0.39069655460E-02 -0.17305635099E+02  0.40292790552E+02  0.43851955394E+02  0.00000000000E+00 0. -1.
        -12    1    6    6    0    0 -0.70021863978E+02 -0.23734638269E+02 -0.44971394839E+01  0.74071713577E+02  0.00000000000E+00 0.  1.
</event>
<event>
12    1  0.9028446E-003  0.2329495E+03  0.7818608E-02  0.1124688E+00
         21   -1    0    0  503  502  0.00000000000E+00  0.00000000000E+00  0.36434533450E+03  0.36434533450E+03  0.00000000000E+00 0. -1.
         21   -1    0    0  501  503 -0.00000000000E+00 -0.00000000000E+00 -0.18041693180E+03  0.18041693180E+03  0.00000000000E+00 0.  1.
          6    2    1    2  501    0  0.15118861395E+03 -0.18336132856E+02 -0.22622165441E+02  0.23342867415E+03  0.17545077027E+03 0.  0.
         24    2    3    3    0    0  0.72393284947E+02 -0.57405108415E+02 -0.61431032755E+02  0.13718259939E+03  0.80679362985E+02 0.  0.
         -6    2    1    2    0  502 -0.15118861395E+03  0.18336132856E+02  0.20655056815E+03  0.31133359215E+03  0.17627041057E+03 0.  0.
        -24    2    5    5    0    0 -0.17693376823E+03 -0.75248152435E+01  0.15712552714E+03  0.24971763412E+03  0.79424708529E+02 0.  0.
          5    1    3    3  501    0  0.78795329006E+02  0.39068975559E+02  0.38808867314E+02  0.96246074759E+02  0.47000000000E+01 0. -1.
        -13    1    4    4    0    0  0.34645777526E+02  0.12567702076E+02 -0.23919500640E+00  0.36855586416E+02  0.00000000000E+00 0.  1.
         14    1    4    4    0    0  0.37747507422E+02 -0.69972810491E+02 -0.61191837749E+02  0.10032701297E+03  0.00000000000E+00 0. -1.
         -5    1    5    5    0  502  0.25745154282E+02  0.25860948099E+02  0.49425041014E+02  0.61615958037E+02  0.47000000000E+01 0.  1.
         13    1    6    6    0    0 -0.83702811370E+02 -0.20762663671E+01  0.12598947298E+03  0.15127398592E+03  0.00000000000E+00 0. -1.
        -14    1    6    6    0    0 -0.93230956865E+02 -0.54485488764E+01  0.31136054158E+02  0.98443648202E+02  0.00000000000E+00 0.  1.
</event>
<event>
12    1  0.9028446E-003  0.2017934E+03  0.7818608E-02  0.1148403E+00
         21   -1    0    0  503  502  0.00000000000E+00  0.00000000000E+00  0.66030362336E+03  0.66030362336E+03  0.00000000000E+00 0. -1.
         21   -1    0    0  501  503 -0.00000000000E+00 -0.00000000000E+00 -0.64470311871E+02  0.64470311871E+02  0.00000000000E+00 0.  1.
          6    2    1    2  501    0 -0.88631049121E+02  0.58716926813E+02  0.21856388335E+03  0.29692723280E+03  0.17056514917E+03 0.  0.
         24    2    3    3    0    0  0.14706400764E+02  0.38780006620E+02  0.67200509591E+02  0.11251175012E+03  0.80142487419E+02 0.  0.
         -6    2    1    2    0  502  0.88631049121E+02 -0.58716926813E+02  0.37726942814E+03  0.42784670243E+03  0.17151512764E+03 0.  0.
        -24    2    5    5    0    0  0.11302117217E+03 -0.85579387532E+02  0.29039219352E+03  0.33357998618E+03  0.82766926911E+02 0.  0.
          5    1    3    3  501    0 -0.10333744988E+03  0.19936920193E+02  0.15136337376E+03  0.18441548268E+03  0.47000000000E+01 0. -1.
        -13    1    4    4    0    0  0.11976553241E+02  0.46200825294E+02  0.29956469322E+01  0.47821835869E+02  0.00000000000E+00 0.  1.
         14    1    4    4    0    0  0.27298475230E+01 -0.74208186731E+01  0.64204862659E+02  0.64689914255E+02  0.00000000000E+00 0. -1.
         -5    1    5    5    0  502 -0.24390123051E+02  0.26862460719E+02  0.86877234614E+02  0.94266716250E+02  0.47000000000E+01 0.  1.
         11    1    6    6    0    0  0.10045440791E+02 -0.21699159405E+02  0.13200302077E+03  0.13415126497E+03  0.00000000000E+00 0. -1.
        -12    1    6    6    0    0  0.10297573138E+03 -0.63880228127E+02  0.15838917275E+03  0.19942872121E+03  0.00000000000E+00 0.  1.
</event>
<event>
12    1  0.9028446E-003  0.1872051E+03  0.7818608E-02  0.1161086E+00
         21   -1    0    0  503  502  0.00000000000E+00  0.00000000000E+00  0.20257769931E+02  0.20257769931E+02  0.00000000000E+00 0. -1.
         21   -1    0    0  501  503 -0.00000000000E+00 -0.00000000000E+00 -0.17400223038E+04  0.17400223038E+04  0.00000000000E+00 0.  1.
          6    2    1    2  501    0 -0.47853917006E+02 -0.55272763552E+02 -0.93584554829E+03  0.95431808442E+03  0.17196232211E+03 0.  0.
         24    2    3    3    0    0 -0.30027148027E+02 -0.86075643184E+02 -0.87740257588E+03  0.88573031503E+03  0.79826466955E+02 0.  0.
         -6    2    1    2    0  502  0.47853917006E+02  0.55272763552E+02 -0.78391898554E+03  0.80596198927E+03  0.17233884211E+03 0.  0.
        -24    2    5    5    0    0  0.20389685298E+02  0.89214261550E+02 -0.70427596035E+03  0.71501469261E+03  0.82864097085E+02 0.  0.
          5    1    3    3  501    0 -0.17826768979E+02  0.30802879632E+02 -0.58442972408E+02  0.68587769389E+02  0.47000000000E+01 0. -1.
        -13    1    4    4    0    0 -0.55486607121E+02 -0.45140668722E+02 -0.58887758395E+03  0.59320591064E+03  0.00000000000E+00 0.  1.
         14    1    4    4    0    0  0.25459459094E+02 -0.40934974462E+02 -0.28852499193E+03  0.29252440439E+03  0.00000000000E+00 0. -1.
         -5    1    5    5    0  502  0.27464231708E+02 -0.33941497998E+02 -0.79643025185E+02  0.90947296663E+02  0.47000000000E+01 0.  1.
         11    1    6    6    0    0  0.42315550154E+02  0.33926916763E+02 -0.47744852726E+03  0.48051923755E+03  0.00000000000E+00 0. -1.
        -12    1    6    6    0    0 -0.21925864856E+02  0.55287344787E+02 -0.22682743309E+03  0.23449545506E+03  0.00000000000E+00 0.  1.
</event>
<event>
12    1  0.9028446E-003  0.2868465E+03  0.7818608E-02  0.1092255E+00
         21   -1    0    0  503  502  0.00000000000E+00  0.00000000000E+00  0.25969307165E+03  0.25969307165E+03  0.00000000000E+00 0. -1.
         21   -1    0    0  501  503 -0.00000000000E+00 -0.00000000000E+00 -0.36181934249E+03  0.36181934249E+03  0.00000000000E+00 0. -1.
          6    2    1    2  501    0  0.14762447848E+03 -0.17523474270E+03 -0.16296500042E+03  0.32828509100E+03  0.16945001597E+03 0.  0.
         24    2    3    3    0    0  0.12452831982E+03 -0.45257814473E+02 -0.87790139147E+02  0.17629566971E+03  0.76272422386E+02 0.  0.
         -6    2    1    2    0  502 -0.14762447848E+03  0.17523474270E+03  0.60838729586E+02  0.29322732314E+03  0.17257088491E+03 0.  0.
        -24    2    5    5    0    0 -0.38727416845E+02  0.14589607568E+03  0.13069496355E+02  0.17065768147E+03  0.78535054555E+02 0.  0.
          5    1    3    3  501    0  0.23096158658E+02 -0.12997692823E+03 -0.75174861278E+02  0.15198942129E+03  0.47000000000E+01 0. -1.
        -13    1    4    4    0    0  0.23312836481E+02 -0.58887832877E+01  0.13681791703E+02  0.27665096016E+02  0.00000000000E+00 0.  1.
         14    1    4    4    0    0  0.10121548334E+03 -0.39369031185E+02 -0.10147193085E+03  0.14863057369E+03  0.00000000000E+00 0. -1.
         -5    1    5    5    0  502 -0.10889706164E+03  0.29338667020E+02  0.47769233231E+02  0.12256964167E+03  0.47000000000E+01 0.  1.
         11    1    6    6    0    0 -0.30573254924E+02  0.41107942147E+02  0.36586913383E+02  0.62953864496E+02  0.00000000000E+00 0. -1.
        -12    1    6    6    0    0 -0.81541619220E+01  0.10478813354E+03 -0.23517417028E+02  0.10770381697E+03  0.00000000000E+00 0.  1.
</event>
<event>
12    1  0.9028446E-003  0.1986183E+03  0.7818608E-02  0.1151401E+00
         21   -1    0    0  501  502  0.00000000000E+00  0.00000000000E+00  0.19322993737E+04  0.19322993737E+04  0.00000000000E+00 0.  1.
         21   -1    0    0  502  503 -0.00000000000E+00 -0.00000000000E+00 -0.20734701750E+02  0.20734701750E+02  0.00000000000E+00 0.  1.
          6    2    1    2  501    0 -0.62574285173E+02  0.70421586151E+02  0.80153951255E+03  0.82578134314E+03  0.17485564198E+03 0.  0.
         24    2    3    3    0    0 -0.55050649439E+02  0.98171355731E+02  0.40955198897E+03  0.43271269335E+03  0.82699783699E+02 0.  0.
         -6    2    1    2    0  503  0.62574285173E+02 -0.70421586151E+02  0.11100251594E+04  0.11272527323E+04  0.17224438175E+03 0.  0.
        -24    2    5    5    0    0 -0.12682715428E+02  0.66115929052E+01  0.47561961276E+03  0.48375431396E+03  0.87176004738E+02 0.  0.
          5    1    3    3  501    0 -0.75236357340E+01 -0.27749769580E+02  0.39198752358E+03  0.39306864979E+03  0.47000000000E+01 0. -1.
        -11    1    4    4    0    0 -0.55136361689E+02  0.30921520311E+02  0.27645893060E+03  0.28359425083E+03  0.00000000000E+00 0.  1.
         12    1    4    4    0    0  0.85712250549E-01  0.67249835419E+02  0.13309305838E+03  0.14911844252E+03  0.00000000000E+00 0. -1.
         -5    1    5    5    0  503  0.75257000601E+02 -0.77033179056E+02  0.63440554664E+03  0.64349841835E+03  0.47000000000E+01 0.  1.
         13    1    6    6    0    0 -0.11064770667E+02  0.22769097035E+02  0.46162212029E+03  0.46231573937E+03  0.00000000000E+00 0. -1.
        -14    1    6    6    0    0 -0.16179447616E+01 -0.16157504130E+02  0.13997492471E+02  0.21438574589E+02  0.00000000000E+00 0.  1.
</event>
<event>
12    1  0.9028446E-003  0.2282869E+03  0.7818608E-02  0.1128210E+00
         21   -1    0    0  503  502  0.00000000000E+00  0.00000000000E+00  0.25527763430E+02  0.25527763430E+02  0.00000000000E+00 0. -1.
         21   -1    0    0  501  503 -0.00000000000E+00 -0.00000000000E+00 -0.20551397514E+04  0.20551397514E+04  0.00000000000E+00 0. -1.
          6    2    1    2  501    0 -0.13577179945E+03  0.55740113808E+02 -0.11393566091E+04  0.11616084711E+04  0.17222025320E+03 0.  0.
         24    2    3    3    0    0 -0.13708564085E+03  0.35699710986E+02 -0.59150672933E+03  0.61337045281E+03  0.79222214387E+02 0.  0.
         -6    2    1    2    0  502  0.13577179945E+03 -0.55740113808E+02 -0.89025537889E+03  0.91905904375E+03  0.17485406614E+03 0.  0.
        -24    2    5    5    0    0  0.58290058508E+02 -0.49501252901E+02 -0.24065173720E+03  0.26480425786E+03  0.79749178077E+02 0.  0.
          5    1    3    3  501    0  0.13138414036E+01  0.20040402822E+02 -0.54784987979E+03  0.54823801830E+03  0.47000000000E+01 0. -1.
        -13    1    4    4    0    0 -0.40545547422E+02 -0.21684280719E+02 -0.11598420034E+03  0.12476571714E+03  0.00000000000E+00 0.  1.
         14    1    4    4    0    0 -0.96540093432E+02  0.57383991704E+02 -0.47552252899E+03  0.48860473567E+03  0.00000000000E+00 0. -1.
         -5    1    5    5    0  502  0.77481740942E+02 -0.62388609070E+01 -0.64960364169E+03  0.65425478589E+03  0.47000000000E+01 0.  1.
         13    1    6    6    0    0  0.45859500517E+01  0.31722907127E+01  0.52470394870E+01  0.76567479795E+01  0.00000000000E+00 0. -1.
        -14    1    6    6    0    0  0.53704108457E+02 -0.52673543614E+02 -0.24589877668E+03  0.25714750988E+03  0.00000000000E+00 0.  1.
</event>
<event>
12    1  0.9028446E-003  0.1752217E+03  0.7818608E-02  0.1172693E+00
         21   -1    0    0  503  502  0.00000000000E+00  0.00000000000E+00  0.17850652245E+04  0.17850652245E+04  0.00000000000E+00 0.  1.
         21   -1    0    0  501  503 -0.00000000000E+00 -0.00000000000E+00 -0.23780864686E+02  0.23780864686E+02  0.00000000000E+00 0.  1.
          6    2    1    2  501    0  0.59569172014E+01  0.29567226876E+02  0.40094667469E+03  0.43726989558E+03  0.17186337558E+03 0.  0.
         24    2    3    3    0    0  0.21292281724E+02  0.41702364763E+02  0.40595326172E+03  0.41654332108E+03  0.80733135378E+02 0.  0.
         -6    2    1    2    0  502 -0.59569172014E+01 -0.29567226876E+02  0.13603376851E+04  0.13715761936E+04  0.17260629055E+03 0.  0.
        -24    2    5    5    0    0 -0.65747633529E+02  0.64743749372E+01  0.70437859180E+03  0.71189570357E+03  0.79256692671E+02 0.  0.
          5    1    3    3  501    0 -0.15335364522E+02 -0.12135137887E+02 -0.50065870313E+01  0.20726574494E+02  0.47000000000E+01 0. -1.
        -13    1    4    4    0    0  0.47396786392E+02  0.20244374754E+02  0.15545041538E+03  0.16377155342E+03  0.00000000000E+00 0.  1.
         14    1    4    4    0    0 -0.26104504668E+02  0.21457990010E+02  0.25050284635E+03  0.25277176766E+03  0.00000000000E+00 0. -1.
         -5    1    5    5    0  502  0.59790716328E+02 -0.36041601814E+02  0.65595909333E+03  0.65968049004E+03  0.47000000000E+01 0.  1.
         11    1    6    6    0    0 -0.11847770628E+02 -0.20133143117E+02  0.55191911019E+02  0.59932129635E+02  0.00000000000E+00 0. -1.
        -12    1    6    6    0    0 -0.53899862901E+02  0.26607518055E+02  0.64918668078E+03  0.65196357394E+03  0.00000000000E+00 0.  1.
</event>
<event>
12    1  0.9028446E-003  0.2392901E+03  0.7818608E-02  0.1120579E+00
         21   -1    0    0  501  502  0.00000000000E+00  0.00000000000E+00  0.88748370248E+03  0.88748370248E+03  0.00000000000E+00 0. -1.
         21   -1    0    0  502  503 -0.00000000000E+00 -0.00000000000E+00 -0.24096733186E+03  0.24096733186E+03  0.00000000000E+00 0.  1.
          6    2    1    2  501    0  0.15814830368E+03 -0.38363263157E+02  0.80642363302E+03  0.84064887161E+03  0.17288384405E+03 0.  0.
         24    2    3    3    0    0  0.13102027113E+02  0.90809634042E+01  0.33575689367E+03  0.34583714326E+03  0.81341938779E+02 0.  0.
         -6    2    1    2    0  503 -0.15814830368E+03  0.38363263157E+02 -0.15990726240E+03  0.28780216273E+03  0.17543410840E+03 0.  0.
        -24    2    5    5    0    0 -0.31704340704E+02  0.14922419707E+02 -0.61830933685E+01  0.87325832313E+02  0.79747893491E+02 0.  0.
          5    1    3    3  501    0  0.14504627656E+03 -0.47444226561E+02  0.47066673935E+03  0.49481172834E+03  0.47000000000E+01 0. -1.
        -13    1    4    4    0    0 -0.18844222813E+02 -0.28106886147E+02  0.14126042418E+03  0.14525704534E+03  0.00000000000E+00 0.  1.
         14    1    4    4    0    0  0.31946249926E+02  0.37187849551E+02  0.19449646949E+03  0.20058009792E+03  0.00000000000E+00 0. -1.
         -5    1    5    5    0  503 -0.12644396297E+03  0.23440843450E+02 -0.15372416903E+03  0.20047633042E+03  0.47000000000E+01 0.  1.
         13    1    6    6    0    0 -0.37985491222E+02  0.40427454547E+02 -0.18279424287E+02  0.58407310987E+02  0.00000000000E+00 0. -1.
        -14    1    6    6    0    0  0.62811505172E+01 -0.25505034840E+02  0.12096330918E+02  0.28918521326E+02  0.00000000000E+00 0.  1.
</event>
<event>
12    1  0.9028446E-003  0.2240348E+03  0.7818608E-02  0.1131487E+00
         21   -1    0    0  503  502  0.00000000000E+00  0.00000000000E+00  0.36593825052E+03  0.36593825052E+03  0.00000000000E+00 0.  1.
         21   -1    0    0  501  503 -0.00000000000E+00 -0.00000000000E+00 -0.13660644110E+03  0.13660644110E+03  0.00000000000E+00 0. -1.
          6    2    1    2  501    0 -0.38279420844E+02  0.13791413162E+03  0.90347284118E+02  0.24156616172E+03  0.17235416148E+03 0.  0.
         24    2    3    3    0    0 -0.53643050133E+02  0.47163824223E+02  0.10303245993E+03  0.14853572002E+03  0.79656570228E+02 0.  0.
         -6    2    1    2    0  502  0.38279420844E+02 -0.13791413162E+03  0.13898452531E+03  0.26097852989E+03  0.16824824823E+03 0.  0.
        -24    2    5    5    0    0  0.44266833275E+02 -0.60953577339E+02  0.92040797284E+01  0.10990295253E+03  0.79492469906E+02 0.  0.
          5    1    3    3  501    0  0.15363629288E+02  0.90750307396E+02 -0.12685175812E+02  0.93030441699E+02  0.47000000000E+01 0. -1.
        -11    1    4    4    0    0 -0.46787143009E+02  0.66887419671E+02  0.97051922979E+02  0.12681498104E+03  0.00000000000E+00 0.  1.
         12    1    4    4    0    0 -0.68559071243E+01 -0.19723595448E+02  0.59805369513E+01  0.21720738987E+02  0.00000000000E+00 0. -1.
         -5    1    5    5    0  502 -0.59874124304E+01 -0.76960554280E+02  0.12978044558E+03  0.15107557737E+03  0.47000000000E+01 0.  1.
         13    1    6    6    0    0  0.22124743906E+02 -0.78112888272E+02  0.10490254962E+02  0.81860692987E+02  0.00000000000E+00 0. -1.
        -14    1    6    6    0    0  0.22142089368E+02  0.17159310934E+02 -0.12861752338E+01  0.28042259539E+02  0.00000000000E+00 0.  1.
</event>
<event>
12    1  0.9028446E-003  0.2292892E+03  0.7818608E-02  0.1127169E+00
         21   -1    0    0  503  502  0.00000000000E+00  0.00000000000E+00  0.49494972396E+02  0.49494972396E+02  0.00000000000E+00 0. -1.
         21   -1    0    0  501  503 -0.00000000000E+00 -0.00000000000E+00 -0.13855102053E+04  0.13855102053E+04  0.00000000000E+00 0.  1.
          6    2    1    2  501    0 -0.98565994171E+02 -0.11499298908E+03 -0.10151866235E+04  0.10407581066E+04  0.17214793991E+03 0.  0.
         24    2    3    3    0    0 -0.10363201676E+03 -0.73797133338E+02 -0.96006509908E+03  0.97159716699E+03  0.78041326547E+02 0.  0.
         -6    2    1    2    0  502  0.98565994171E+02  0.11499298908E+03 -0.32082860945E+03  0.39424707112E+03  0.17193345719E+03 0.  0.
        -24    2    5    5    0    0  0.59232422151E+02  0.11513273300E+03 -0.32183070877E+03  0.35462077153E+03  0.73599323709E+02 0.  0.
          5    1    3    3  501    0  0.50660225931E+01 -0.41195855739E+02 -0.55121524399E+02  0.69160939605E+02  0.47000000000E+01 0. -1.
        -11    1    4    4    0    0  0.48100571009E+01 -0.32807346780E+02 -0.23300747375E+03  0.23535492660E+03  0.00000000000E+00 0.  1.
         12    1    4    4    0    0 -0.10844207387E+03 -0.40989786558E+02 -0.72705762533E+03  0.73624224039E+03  0.00000000000E+00 0. -1.
         -5    1    5    5    0  502  0.39333572021E+02 -0.13974391926E+00  0.10020993237E+01  0.39626299592E+02  0.47000000000E+01 0.  1.
         13    1    6    6    0    0  0.18315868047E+02  0.81994079395E+02 -0.12312864209E+03  0.14906093580E+03  0.00000000000E+00 0. -1.
        -14    1    6    6    0    0  0.40916554103E+02  0.33138653601E+02 -0.19870206668E+03  0.20555983573E+03  0.00000000000E+00 0.  1.
</event>
<event>
12    1  0.9028446E-003  0.1764032E+03  0.7818608E-02  0.1171591E+00
         21   -1    0    0  503  502  0.00000000000E+00  0.00000000000E+00  0.45999761569E+03  0.45999761569E+03  0.00000000000E+00 0.  1.
         21   -1    0    0  501  503 -0.00000000000E+00 -0.00000000000E+00 -0.72395077071E+02  0.72395077071E+02  0.00000000000E+00 0.  1.
          6    2    1    2  501    0 -0.16870045849E+02 -0.34207216895E+02  0.12335944576E+03  0.21525717919E+03  0.17223056697E+03 0.  0.
         24    2    3    3    0    0  0.54919620218E+01 -0.39030100240E+01  0.14939745170E+03  0.16923031635E+03  0.79207993675E+02 0.  0.
         -6    2    1    2    0  502  0.16870045849E+02  0.34207216895E+02  0.26424309286E+03  0.31713551357E+03  0.17116012886E+03 0.  0.
        -24    2    5    5    0    0  0.41435337543E+02  0.78740595184E+02  0.14895642856E+03  0.19104118260E+03  0.79948404074E+02 0.  0.
          5    1    3    3  501    0 -0.22362007871E+02 -0.30304206871E+02 -0.26038005937E+02  0.46026862844E+02  0.47000000000E+01 0. -1.
        -11    1    4    4    0    0 -0.64917482388E+01 -0.34159664834E+02  0.12146317825E+03  0.12634211162E+03  0.00000000000E+00 0.  1.
         12    1    4    4    0    0  0.11983710261E+02  0.30256654810E+02  0.27934273450E+02  0.42888204731E+02  0.00000000000E+00 0. -1.
         -5    1    5    5    0  502 -0.24565291693E+02 -0.44533378289E+02  0.11528666430E+03  0.12609433097E+03  0.47000000000E+01 0.  1.
         11    1    6    6    0    0 -0.61463399753E+01  0.63098418731E+02  0.11235121499E+03  0.12900381177E+03  0.00000000000E+00 0. -1.
        -12    1    6    6    0    0  0.47581677518E+02  0.15642176453E+02  0.36605213575E+02  0.62037370838E+02  0.00000000000E+00 0.  1.
</event>
<event>
12    1  0.9028446E-003  0.1974254E+03  0.7818608E-02  0.1152042E+00
         21   -1    0    0  501  502  0.00000000000E+00  0.00000000000E+00  0.31260710567E+03  0.31260710567E+03  0.00000000000E+00 0.  1.
         21   -1    0    0  502  503 -0.00000000000E+00 -0.00000000000E+00 -0.17386890151E+03  0.17386890151E+03  0.00000000000E+00 0.  1.
          6    2    1    2  501    0 -0.97094356100E+02  0.39445885749E+00  0.19924098240E+03  0.28048842436E+03  0.17189914935E+03 0.  0.
         24    2    3    3    0    0 -0.58767944081E+02  0.22760905429E+02  0.21109157263E+03  0.23431810620E+03  0.79834784314E+02 0.  0.
         -6    2    1    2    0  503  0.97094356100E+02 -0.39445885749E+00 -0.60502778248E+02  0.20598758283E+03  0.17129748544E+03 0.  0.
        -24    2    5    5    0    0  0.98253653157E+02 -0.51048752684E+01  0.17571220700E+02  0.12762195704E+03  0.79364828563E+02 0.  0.
          5    1    3    3  501    0 -0.38326412020E+02 -0.22366446572E+02 -0.11850590231E+02  0.46170318164E+02  0.47000000000E+01 0. -1.
        -13    1    4    4    0    0 -0.18988284533E+01 -0.22833640548E+02  0.90972138225E+02  0.93813168709E+02  0.00000000000E+00 0.  1.
         14    1    4    4    0    0 -0.56869115627E+02  0.45594545977E+02  0.12011943441E+03  0.14050493749E+03  0.00000000000E+00 0. -1.
         -5    1    5    5    0  503 -0.11592970567E+01  0.47104164109E+01 -0.78073998948E+02  0.78365625781E+02  0.47000000000E+01 0.  1.
         13    1    6    6    0    0  0.32954714007E+02 -0.20366606513E+02  0.41170770993E+02  0.56531798311E+02  0.00000000000E+00 0. -1.
        -14    1    6    6    0    0  0.65298939150E+02  0.15261731244E+02 -0.23599550293E+02  0.71090158733E+02  0.00000000000E+00 0.  1.
</event>
<event>
12    1  0.9028446E-003  0.1829629E+03  0.7818608E-02  0.1164977E+00
         21   -1    0    0  503  502  0.00000000000E+00  0.00000000000E+00  0.31333023362E+03  0.31333023362E+03  0.00000000000E+00 0.  1.
         21   -1    0    0  501  503 -0.00000000000E+00 -0.00000000000E+00 -0.13064884482E+03  0.13064884482E+03  0.00000000000E+00 0.  1.
          6    2    1    2  501    0 -0.51913523420E+02  0.32749261538E+02  0.18617203590E+03  0.26102767607E+03  0.17235977686E+03 0.  0.
         24    2    3    3    0    0 -0.73305132870E+02 -0.24598759891E+02  0.72650125178E+02  0.13197067033E+03  0.78482326972E+02 0.  0.
         -6    2    1    2    0  502  0.51913523420E+02 -0.32749261538E+02 -0.34906470943E+01  0.18295140236E+03  0.17231222523E+03 0.  0.
        -24    2    5    5    0    0 -0.91214883308E+01  0.38353568600E+02 -0.65301660125E+01  0.89078010030E+02  0.79611877437E+02 0.  0.
          5    1    3    3  501    0  0.21391609450E+02  0.57348021428E+02  0.11352191072E+03  0.12905700574E+03  0.47000000000E+01 0. -1.
        -13    1    4    4    0    0 -0.42312752854E+02  0.26197063637E+02  0.24740733253E+02  0.55576605503E+02  0.00000000000E+00 0.  1.
         14    1    4    4    0    0 -0.30992380016E+02 -0.50795823528E+02  0.47909391925E+02  0.76394064831E+02  0.00000000000E+00 0. -1.
         -5    1    5    5    0  502  0.61035011751E+02 -0.71102830137E+02  0.30395189181E+01  0.93873392334E+02  0.47000000000E+01 0.  1.
         11    1    6    6    0    0 -0.30159831287E+02 -0.19900757832E+01 -0.25729330365E+02  0.39693504077E+02  0.00000000000E+00 0. -1.
        -12    1    6    6    0    0  0.21038342956E+02  0.40343644383E+02  0.19199164353E+02  0.49384505953E+02  0.00000000000E+00 0.  1.
</event>
<event>
12    1  0.9028446E-003  0.2020299E+03  0.7818608E-02  0.1148101E+00
         21   -1    0    0  501  502  0.00000000000E+00  0.00000000000E+00  0.10002517463E+04  0.10002517463E+04  0.00000000000E+00 0.  1.
         21   -1    0    0  502  503 -0.00000000000E+00 -0.00000000000E+00 -0.41722460584E+02  0.41722460584E+02  0.00000000000E+00 0.  1.
          6    2    1    2  501    0 -0.10424440807E+03 -0.22010859748E+02  0.39916375788E+03  0.44724242482E+03  0.17129712896E+03 0.  0.
         24    2    3    3    0    0 -0.27920817932E+02 -0.71945658635E+02  0.23330629008E+03  0.25790261343E+03  0.78269937733E+02 0.  0.
         -6    2    1    2    0  503  0.10424440807E+03  0.22010859748E+02  0.55936552778E+03  0.59473178201E+03  0.17165291814E+03 0.  0.
        -24    2    5    5    0    0 -0.13104729128E+02 -0.55394067592E+00  0.17609011677E+03  0.19323194278E+03  0.78478109754E+02 0.  0.
          5    1    3    3  501    0 -0.76323590134E+02  0.49934798886E+02  0.16585746781E+03  0.18933981139E+03  0.47000000000E+01 0. -1.
        -13    1    4    4    0    0 -0.49620975189E+02 -0.63143453169E+02  0.13711627707E+03  0.15890314753E+03  0.00000000000E+00 0.  1.
         14    1    4    4    0    0  0.21700157257E+02 -0.88022054654E+01  0.96190013007E+02  0.98999465899E+02  0.00000000000E+00 0. -1.
         -5    1    5    5    0  503  0.11734913719E+03  0.22564800424E+02  0.38327541102E+03  0.40149983924E+03  0.47000000000E+01 0.  1.
         11    1    6    6    0    0  0.10912951432E+02  0.21948955503E+02  0.14783907563E+03  0.14985740369E+03  0.00000000000E+00 0. -1.
        -12    1    6    6    0    0 -0.24017680560E+02 -0.22502896179E+02  0.28251041134E+02  0.43374539088E+02  0.00000000000E+00 0.  1.
</event>
<event>
12    1  0.9028446E-003  0.1778808E+03  0.7818608E-02  0.1169977E+00
         21   -1    0    0  503  502  0.00000000000E+00  0.00000000000E+00  0.16671793637E+03  0.16671793637E+03  0.00000000000E+00 0.  1.
         21   -1    0    0  501  503 -0.00000000000E+00 -0.00000000000E+00 -0.21453188409E+03  0.21453188409E+03  0.00000000000E+00 0.  1.
          6    2    1    2  501    0 -0.27317853107E+02 -0.33368535601E+02 -0.89218855249E+02  0.19861373811E+03  0.17212695480E+03 0.  0.
         24    2    3    3    0    0  0.47330410099E+02 -0.13120068026E+02 -0.73249637770E+02  0.11949692861E+03  0.80633135923E+02 0.  0.
         -6    2    1    2    0  502  0.27317853107E+02  0.33368535601E+02  0.41404907533E+02  0.18263608235E+03  0.17257418098E+03 0.  0.
        -24    2    5    5    0    0 -0.43484324657E+00 -0.71006432298E+01  0.86117336594E+02  0.11608341221E+03  0.77514867638E+02 0.  0.
          5    1    3    3  501    0 -0.74648263206E+02 -0.20248467575E+02 -0.15969217479E+02  0.79116809502E+02  0.47000000000E+01 0. -1.
        -11    1    4    4    0    0  0.23439463473E+02 -0.64715116635E+01  0.14499292159E+02  0.28311100018E+02  0.00000000000E+00 0.  1.
         12    1    4    4    0    0  0.23890946626E+02 -0.66485563626E+01 -0.87748929930E+02  0.91185828593E+02  0.00000000000E+00 0. -1.
         -5    1    5    5    0  502  0.27752696354E+02  0.40469178831E+02 -0.44712429061E+02  0.66552670139E+02  0.47000000000E+01 0.  1.
         13    1    6    6    0    0  0.36139202934E+01  0.28472584034E+02  0.72156178313E+02  0.77654765020E+02  0.00000000000E+00 0. -1.
        -14    1    6    6    0    0 -0.40487635400E+01 -0.35573227264E+02  0.13961158280E+02  0.38428647188E+02  0.00000000000E+00 0.  1.
</event>
<event>
12    1  0.9028446E-003  0.1758588E+03  0.7818608E-02  0.1172167E+00
         21   -1    0    0  501  502  0.00000000000E+00  0.00000000000E+00  0.15803692165E+03  0.15803692165E+03  0.00000000000E+00 0. -1.
         21   -1    0    0  502  503 -0.00000000000E+00 -0.00000000000E+00 -0.19595084033E+03  0.19595084033E+03  0.00000000000E+00 0. -1.
          6    2    1    2  501    0 -0.22971497235E+02 -0.28022083240E+02 -0.30667583474E+01  0.17470960978E+03  0.17088334005E+03 0.  0.
         24    2    3    3    0    0 -0.72405717637E+01  0.17176731093E+02  0.55585837028E+02  0.98863635740E+02  0.79603814124E+02 0.  0.
         -6    2    1    2    0  503  0.22971497235E+02  0.28022083240E+02 -0.34847160328E+02  0.17927815221E+03  0.17208545680E+03 0.  0.
        -24    2    5    5    0    0  0.76331336870E+02  0.55811505575E+02 -0.23345959550E+02  0.11784614020E+03  0.66342156960E+02 0.  0.
          5    1    3    3  501    0 -0.15730925471E+02 -0.45198814333E+02 -0.58652595376E+02  0.75845974037E+02  0.47000000000E+01 0. -1.
        -13    1    4    4    0    0 -0.42939868311E+02  0.16568869629E+02  0.32561602671E+02  0.56379231104E+02  0.00000000000E+00 0.  1.
         14    1    4    4    0    0  0.35699296547E+02  0.60786146429E+00  0.23024234357E+02  0.42484404636E+02  0.00000000000E+00 0. -1.
         -5    1    5    5    0  503 -0.53359839635E+02 -0.27789422335E+02 -0.11501200778E+02  0.61432012004E+02  0.47000000000E+01 0.  1.
         13    1    6    6    0    0  0.15894576688E+02  0.52548757997E+02 -0.88376667859E+01  0.55606779167E+02  0.00000000000E+00 0. -1.
        -14    1    6    6    0    0  0.60436760181E+02  0.32627475774E+01 -0.14508292764E+02  0.62239361034E+02  0.00000000000E+00 0.  1.
</event>
<event>
12    1  0.9028446E-003  0.1815931E+03  0.7818608E-02  0.1166371E+00
         21   -1    0    0  503  502  0.00000000000E+00  0.00000000000E+00  0.11282858870E+03  0.11282858870E+03  0.00000000000E+00 0.  1.
         21   -1    0    0  501  503 -0.00000000000E+00 -0.00000000000E+00 -0.29159794821E+03  0.29159794821E+03  0.00000000000E+00 0.  1.
          6    2    1    2  501    0 -0.13121603490E+02  0.56469566333E+02 -0.90209744983E+02  0.20238971791E+03  0.17164734610E+03 0.  0.
         24    2    3    3    0    0 -0.22132395368E+01  0.57072015853E+02  0.29325149370E+02  0.82264631778E+02  0.51433372757E+02 0.  0.
         -6    2    1    2    0  502  0.13121603490E+02 -0.56469566333E+02 -0.88559614529E+02  0.20203681901E+03  0.17209033241E+03 0.  0.
        -24    2    5    5    0    0  0.13804289883E+02  0.20510212807E+02 -0.93402856564E+02  0.12475875323E+03  0.78926710585E+02 0.  0.
          5    1    3    3  501    0 -0.10908363954E+02 -0.60244951973E+00 -0.11953489435E+03  0.12012508613E+03  0.47000000000E+01 0. -1.
        -13    1    4    4    0    0  0.20401125623E+02  0.67081760221E+01  0.10746099524E+02  0.24014250086E+02  0.00000000000E+00 0.  1.
         14    1    4    4    0    0 -0.22614365159E+02  0.50363839831E+02  0.18579049846E+02  0.58250381692E+02  0.00000000000E+00 0. -1.
         -5    1    5    5    0  502 -0.68268639255E+00 -0.76979779140E+02  0.48432420352E+01  0.77278065779E+02  0.47000000000E+01 0.  1.
         13    1    6    6    0    0  0.21775197011E+02  0.16004614728E+02  0.36547600694E+01  0.27270206612E+02  0.00000000000E+00 0. -1.
        -14    1    6    6    0    0 -0.79709071285E+01  0.45055980790E+01 -0.97057616634E+02  0.97488546615E+02  0.00000000000E+00 0.  1.
</event>
<event>
12    1  0.9028446E-003  0.2785153E+03  0.7818608E-02  0.1096656E+00
         21   -1    0    0  501  502  0.00000000000E+00  0.00000000000E+00  0.65133236678E+03  0.65133236678E+03  0.00000000000E+00 0. -1.
         21   -1    0    0  502  503 -0.00000000000E+00 -0.00000000000E+00 -0.13186015026E+03  0.13186015026E+03  0.00000000000E+00 0.  1.
          6    2    1    2  501    0  0.21093180388E+03  0.57131903793E+02  0.13518587006E+03  0.30859083268E+03  0.17087071788E+03 0.  0.
         24    2    3    3    0    0  0.13020215688E+03  0.48354493983E+02  0.92973379759E+01  0.15870977537E+03  0.76233808525E+02 0.  0.
         -6    2    1    2    0  503 -0.21093180388E+03 -0.57131903793E+02  0.38428634647E+03  0.47460168436E+03  0.17266870705E+03 0.  0.
        -24    2    5    5    0    0 -0.15061953104E+03 -0.82307713895E+02  0.35529561029E+03  0.40295013550E+03  0.81688665737E+02 0.  0.
          5    1    3    3  501    0  0.80729647005E+02  0.87774098104E+01  0.12588853208E+03  0.14988105730E+03  0.47000000000E+01 0. -1.
        -11    1    4    4    0    0  0.11127052145E+03  0.25327289898E+02  0.34984667138E+02  0.11935881824E+03  0.00000000000E+00 0.  1.
         12    1    4    4    0    0  0.18931635431E+02  0.23027204085E+02 -0.25687329162E+02  0.39350957136E+02  0.00000000000E+00 0. -1.
         -5    1    5    5    0  503 -0.60312272844E+02  0.25175810102E+02  0.28990736175E+02  0.71651548859E+02  0.47000000000E+01 0.  1.
         13    1    6    6    0    0 -0.15303982393E+03 -0.92363049702E+02  0.34375866338E+03  0.38745598370E+03  0.00000000000E+00 0. -1.
        -14    1    6    6    0    0  0.24202928919E+01  0.10055335807E+02  0.11536946919E+02  0.15494151802E+02  0.00000000000E+00 0.  1.
</event>
<event>
12    1  0.9028446E-003  0.1766940E+03  0.7818608E-02  0.1173786E+00
         21   -1    0    0  501  502  0.00000000000E+00  0.00000000000E+00  0.73097473126E+02  0.73097473126E+02  0.00000000000E+00 0.  1.
         21   -1    0    0  502  503 -0.00000000000E+00 -0.00000000000E+00 -0.40162659424E+03  0.40162659424E+03  0.00000000000E+00 0.  1.
          6    2    1    2  501    0  0.24736190965E+02  0.47879014795E+02 -0.15990447393E+03  0.23048025000E+03  0.15699498608E+03 0.  0.
         24    2    3    3    0    0  0.55807229600E+02  0.63393261818E+02 -0.15956732953E+03  0.19543306796E+03  0.74827794835E+02 0.  0.
         -6    2    1    2    0  503 -0.24736190965E+02 -0.47879014795E+02 -0.16862464718E+03  0.24424381737E+03  0.16827504712E+03 0.  0.
        -24    2    5    5    0    0  0.79443474083E+00 -0.39433205014E+01 -0.16186036524E+02  0.83490036382E+02  0.81807197077E+02 0.  0.
          5    1    3    3  501    0 -0.31071038635E+02 -0.15514247024E+02 -0.33714440395E+00  0.35047182040E+02  0.47000000000E+01 0. -1.
        -13    1    4    4    0    0 -0.10048708607E+02  0.41469102404E+02 -0.50011066266E+02  0.65740168450E+02  0.00000000000E+00 0.  1.
         14    1    4    4    0    0  0.65855938207E+02  0.21924159414E+02 -0.10955626326E+03  0.12969289951E+03  0.00000000000E+00 0. -1.
         -5    1    5    5    0  503 -0.25530625706E+02 -0.43935694293E+02 -0.15243861066E+03  0.16075378099E+03  0.47000000000E+01 0.  1.
         13    1    6    6    0    0  0.39057295480E+02 -0.12807067200E+02 -0.25035756302E+00  0.41104208780E+02  0.00000000000E+00 0. -1.
        -14    1    6    6    0    0 -0.38262860740E+02  0.88637466990E+01 -0.15935678961E+02  0.42385827602E+02  0.00000000000E+00 0.  1.
</event>
<event>
12    1  0.9028446E-003  0.1871174E+03  0.7818608E-02  0.1162916E+00
         21   -1    0    0  501  502  0.00000000000E+00  0.00000000000E+00  0.25118047697E+03  0.25118047697E+03  0.00000000000E+00 0. -1.
         21   -1    0    0  502  503 -0.00000000000E+00 -0.00000000000E+00 -0.16029209269E+03  0.16029209269E+03  0.00000000000E+00 0. -1.
          6    2    1    2  501    0 -0.70970444740E+02  0.23324356580E+02  0.13008578489E+03  0.22789306042E+03  0.17155787921E+03 0.  0.
         24    2    3    3    0    0 -0.90968135380E+02  0.63921804223E+02  0.11830814149E+03  0.18089451501E+03  0.79779762531E+02 0.  0.
         -6    2    1    2    0  503  0.70970444740E+02 -0.23324356580E+02 -0.39197400618E+02  0.18357950924E+03  0.16304652821E+03 0.  0.
        -24    2    5    5    0    0  0.59909914001E+02  0.16014186593E+02  0.28564968364E+02  0.10430981157E+03  0.78860176285E+02 0.  0.
          5    1    3    3  501    0  0.19997690639E+02 -0.40597447644E+02  0.11777643408E+02  0.46998545407E+02  0.47000000000E+01 0. -1.
        -11    1    4    4    0    0 -0.31248974395E+02  0.29223342042E+02 -0.12696538306E+01  0.42803202470E+02  0.00000000000E+00 0.  1.
         12    1    4    4    0    0 -0.59719160984E+02  0.34698462181E+02  0.11957779532E+03  0.13809131254E+03  0.00000000000E+00 0. -1.
         -5    1    5    5    0  503  0.11060530739E+02 -0.39338543173E+02 -0.67762368982E+02  0.79269697674E+02  0.47000000000E+01 0.  1.
         13    1    6    6    0    0  0.79123210576E+02  0.14871851939E+02  0.18572083483E+02  0.82623100383E+02  0.00000000000E+00 0. -1.
        -14    1    6    6    0    0 -0.19213296575E+02  0.11423346541E+01  0.99928848810E+01  0.21686711184E+02  0.00000000000E+00 0.  1.
</event>
<event>
12    1  0.9028446E-003  0.2050798E+03  0.7818608E-02  0.1145927E+00
         21   -1    0    0  501  502  0.00000000000E+00  0.00000000000E+00  0.91520312319E+02  0.91520312319E+02  0.00000000000E+00 0. -1.
         21   -1    0    0  502  503 -0.00000000000E+00 -0.00000000000E+00 -0.45697837956E+03  0.45697837956E+03  0.00000000000E+00 0. -1.
          6    2    1    2  501    0  0.71930483294E+02  0.84724484541E+02 -0.16619022782E+03  0.26396386246E+03  0.17235282461E+03 0.  0.
         24    2    3    3    0    0  0.62323112572E+02  0.36034756865E+02 -0.20480552671E+02  0.10996259433E+03  0.80558333215E+02 0.  0.
         -6    2    1    2    0  503 -0.71930483294E+02 -0.84724484541E+02 -0.19926783942E+03  0.28453482942E+03  0.17000048417E+03 0.  0.
        -24    2    5    5    0    0  0.25155259132E+02 -0.33666326266E+02 -0.57434152083E+02  0.10517078126E+03  0.77433860936E+02 0.  0.
          5    1    3    3  501    0  0.96073707228E+01  0.48689727676E+02 -0.14570967515E+03  0.15400126813E+03  0.47000000000E+01 0. -1.
        -13    1    4    4    0    0 -0.62667486454E+01  0.34995812059E+02 -0.21137939327E+02  0.41361715139E+02  0.00000000000E+00 0.  1.
         14    1    4    4    0    0  0.68589861217E+02  0.10389448064E+01  0.65738665609E+00  0.68600879188E+02  0.00000000000E+00 0. -1.
         -5    1    5    5    0  503 -0.97085742427E+02 -0.51058158275E+02 -0.14183368733E+03  0.17936404816E+03  0.47000000000E+01 0.  1.
         13    1    6    6    0    0  0.25006092636E+02 -0.46505837870E+02 -0.69680416317E+02  0.87426872545E+02  0.00000000000E+00 0. -1.
        -14    1    6    6    0    0  0.14916649583E+00  0.12839511604E+02  0.12246264233E+02  0.17743908717E+02  0.00000000000E+00 0.  1.
</event>
<event>
12    1  0.9028446E-003  0.1748929E+03  0.7818608E-02  0.1173336E+00
         21   -1    0    0  503  502  0.00000000000E+00  0.00000000000E+00  0.41194482362E+03  0.41194482362E+03  0.00000000000E+00 0.  1.
         21   -1    0    0  501  503 -0.00000000000E+00 -0.00000000000E+00 -0.84664052379E+02  0.84664052379E+02  0.00000000000E+00 0.  1.
          6    2    1    2  501    0  0.62521480295E+01  0.29542499563E+02  0.72347286236E+02  0.18745096243E+03  0.17027003510E+03 0.  0.
         24    2    3    3    0    0  0.55804596832E+02 -0.19435740489E+02  0.61705832102E+02  0.11681355218E+03  0.79661127413E+02 0.  0.
         -6    2    1    2    0  502 -0.62521480295E+01 -0.29542499563E+02  0.25493348500E+03  0.30915791357E+03  0.17226632031E+03 0.  0.
        -24    2    5    5    0    0  0.16084677235E+01 -0.17226079316E+02  0.35862406727E+02  0.89549828964E+02  0.80210564605E+02 0.  0.
          5    1    3    3  501    0 -0.49552448803E+02  0.48978240052E+02  0.10641454134E+02  0.70637410251E+02  0.47000000000E+01 0. -1.
        -11    1    4    4    0    0 -0.62606467609E+01  0.22991577900E+02  0.17883088532E+02  0.29792838194E+02  0.00000000000E+00 0.  1.
         12    1    4    4    0    0  0.62065243593E+02 -0.42427318389E+02  0.43822743570E+02  0.87020713982E+02  0.00000000000E+00 0. -1.
         -5    1    5    5    0  502 -0.78606157530E+01 -0.12316420247E+02  0.21907107827E+03  0.21960808461E+03  0.47000000000E+01 0.  1.
         13    1    6    6    0    0  0.35814481752E+02  0.13093558787E+01 -0.11422982181E+01  0.35856608334E+02  0.00000000000E+00 0. -1.
        -14    1    6    6    0    0 -0.34206014029E+02 -0.18535435194E+02  0.37004704945E+02  0.53693220630E+02  0.00000000000E+00 0.  1.
</event>
<event>
12    1  0.9028446E-003  0.1879422E+03  0.7818608E-02  0.1160416E+00
         21   -1    0    0  501  502  0.00000000000E+00  0.00000000000E+00  0.86134184468E+03  0.86134184468E+03  0.00000000000E+00 0. -1.
         21   -1    0    0  502  503 -0.00000000000E+00 -0.00000000000E+00 -0.42014864235E+02  0.42014864235E+02  0.00000000000E+00 0.  1.
          6    2    1    2  501    0 -0.50213809328E+02 -0.55260137472E+02  0.33657852130E+03  0.38531389480E+03  0.17206564761E+03 0.  0.
         24    2    3    3    0    0  0.50781525170E+01 -0.26911977024E+02  0.30338119974E+03  0.31470956487E+03  0.79069056711E+02 0.  0.
         -6    2    1    2    0  503  0.50213809328E+02  0.55260137472E+02  0.48274845915E+03  0.51804281412E+03  0.17247368786E+03 0.  0.
        -24    2    5    5    0    0  0.57651313219E+02  0.67369539968E+01  0.44261224286E+03  0.45445962722E+03  0.85199147713E+02 0.  0.
          5    1    3    3  501    0 -0.55291961845E+02 -0.28348160448E+02  0.33197321558E+02  0.70604329925E+02  0.47000000000E+01 0. -1.
        -11    1    4    4    0    0  0.22860118045E+02  0.20785998737E+02  0.14840289381E+03  0.15158516296E+03  0.00000000000E+00 0.  1.
         12    1    4    4    0    0 -0.17781965528E+02 -0.47697975761E+02  0.15497830593E+03  0.16312440191E+03  0.00000000000E+00 0. -1.
         -5    1    5    5    0  503 -0.74375038909E+01  0.48523183475E+02  0.40136216286E+02  0.63583186900E+02  0.47000000000E+01 0.  1.
         13    1    6    6    0    0 -0.16791501950E+02 -0.17781333740E+02  0.92134615452E+02  0.95325325763E+02  0.00000000000E+00 0. -1.
        -14    1    6    6    0    0  0.74442815169E+02  0.24518287737E+02  0.35047762741E+03  0.35913430145E+03  0.00000000000E+00 0.  1.
</event>
<event>
12    1  0.9028446E-003  0.2887164E+03  0.7818608E-02  0.1091154E+00
         21   -1    0    0  503  502  0.00000000000E+00  0.00000000000E+00  0.44791631060E+03  0.44791631060E+03  0.00000000000E+00 0. -1.
         21   -1    0    0  501  503 -0.00000000000E+00 -0.00000000000E+00 -0.24957226746E+03  0.24957226746E+03  0.00000000000E+00 0. -1.
          6    2    1    2  501    0 -0.46593684738E+02 -0.22726859613E+03 -0.77469883142E+02  0.29892928655E+03  0.17185793353E+03 0.  0.
         24    2    3    3    0    0 -0.17216254475E+02 -0.22929141185E+03 -0.31696688677E+02  0.24429961948E+03  0.76201529134E+02 0.  0.
         -6    2    1    2    0  502  0.46593684738E+02  0.22726859613E+03  0.27581392628E+03  0.39855929150E+03  0.17015933904E+03 0.  0.
        -24    2    5    5    0    0 -0.39149145988E+01  0.17692929895E+03  0.26025240789E+03  0.32541960117E+03  0.82748399525E+02 0.  0.
          5    1    3    3  501    0 -0.29377430263E+02  0.20228157126E+01 -0.45773194465E+02  0.54629667067E+02  0.47000000000E+01 0. -1.
        -13    1    4    4    0    0  0.19468953006E+02 -0.15933187796E+02  0.18552884855E+01  0.25225952903E+02  0.00000000000E+00 0.  1.
         14    1    4    4    0    0 -0.36685207481E+02 -0.21335822405E+03 -0.33551977163E+02  0.21907366658E+03  0.00000000000E+00 0. -1.
         -5    1    5    5    0  502  0.50508599337E+02  0.50339297179E+02  0.15561518390E+02  0.73139690334E+02  0.47000000000E+01 0.  1.
         13    1    6    6    0    0  0.14439212557E+02  0.15499267907E+03  0.16889010163E+03  0.22968475755E+03  0.00000000000E+00 0. -1.
        -14    1    6    6    0    0 -0.18354127156E+02  0.21936619888E+02  0.91362306266E+02  0.95734843615E+02  0.00000000000E+00 0.  1.
</event>
<event>
12    1  0.9028446E-003  0.2173109E+03  0.7818608E-02  0.1136305E+00
         21   -1    0    0  501  502  0.00000000000E+00  0.00000000000E+00  0.58981297432E+03  0.58981297432E+03  0.00000000000E+00 0.  1.
         21   -1    0    0  502  503 -0.00000000000E+00 -0.00000000000E+00 -0.26092095734E+03  0.26092095734E+03  0.00000000000E+00 0.  1.
          6    2    1    2  501    0 -0.12607743645E+03  0.22285418781E+02  0.51909785841E+03  0.56193939207E+03  0.17297726405E+03 0.  0.
         24    2    3    3    0    0 -0.58883499204E+02 -0.25316015590E+02  0.42172399392E+03  0.43432794570E+03  0.81740260875E+02 0.  0.
         -6    2    1    2    0  503  0.12607743645E+03 -0.22285418781E+02 -0.19020584144E+03  0.28879453959E+03  0.17559004559E+03 0.  0.
        -24    2    5    5    0    0  0.11267681525E+02  0.17917886690E+01 -0.24583063145E+02  0.85782258105E+02  0.81388559752E+02 0.  0.
          5    1    3    3  501    0 -0.67193937250E+02  0.47601434371E+02  0.97373864491E+02  0.12761144636E+03  0.47000000000E+01 0. -1.
        -13    1    4    4    0    0 -0.21184496115E+02  0.24646149087E+02  0.23860010486E+03  0.24080329229E+03  0.00000000000E+00 0.  1.
         14    1    4    4    0    0 -0.37699003089E+02 -0.49962164677E+02  0.18312388906E+03  0.19352465341E+03  0.00000000000E+00 0. -1.
         -5    1    5    5    0  503  0.11480975493E+03 -0.24077207450E+02 -0.16562277829E+03  0.20301228149E+03  0.47000000000E+01 0.  1.
         13    1    6    6    0    0  0.23495711160E+02  0.21029109670E+02  0.18845802853E+02  0.36734672743E+02  0.00000000000E+00 0. -1.
        -14    1    6    6    0    0 -0.12228029635E+02 -0.19237321001E+02 -0.43428865997E+02  0.49047585362E+02  0.00000000000E+00 0.  1.
</event>
<event>
12    1  0.9028446E-003  0.2306398E+03  0.7818608E-02  0.1126239E+00
         21   -1    0    0  503  502  0.00000000000E+00  0.00000000000E+00  0.12706143838E+03  0.12706143838E+03  0.00000000000E+00 0.  1.
         21   -1    0    0  501  503 -0.00000000000E+00 -0.00000000000E+00 -0.50716566133E+03  0.50716566133E+03  0.00000000000E+00 0.  1.
          6    2    1    2  501    0  0.94192532270E+02 -0.12064979904E+03 -0.32280943511E+03  0.39657737326E+03  0.17216002567E+03 0.  0.
         24    2    3    3    0    0  0.81981847646E+02 -0.15204145312E+03 -0.29758774765E+03  0.35423637323E+03  0.84186185064E+02 0.  0.
         -6    2    1    2    0  502 -0.94192532270E+02  0.12064979904E+03 -0.57294787844E+02  0.23764972645E+03  0.17252852698E+03 0.  0.
        -24    2    5    5    0    0  0.42422737213E+01  0.43435880475E+01 -0.31933674562E+02  0.83112281754E+02  0.76492013726E+02 0.  0.
          5    1    3    3  501    0  0.12210684625E+02  0.31391654082E+02 -0.25221687461E+02  0.42341000028E+02  0.47000000000E+01 0. -1.
        -11    1    4    4    0    0  0.28455494774E+02 -0.80698520816E+02 -0.21987850537E+03  0.23594178004E+03  0.00000000000E+00 0.  1.
         12    1    4    4    0    0  0.53526352871E+02 -0.71342932309E+02 -0.77709242281E+02  0.11829459319E+03  0.00000000000E+00 0. -1.
         -5    1    5    5    0  502 -0.98434805991E+02  0.11630621099E+03 -0.25361113282E+02  0.15453744470E+03  0.47000000000E+01 0.  1.
         11    1    6    6    0    0 -0.10785515984E+02  0.38197661746E+02 -0.16804758040E+02  0.43102072000E+02  0.00000000000E+00 0. -1.
        -12    1    6    6    0    0  0.15027789705E+02 -0.33854073698E+02 -0.15128916523E+02  0.40010209754E+02  0.00000000000E+00 0.  1.
</event>
<event>
12    1  0.9028446E-003  0.2830290E+03  0.7818608E-02  0.1094062E+00
         21   -1    0    0  501  502  0.00000000000E+00  0.00000000000E+00  0.71656385432E+03  0.71656385432E+03  0.00000000000E+00 0. -1.
         21   -1    0    0  502  503 -0.00000000000E+00 -0.00000000000E+00 -0.11457695851E+03  0.11457695851E+03  0.00000000000E+00 0.  1.
          6    2    1    2  501    0 -0.67956537891E+01  0.22496392872E+03  0.23569967243E+03  0.36832013547E+03  0.17161129471E+03 0.  0.
         24    2    3    3    0    0  0.40659531315E+02  0.13818000742E+03  0.78476945179E+02  0.18251238656E+03  0.80032670736E+02 0.  0.
         -6    2    1    2    0  503  0.67956537891E+01 -0.22496392872E+03  0.36628722338E+03  0.46282067736E+03  0.17141090760E+03 0.  0.
        -24    2    5    5    0    0  0.50725014978E+02 -0.70792645061E+02  0.18643399018E+03  0.22184796319E+03  0.82911159317E+02 0.  0.
          5    1    3    3  501    0 -0.47455185105E+02  0.86783921298E+02  0.15722272725E+03  0.18580774891E+03  0.47000000000E+01 0. -1.
        -13    1    4    4    0    0 -0.13081761296E+02 -0.22523729868E+01  0.12766748954E+02  0.18417262053E+02  0.00000000000E+00 0.  1.
         14    1    4    4    0    0  0.53741292612E+02  0.14043238041E+03  0.65710196225E+02  0.16409512451E+03  0.00000000000E+00 0. -1.
         -5    1    5    5    0  503 -0.43929361189E+02 -0.15417128366E+03  0.17985323320E+03  0.24097271416E+03  0.47000000000E+01 0.  1.
         13    1    6    6    0    0  0.14929065439E+02 -0.32084984553E+01  0.11872691618E+03  0.11970485405E+03  0.00000000000E+00 0. -1.
        -14    1    6    6    0    0  0.35795949539E+02 -0.67584146605E+02  0.67707073997E+02  0.10214310914E+03  0.00000000000E+00 0.  1.
</event>
<event>
12    1  0.9028446E-003  0.1891199E+03  0.7818608E-02  0.1159446E+00
         21   -1    0    0  501  502  0.00000000000E+00  0.00000000000E+00  0.45613858094E+02  0.45613858094E+02  0.00000000000E+00 0.  1.
         21   -1    0    0  502  503 -0.00000000000E+00 -0.00000000000E+00 -0.80086978241E+03  0.80086978241E+03  0.00000000000E+00 0.  1.
          6    2    1    2  501    0 -0.30787135794E+02 -0.72398067922E+02 -0.31123751337E+03  0.36419107206E+03  0.17197970599E+03 0.  0.
         24    2    3    3    0    0 -0.57821879297E+02 -0.84687092857E+02 -0.14189124461E+03  0.19219646100E+03  0.79316334403E+02 0.  0.
         -6    2    1    2    0  503  0.30787135794E+02  0.72398067922E+02 -0.44401841095E+03  0.48229256844E+03  0.17106853699E+03 0.  0.
        -24    2    5    5    0    0 -0.14435755620E+02  0.88707824109E+02 -0.20002781702E+03  0.23356657869E+03  0.80403669071E+02 0.  0.
          5    1    3    3  501    0  0.27034743503E+02  0.12289024936E+02 -0.16934626876E+03  0.17199461106E+03  0.47000000000E+01 0. -1.
        -11    1    4    4    0    0 -0.33868913007E+02 -0.38082950419E+02 -0.12322649497E+02  0.52433406064E+02  0.00000000000E+00 0.  1.
         12    1    4    4    0    0 -0.23952966290E+02 -0.46604142439E+02 -0.12956859511E+03  0.13976305494E+03  0.00000000000E+00 0. -1.
         -5    1    5    5    0  503  0.45222891414E+02 -0.16309756187E+02 -0.24399059393E+03  0.24872598976E+03  0.47000000000E+01 0.  1.
         13    1    6    6    0    0 -0.12765616261E+02 -0.12663185306E+02 -0.43538370857E+02  0.47105275262E+02  0.00000000000E+00 0. -1.
        -14    1    6    6    0    0 -0.16701393594E+01  0.10137100941E+03 -0.15648944616E+03  0.18646130343E+03  0.00000000000E+00 0.  1.
</event>
<event>
12    1  0.9028446E-003  0.1869863E+03  0.7818608E-02  0.1161530E+00
         21   -1    0    0  501  502  0.00000000000E+00  0.00000000000E+00  0.16114261334E+03  0.16114261334E+03  0.00000000000E+00 0. -1.
         21   -1    0    0  502  503 -0.00000000000E+00 -0.00000000000E+00 -0.21566872152E+03  0.21566872152E+03  0.00000000000E+00 0. -1.
          6    2    1    2  501    0  0.64873819838E+02  0.28203236954E+02 -0.34270046969E+02  0.18873109987E+03  0.17158367306E+03 0.  0.
         24    2    3    3    0    0  0.58344510988E+02 -0.34698192715E+02 -0.60081223930E+02  0.12026557142E+03  0.79031687702E+02 0.  0.
         -6    2    1    2    0  503 -0.64873819838E+02 -0.28203236954E+02 -0.20256061203E+02  0.18808023500E+03  0.17308908604E+03 0.  0.
        -24    2    5    5    0    0 -0.94616600331E+02  0.24717691084E+02 -0.19456754534E+02  0.12718699640E+03  0.78960125664E+02 0.  0.
          5    1    3    3  501    0  0.65293088508E+01  0.62901429670E+02  0.25811176961E+02  0.68465528441E+02  0.47000000000E+01 0. -1.
        -11    1    4    4    0    0  0.65388826082E+02 -0.23915409560E+01 -0.20242104160E+02  0.68492049359E+02  0.00000000000E+00 0.  1.
         12    1    4    4    0    0 -0.70443150945E+01 -0.32306651759E+02 -0.39839119770E+02  0.51773522066E+02  0.00000000000E+00 0. -1.
         -5    1    5    5    0  503  0.29742780493E+02 -0.52920928038E+02 -0.79930666909E+00  0.60893238599E+02  0.47000000000E+01 0.  1.
         13    1    6    6    0    0 -0.57305492574E+02  0.46434182295E+02 -0.34557782749E+02  0.81451170115E+02  0.00000000000E+00 0. -1.
        -14    1    6    6    0    0 -0.37311107757E+02 -0.21716491211E+02  0.15101028215E+02  0.45735826283E+02  0.00000000000E+00 0.  1.
</event>
<event>
12    1  0.9028446E-003  0.1874379E+03  0.7818608E-02  0.1161360E+00
         21   -1    0    0  501  502  0.00000000000E+00  0.00000000000E+00  0.28681552436E+02  0.28681552436E+02  0.00000000000E+00 0. -1.
         21   -1    0    0  502  503 -0.00000000000E+00 -0.00000000000E+00 -0.13112717679E+04  0.13112717679E+04  0.00000000000E+00 0.  1.
          6    2    1    2  501    0 -0.26681957295E+02  0.65254072311E+02 -0.82454861749E+03  0.84504415156E+03  0.17102390095E+03 0.  0.
         24    2    3    3    0    0 -0.21383848789E+02  0.42448561137E+02 -0.20347061029E+03  0.22350723205E+03  0.79347616197E+02 0.  0.
         -6    2    1    2    0  503  0.26681957295E+02 -0.65254072311E+02 -0.45804159798E+03  0.49490916878E+03  0.17367486594E+03 0.  0.
        -24    2    5    5    0    0  0.56142703897E+02 -0.97244219771E+02 -0.39049872662E+03  0.41443908368E+03  0.81621425524E+02 0.  0.
          5    1    3    3  501    0 -0.52981085059E+01  0.22805511175E+02 -0.62107800719E+03  0.62153691951E+03  0.47000000000E+01 0. -1.
        -13    1    4    4    0    0  0.22410849495E+00  0.23081323125E+02 -0.19020693888E+03  0.19160239378E+03  0.00000000000E+00 0.  1.
         14    1    4    4    0    0 -0.21607957284E+02  0.19367238012E+02 -0.13263671409E+02  0.31904838276E+02  0.00000000000E+00 0. -1.
         -5    1    5    5    0  503 -0.29460746602E+02  0.31990147459E+02 -0.67542871361E+02  0.80470085103E+02  0.47000000000E+01 0.  1.
         13    1    6    6    0    0  0.70497839463E+02 -0.51794893351E+02 -0.29515195497E+03  0.30784303284E+03  0.00000000000E+00 0. -1.
        -14    1    6    6    0    0 -0.14355135565E+02 -0.45449326419E+02 -0.95346771657E+02  0.10659605084E+03  0.00000000000E+00 0.  1.
</event>
<event>
12    1  0.9028446E-003  0.1849600E+03  0.7818608E-02  0.1163189E+00
         21   -1    0    0  501  502  0.00000000000E+00  0.00000000000E+00  0.70544748208E+03  0.70544748208E+03  0.00000000000E+00 0. -1.
         21   -1    0    0  502  503 -0.00000000000E+00 -0.00000000000E+00 -0.98711078540E+02  0.98711078540E+02  0.00000000000E+00 0. -1.
          6    2    1    2  501    0 -0.27583998543E+02 -0.61251282470E+02  0.59065373900E+03  0.61893621959E+03  0.17232993919E+03 0.  0.
         24    2    3    3    0    0  0.48951404026E+02 -0.69510749077E+01  0.26642968184E+03  0.28137213733E+03  0.75769036571E+02 0.  0.
         -6    2    1    2    0  503  0.27583998543E+02  0.61251282470E+02  0.16082664545E+02  0.18522234104E+03  0.17186060322E+03 0.  0.
        -24    2    5    5    0    0  0.79407996627E+02  0.73895813298E+02  0.36236382837E+02  0.12800457021E+03  0.57496725147E+02 0.  0.
          5    1    3    3  501    0 -0.76535402569E+02 -0.54300207563E+02  0.32422405716E+03  0.33756408226E+03  0.47000000000E+01 0. -1.
        -11    1    4    4    0    0  0.16120923733E+02  0.32895177309E+02  0.14216329308E+03  0.14680728446E+03  0.00000000000E+00 0.  1.
         12    1    4    4    0    0  0.32830480293E+02 -0.39846252217E+02  0.12426638876E+03  0.13456485287E+03  0.00000000000E+00 0. -1.
         -5    1    5    5    0  503 -0.51823998084E+02 -0.12644530828E+02 -0.20153718293E+02  0.57217770826E+02  0.47000000000E+01 0.  1.
         11    1    6    6    0    0  0.50772898328E+02  0.90215547990E+01  0.10947844513E+02  0.52717463473E+02  0.00000000000E+00 0. -1.
        -12    1    6    6    0    0  0.28635098299E+02  0.64874258499E+02  0.25288538325E+02  0.75287106738E+02  0.00000000000E+00 0.  1.
</event>
<event>
12    1  0.9028446E-003  0.2791981E+03  0.7818608E-02  0.1096222E+00
         21   -1    0    0  503  502  0.00000000000E+00  0.00000000000E+00  0.53045978013E+03  0.53045978013E+03  0.00000000000E+00 0.  1.
         21   -1    0    0  501  503 -0.00000000000E+00 -0.00000000000E+00 -0.16490786357E+03  0.16490786357E+03  0.00000000000E+00 0.  1.
          6    2    1    2  501    0 -0.15277641374E+03 -0.15716202009E+03  0.67094523913E+02  0.28714676651E+03  0.17294813450E+03 0.  0.
         24    2    3    3    0    0 -0.15664451710E+03 -0.15928228353E+03  0.18031857037E+02  0.23766249607E+03  0.79056711191E+02 0.  0.
         -6    2    1    2    0  502  0.15277641374E+03  0.15716202009E+03  0.29845739265E+03  0.40822087718E+03  0.17183403675E+03 0.  0.
        -24    2    5    5    0    0  0.10353936344E+02  0.55637448419E+02  0.16028383247E+03  0.18527374566E+03  0.73707016059E+02 0.  0.
          5    1    3    3  501    0  0.38681033674E+01  0.21202634385E+01  0.49062666876E+02  0.49484270447E+02  0.47000000000E+01 0. -1.
        -11    1    4    4    0    0 -0.38765184975E+02 -0.94904360495E+02  0.36464184862E+01  0.10258105856E+03  0.00000000000E+00 0.  1.
         12    1    4    4    0    0 -0.11787933213E+03 -0.64377923030E+02  0.14385438550E+02  0.13508143751E+03  0.00000000000E+00 0. -1.
         -5    1    5    5    0  502  0.14242247739E+03  0.10152457167E+03  0.13817356018E+03  0.22294713152E+03  0.47000000000E+01 0.  1.
         11    1    6    6    0    0  0.79460603066E+01  0.50035626511E+02  0.39253969365E+02  0.64090388559E+02  0.00000000000E+00 0. -1.
        -12    1    6    6    0    0  0.24078760372E+01  0.56018219080E+01  0.12102986310E+03  0.12118335710E+03  0.00000000000E+00 0.  1.
</event>
<event>
12    1  0.9028446E-003  0.2101145E+03  0.7818608E-02  0.1142251E+00
         21   -1    0    0  501  502  0.00000000000E+00  0.00000000000E+00  0.32695185727E+03  0.32695185727E+03  0.00000000000E+00 0.  1.
         21   -1    0    0  502  503 -0.00000000000E+00 -0.00000000000E+00 -0.13316777369E+03  0.13316777369E+03  0.00000000000E+00 0.  1.
          6    2    1    2  501    0 -0.11774810226E+03  0.12771721091E+02  0.11171658845E+03  0.23454663109E+03  0.16883066539E+03 0.  0.
         24    2    3    3    0    0 -0.12959687851E+03 -0.33552379542E+02  0.10077444897E+03  0.18527050894E+03  0.79047826186E+02 0.  0.
         -6    2    1    2    0  503  0.11774810226E+03 -0.12771721091E+02  0.82067495139E+02  0.22557299986E+03  0.17355221711E+03 0.  0.
        -24    2    5    5    0    0 -0.85864015647E+01 -0.16763628848E+02  0.23449265914E+02  0.86165220372E+02  0.80745474089E+02 0.  0.
          5    1    3    3  501    0  0.11848776251E+02  0.46324100633E+02  0.10942139478E+02  0.49276122153E+02  0.47000000000E+01 0. -1.
        -11    1    4    4    0    0 -0.86834967071E+02  0.14013396158E+02  0.38551009651E+02  0.96035759607E+02  0.00000000000E+00 0.  1.
         12    1    4    4    0    0 -0.42761911443E+02 -0.47565775700E+02  0.62223439317E+02  0.89234749334E+02  0.00000000000E+00 0. -1.
         -5    1    5    5    0  503  0.12633450383E+03  0.39919077572E+01  0.58618229226E+02  0.13940777949E+03  0.47000000000E+01 0.  1.
         11    1    6    6    0    0  0.35878447348E+02 -0.13117883970E+02  0.12903243461E+02  0.40321651204E+02  0.00000000000E+00 0. -1.
        -12    1    6    6    0    0 -0.44464848913E+02 -0.36457448777E+01  0.10546022452E+02  0.45843569168E+02  0.00000000000E+00 0.  1.
</event>
<event>
12    1  0.9028446E-003  0.2375624E+03  0.7818608E-02  0.1121477E+00
         21   -1    0    0  503  502  0.00000000000E+00  0.00000000000E+00  0.70721622437E+03  0.70721622437E+03  0.00000000000E+00 0. -1.
         21   -1    0    0  501  503 -0.00000000000E+00 -0.00000000000E+00 -0.10080848366E+03  0.10080848366E+03  0.00000000000E+00 0. -1.
          6    2    1    2  501    0 -0.22794700972E+02 -0.16305452711E+03  0.11818360756E+03  0.26507102217E+03  0.17084760606E+03 0.  0.
         24    2    3    3    0    0 -0.89530483179E+01 -0.80867741382E+01  0.48594083806E+02  0.94567686063E+02  0.80225365542E+02 0.  0.
         -6    2    1    2    0  502  0.22794700972E+02  0.16305452711E+03  0.48822413315E+03  0.54295368586E+03  0.17125864532E+03 0.  0.
        -24    2    5    5    0    0 -0.24681071128E+02  0.19224302314E+02  0.17043552992E+03  0.19088441875E+03  0.80061616218E+02 0.  0.
          5    1    3    3  501    0 -0.13841652654E+02 -0.15496775297E+03  0.69589523750E+02  0.17050333611E+03  0.47000000000E+01 0. -1.
        -13    1    4    4    0    0 -0.26209867766E+02 -0.22130026533E+02  0.60339726567E+02  0.69408773544E+02  0.00000000000E+00 0.  1.
         14    1    4    4    0    0  0.17256819448E+02  0.14043252395E+02 -0.11745642761E+02  0.25158912520E+02  0.00000000000E+00 0. -1.
         -5    1    5    5    0  502  0.47475772099E+02  0.14383022479E+03  0.31778860323E+03  0.35206926711E+03  0.47000000000E+01 0.  1.
         13    1    6    6    0    0 -0.36819313807E+02  0.43761314237E+02  0.98255611107E+02  0.11368764052E+03  0.00000000000E+00 0. -1.
        -14    1    6    6    0    0  0.12138242680E+02 -0.24537011923E+02  0.72179918811E+02  0.77196778230E+02  0.00000000000E+00 0.  1.
</event>
<event>
12    1  0.9028446E-003  0.1718445E+03  0.7818608E-02  0.1176349E+00
         21   -1    0    0  503  502  0.00000000000E+00  0.00000000000E+00  0.80917767066E+02  0.80917767066E+02  0.00000000000E+00 0. -1.
         21   -1    0    0  501  503 -0.00000000000E+00 -0.00000000000E+00 -0.64928497387E+03  0.64928497387E+03  0.00000000000E+00 0. -1.
          6    2    1    2  501    0  0.55625805811E+01 -0.31887923498E+01 -0.52648372865E+03  0.55332773983E+03  0.17013336074E+03 0.  0.
         24    2    3    3    0    0  0.38530364026E+01 -0.34303797641E+02 -0.14147151905E+03  0.16702791115E+03  0.81807921255E+02 0.  0.
         -6    2    1    2    0  502 -0.55625805811E+01  0.31887923498E+01 -0.41883478156E+02  0.17687500111E+03  0.17172486592E+03 0.  0.
        -24    2    5    5    0    0  0.55812583099E+02  0.33242011831E+02 -0.15763130151E+02  0.10356422906E+03  0.79101185112E+02 0.  0.
          5    1    3    3  501    0  0.17095441786E+01  0.31115005291E+02 -0.38501220960E+03  0.38629982868E+03  0.47000000000E+01 0. -1.
        -11    1    4    4    0    0  0.33241561034E+02 -0.51634649601E+01 -0.21026748565E+02  0.39670983169E+02  0.00000000000E+00 0.  1.
         12    1    4    4    0    0 -0.29388524631E+02 -0.29140332681E+02 -0.12044477048E+03  0.12735692798E+03  0.00000000000E+00 0. -1.
         -5    1    5    5    0  502 -0.61375163680E+02 -0.30053219481E+02 -0.26120348004E+02  0.73310772045E+02  0.47000000000E+01 0.  1.
         11    1    6    6    0    0  0.59078781518E+02  0.43475448775E+02  0.11512740266E+02  0.74249311514E+02  0.00000000000E+00 0. -1.
        -12    1    6    6    0    0 -0.32661984195E+01 -0.10233436944E+02 -0.27275870417E+02  0.29314917547E+02  0.00000000000E+00 0.  1.
</event>
<event>
12    1  0.9028446E-003  0.1980359E+03  0.7818608E-02  0.1151899E+00
         21   -1    0    0  501  502  0.00000000000E+00  0.00000000000E+00  0.91591575598E+02  0.91591575598E+02  0.00000000000E+00 0. -1.
         21   -1    0    0  502  503 -0.00000000000E+00 -0.00000000000E+00 -0.45836337788E+03  0.45836337788E+03  0.00000000000E+00 0.  1.
          6    2    1    2  501    0 -0.18820458987E+02  0.97034980105E+02 -0.10629496278E+03  0.22274493417E+03  0.16895765607E+03 0.  0.
         24    2    3    3    0    0 -0.77020975898E+02  0.62940639427E+02 -0.92343500860E+02  0.15370539821E+03  0.72140643668E+02 0.  0.
         -6    2    1    2    0  503  0.18820458987E+02 -0.97034980105E+02 -0.26047683950E+03  0.32721001931E+03  0.17160482447E+03 0.  0.
        -24    2    5    5    0    0 -0.84660831875E+01  0.12266777203E+02 -0.14736852532E+03  0.16750087658E+03  0.78210696289E+02 0.  0.
          5    1    3    3  501    0  0.58200516911E+02  0.34094340678E+02 -0.13951461924E+02  0.69039535954E+02  0.47000000000E+01 0. -1.
        -11    1    4    4    0    0 -0.69821900175E+02  0.26242536742E+02 -0.89051226885E+02  0.11616320196E+03  0.00000000000E+00 0.  1.
         12    1    4    4    0    0 -0.71990757232E+01  0.36698102684E+02 -0.32922739743E+01  0.37542196257E+02  0.00000000000E+00 0. -1.
         -5    1    5    5    0  503  0.27286542175E+02 -0.10930175731E+03 -0.11310831418E+03  0.15970914273E+03  0.47000000000E+01 0.  1.
         13    1    6    6    0    0  0.21282596971E+02  0.11374162348E+02 -0.13164931439E+03  0.13384267811E+03  0.00000000000E+00 0. -1.
        -14    1    6    6    0    0 -0.29748680158E+02  0.89261485458E+00 -0.15719210925E+02  0.33658198475E+02  0.00000000000E+00 0.  1.
</event>
<event>
12    1  0.9028446E-003  0.2341408E+03  0.7818608E-02  0.1123891E+00
         21   -1    0    0  503  502  0.00000000000E+00  0.00000000000E+00  0.91952581877E+02  0.91952581877E+02  0.00000000000E+00 0. -1.
         21   -1    0    0  501  503 -0.00000000000E+00 -0.00000000000E+00 -0.60073535072E+03  0.60073535072E+03  0.00000000000E+00 0. -1.
          6    2    1    2  501    0  0.15443111992E+03  0.37316812874E+02 -0.28998640946E+03  0.37222928020E+03  0.17094152229E+03 0.  0.
         24    2    3    3    0    0  0.13016187547E+03 -0.10845311113E+02 -0.12206338332E+03  0.19579566912E+03  0.79854492025E+02 0.  0.
         -6    2    1    2    0  502 -0.15443111992E+03 -0.37316812874E+02 -0.21879635939E+03  0.32045865240E+03  0.17198949298E+03 0.  0.
        -24    2    5    5    0    0 -0.14217830640E+03 -0.85655321147E+02 -0.17302325896E+03  0.25260580026E+03  0.79505580502E+02 0.  0.
          5    1    3    3  501    0  0.24269244443E+02  0.48162123987E+02 -0.16792302614E+03  0.17643361108E+03  0.47000000000E+01 0. -1.
        -13    1    4    4    0    0  0.67286209003E+01  0.22086392360E+01  0.11472815011E+02  0.13482503876E+02  0.00000000000E+00 0.  1.
         14    1    4    4    0    0  0.12343325457E+03 -0.13053950349E+02 -0.13353619834E+03  0.18231316524E+03  0.00000000000E+00 0. -1.
         -5    1    5    5    0  502 -0.12252813514E+02  0.48338508273E+02 -0.45773100429E+02  0.67852852143E+02  0.47000000000E+01 0.  1.
         11    1    6    6    0    0 -0.44369407795E+02 -0.10700909793E+02 -0.75056804458E+01  0.46254611202E+02  0.00000000000E+00 0. -1.
        -12    1    6    6    0    0 -0.97808898609E+02 -0.74954411354E+02 -0.16551757851E+03  0.20635118906E+03  0.00000000000E+00 0.  1.
</event>
<event>
12    1  0.9028446E-003  0.2059404E+03  0.7818608E-02  0.1145415E+00
         21   -1    0    0  501  502  0.00000000000E+00  0.00000000000E+00  0.36574554221E+03  0.36574554221E+03  0.00000000000E+00 0. -1.
         21   -1    0    0  502  503 -0.00000000000E+00 -0.00000000000E+00 -0.23343067285E+03  0.23343067285E+03  0.00000000000E+00 0. -1.
          6    2    1    2  501    0 -0.11143469872E+03 -0.71721377081E+02  0.28037864762E+03  0.34788453313E+03  0.15763823884E+03 0.  0.
         24    2    3    3    0    0 -0.59008437023E+02 -0.57798671418E+02  0.67926416061E+02  0.12856650984E+03  0.71362927316E+02 0.  0.
         -6    2    1    2    0  503  0.11143469872E+03  0.71721377081E+02 -0.14806377825E+03  0.25129168193E+03  0.15382775747E+03 0.  0.
        -24    2    5    5    0    0  0.24783316304E+02  0.38815265529E+02 -0.12535990376E+03  0.15574677014E+03  0.80131849679E+02 0.  0.
          5    1    3    3  501    0 -0.52426261695E+02 -0.13922705663E+02  0.21245223156E+03  0.21931802329E+03  0.47000000000E+01 0. -1.
        -13    1    4    4    0    0  0.12435804856E+02 -0.44421008694E+01 -0.42224631747E+01  0.13864007278E+02  0.00000000000E+00 0.  1.
         14    1    4    4    0    0 -0.71444241879E+02 -0.53356570548E+02  0.72148879236E+02  0.11470250256E+03  0.00000000000E+00 0. -1.
         -5    1    5    5    0  503  0.86651382414E+02  0.32906111552E+02 -0.22703874491E+02  0.95544911788E+02  0.47000000000E+01 0.  1.
         11    1    6    6    0    0  0.15406597709E+02  0.42309699555E+02 -0.13471948009E+03  0.14204510638E+03  0.00000000000E+00 0. -1.
        -12    1    6    6    0    0  0.93767185951E+01 -0.34944340262E+01  0.93595763309E+01  0.13701663763E+02  0.00000000000E+00 0.  1.
</event>
<event>
12    1  0.9028446E-003  0.1789644E+03  0.7818608E-02  0.1168905E+00
         21   -1    0    0  503  502  0.00000000000E+00  0.00000000000E+00  0.28000502720E+03  0.28000502720E+03  0.00000000000E+00 0. -1.
         21   -1    0    0  501  503 -0.00000000000E+00 -0.00000000000E+00 -0.11523212386E+03  0.11523212386E+03  0.00000000000E+00 0. -1.
          6    2    1    2  501    0 -0.42192455647E+02  0.30815924029E+02  0.10158419808E+03  0.20544498191E+03  0.17075850434E+03 0.  0.
         24    2    3    3    0    0 -0.42759781600E+02 -0.42991844185E+02  0.55946076519E+02  0.11853792439E+03  0.85115089446E+02 0.  0.
         -6    2    1    2    0  502  0.42192455647E+02 -0.30815924029E+02  0.63188705265E+02  0.18979216915E+03  0.17116784310E+03 0.  0.
        -24    2    5    5    0    0  0.83347558839E+02  0.15385225320E+02  0.36972635406E+02  0.12243000589E+03  0.80240948723E+02 0.  0.
          5    1    3    3  501    0  0.56732595306E+00  0.73807768215E+02  0.45638121560E+02  0.86907057522E+02  0.47000000000E+01 0. -1.
        -11    1    4    4    0    0 -0.23859292306E+02 -0.49866209215E+02 -0.38854699764E+01  0.55416617794E+02  0.00000000000E+00 0.  1.
         12    1    4    4    0    0 -0.18900489294E+02  0.68743650292E+01  0.59831546495E+02  0.63121306594E+02  0.00000000000E+00 0. -1.
         -5    1    5    5    0  502 -0.41155103192E+02 -0.46201149350E+02  0.26216069859E+02  0.67362163258E+02  0.47000000000E+01 0.  1.
         13    1    6    6    0    0  0.25589362100E+02 -0.19626660770E+02  0.43968210398E+02  0.54527284833E+02  0.00000000000E+00 0. -1.
        -14    1    6    6    0    0  0.57758196739E+02  0.35011886090E+02 -0.69955749916E+01  0.67902721062E+02  0.00000000000E+00 0.  1.
</event>
<event>
12    1  0.9028446E-003  0.3507308E+03  0.7818608E-02  0.1062405E+00
         21   -1    0    0  501  502  0.00000000000E+00  0.00000000000E+00  0.22599416747E+03  0.22599416747E+03  0.00000000000E+00 0.  1.
         21   -1    0    0  502  503 -0.00000000000E+00 -0.00000000000E+00 -0.54298061955E+03  0.54298061955E+03  0.00000000000E+00 0. -1.
          6    2    1    2  501    0  0.10423553803E+03 -0.28757135006E+03 -0.15615921541E+03  0.38312831467E+03  0.16982130661E+03 0.  0.
         24    2    3    3    0    0  0.46646791829E+02 -0.12013976324E+03 -0.13935900987E+03  0.20521221967E+03  0.77984841925E+02 0.  0.
         -6    2    1    2    0  503 -0.10423553803E+03  0.28757135006E+03 -0.16082723668E+03  0.38584647235E+03  0.17160935697E+03 0.  0.
        -24    2    5    5    0    0 -0.81520037550E+02  0.76644855848E+02 -0.80224822344E+02  0.15885568152E+03  0.79241119253E+02 0.  0.
          5    1    3    3  501    0  0.57588746200E+02 -0.16743158682E+03 -0.16800205543E+02  0.17791609500E+03  0.47000000000E+01 0. -1.
        -13    1    4    4    0    0 -0.82005451115E+01 -0.22484007889E+01 -0.41800993522E+02  0.42657089747E+02  0.00000000000E+00 0.  1.
         14    1    4    4    0    0  0.54847336941E+02 -0.11789136245E+03 -0.97558016343E+02  0.16255512992E+03  0.00000000000E+00 0. -1.
         -5    1    5    5    0  503 -0.22715500480E+02  0.21092649422E+03 -0.80602414331E+02  0.22699079083E+03  0.47000000000E+01 0.  1.
         13    1    6    6    0    0 -0.13044067337E+02 -0.16452678609E+01  0.13501456659E+02  0.18845262825E+02  0.00000000000E+00 0. -1.
        -14    1    6    6    0    0 -0.68475970212E+02  0.78290123709E+02 -0.93726279003E+02  0.14001041869E+03  0.00000000000E+00 0.  1.
</event>
<event>
12    1  0.9028446E-003  0.1774338E+03  0.7818608E-02  0.1170899E+00
         21   -1    0    0  501  502  0.00000000000E+00  0.00000000000E+00  0.29176765286E+02  0.29176765286E+02  0.00000000000E+00 0.  1.
         21   -1    0    0  502  503 -0.00000000000E+00 -0.00000000000E+00 -0.12752758019E+04  0.12752758019E+04  0.00000000000E+00 0.  1.
          6    2    1    2  501    0  0.17739683972E+02  0.26857378346E+02 -0.89161415534E+03  0.90909765374E+03  0.17448990482E+03 0.  0.
         24    2    3    3    0    0 -0.35665679303E+02 -0.97522894990E+00 -0.24276625100E+03  0.25744400355E+03  0.77903598016E+02 0.  0.
         -6    2    1    2    0  503 -0.17739683972E+02 -0.26857378346E+02 -0.35448488123E+03  0.39535491340E+03  0.17207545254E+03 0.  0.
        -24    2    5    5    0    0 -0.39698850649E+02  0.40931266041E+02 -0.25349683407E+03  0.27166909781E+03  0.79322673541E+02 0.  0.
          5    1    3    3  501    0  0.53405363275E+02  0.27832607296E+02 -0.64884790433E+03  0.65165365020E+03  0.47000000000E+01 0. -1.
        -13    1    4    4    0    0 -0.39029966753E+02 -0.22213727961E+02 -0.22532484433E+03  0.22975655265E+03  0.00000000000E+00 0.  1.
         14    1    4    4    0    0  0.33642874501E+01  0.21238499011E+02 -0.17441406678E+02  0.27687450897E+02  0.00000000000E+00 0. -1.
         -5    1    5    5    0  503  0.21959166677E+02 -0.67788644387E+02 -0.10098804716E+03  0.12368581559E+03  0.47000000000E+01 0.  1.
         13    1    6    6    0    0 -0.57213520340E+02  0.38172617406E+02 -0.13159877391E+03  0.14848829221E+03  0.00000000000E+00 0. -1.
        -14    1    6    6    0    0  0.17514669691E+02  0.27586486349E+01 -0.12189806016E+03  0.12318080559E+03  0.00000000000E+00 0.  1.
</event>
<event>
12    1  0.9028446E-003  0.2232768E+03  0.7818608E-02  0.1132619E+00
         21   -1    0    0  503  502  0.00000000000E+00  0.00000000000E+00  0.19446284266E+03  0.19446284266E+03  0.00000000000E+00 0. -1.
         21   -1    0    0  501  503 -0.00000000000E+00 -0.00000000000E+00 -0.25267466533E+03  0.25267466533E+03  0.00000000000E+00 0.  1.
          6    2    1    2  501    0 -0.79108330776E+02  0.11656285815E+03 -0.27232877283E+01  0.21706903954E+03  0.16512578155E+03 0.  0.
         24    2    3    3    0    0 -0.29740694190E+02  0.53831357522E+01 -0.32507111936E+02  0.91740429880E+02  0.80287652268E+02 0.  0.
         -6    2    1    2    0  502  0.79108330776E+02 -0.11656285815E+03 -0.55488534942E+02  0.23006846846E+03  0.17322671494E+03 0.  0.
        -24    2    5    5    0    0  0.60793018417E+02 -0.68069412981E+02  0.34863053289E+02  0.12579687890E+03  0.79247625742E+02 0.  0.
          5    1    3    3  501    0 -0.49367636586E+02  0.11117972240E+03  0.29783824208E+02  0.12532860966E+03  0.47000000000E+01 0. -1.
        -13    1    4    4    0    0 -0.35300343954E+02 -0.13377648367E+02  0.14798911220E+02  0.40547299940E+02  0.00000000000E+00 0.  1.
         14    1    4    4    0    0  0.55596497644E+01  0.18760784119E+02 -0.47306023156E+02  0.51193129941E+02  0.00000000000E+00 0. -1.
         -5    1    5    5    0  502  0.18315312359E+02 -0.48493445173E+02 -0.90351588232E+02  0.10427158955E+03  0.47000000000E+01 0.  1.
         13    1    6    6    0    0 -0.14065857441E+02  0.53275472376E+01  0.99668042110E+01  0.18043511058E+02  0.00000000000E+00 0. -1.
        -14    1    6    6    0    0  0.74858875858E+02 -0.73396960219E+02  0.24896249078E+02  0.10775336785E+03  0.00000000000E+00 0.  1.
</event>
<event>
12    1  0.9028446E-003  0.1807445E+03  0.7818608E-02  0.1167296E+00
         21   -1    0    0  501  502  0.00000000000E+00  0.00000000000E+00  0.56799703930E+03  0.56799703930E+03  0.00000000000E+00 0.  1.
         21   -1    0    0  502  503 -0.00000000000E+00 -0.00000000000E+00 -0.66404688969E+02  0.66404688969E+02  0.00000000000E+00 0.  1.
          6    2    1    2  501    0 -0.49013335151E+02 -0.24500010262E+02  0.13241495849E+03  0.22335365435E+03  0.17132009851E+03 0.  0.
         24    2    3    3    0    0 -0.55985824817E+02  0.21032185326E+02  0.14513280445E+03  0.17533667763E+03  0.78119486650E+02 0.  0.
         -6    2    1    2    0  503  0.49013335151E+02  0.24500010262E+02  0.36917739185E+03  0.41104807392E+03  0.17223825039E+03 0.  0.
        -24    2    5    5    0    0  0.41920805967E+02 -0.24206974561E+02  0.95486763353E+02  0.13292701311E+03  0.78794271674E+02 0.  0.
          5    1    3    3  501    0  0.69724896655E+01 -0.45532195587E+02 -0.12717845967E+02  0.48016976718E+02  0.47000000000E+01 0. -1.
        -11    1    4    4    0    0 -0.43796846391E+01  0.20761547900E+02 -0.88056197317E-01  0.21218653648E+02  0.00000000000E+00 0.  1.
         12    1    4    4    0    0 -0.51606140178E+02  0.27063742592E+00  0.14522086065E+03  0.15411802398E+03  0.00000000000E+00 0. -1.
         -5    1    5    5    0  503  0.70925291843E+01  0.48706984822E+02  0.27369062850E+03  0.27812106081E+03  0.47000000000E+01 0.  1.
         13    1    6    6    0    0 -0.23534430525E+02 -0.72337096923E+01  0.29793996989E+02  0.38650720985E+02  0.00000000000E+00 0. -1.
        -14    1    6    6    0    0  0.65455236492E+02 -0.16973264868E+02  0.65692766363E+02  0.94276292126E+02  0.00000000000E+00 0.  1.
</event>
<event>
12    1  0.9028446E-003  0.2023545E+03  0.7818608E-02  0.1148626E+00
         21   -1    0    0  503  502  0.00000000000E+00  0.00000000000E+00  0.10856713118E+04  0.10856713118E+04  0.00000000000E+00 0. -1.
         21   -1    0    0  501  503 -0.00000000000E+00 -0.00000000000E+00 -0.90903782991E+02  0.90903782991E+02  0.00000000000E+00 0. -1.
          6    2    1    2  501    0  0.12335392788E+02  0.10668834502E+03  0.42141552258E+02  0.20269439752E+03  0.16665696349E+03 0.  0.
         24    2    3    3    0    0 -0.16893407510E+01  0.13378533137E+03  0.56607130865E+02  0.16860212882E+03  0.85562502396E+02 0.  0.
         -6    2    1    2    0  502 -0.12335392788E+02 -0.10668834502E+03  0.95262597651E+03  0.97388069723E+03  0.17150159312E+03 0.  0.
        -24    2    5    5    0    0 -0.72097488411E+02 -0.87157968535E+02  0.70140768453E+03  0.71487169372E+03  0.79210095563E+02 0.  0.
          5    1    3    3  501    0  0.14024733539E+02 -0.27096986355E+02 -0.14465578607E+02  0.34092268695E+02  0.47000000000E+01 0. -1.
        -13    1    4    4    0    0 -0.58952599698E+01  0.54769682368E+01  0.38048789276E+02  0.38890379743E+02  0.00000000000E+00 0.  1.
         14    1    4    4    0    0  0.42059192188E+01  0.12830836313E+03  0.18558341590E+02  0.12971174908E+03  0.00000000000E+00 0. -1.
         -5    1    5    5    0  502  0.59762095622E+02 -0.19530376482E+02  0.25121829197E+03  0.25900900351E+03  0.47000000000E+01 0.  1.
         13    1    6    6    0    0 -0.47788386209E+02 -0.29677866893E+02  0.51989695754E+03  0.52293149848E+03  0.00000000000E+00 0. -1.
        -14    1    6    6    0    0 -0.24309102202E+02 -0.57480101642E+02  0.18151072699E+03  0.19194019524E+03  0.00000000000E+00 0.  1.
</event>
<event>
12    1  0.9028446E-003  0.2089621E+03  0.7818608E-02  0.1142402E+00
         21   -1    0    0  503  502  0.00000000000E+00  0.00000000000E+00  0.28553243680E+03  0.28553243680E+03  0.00000000000E+00 0. -1.
         21   -1    0    0  501  503 -0.00000000000E+00 -0.00000000000E+00 -0.15692820621E+03  0.15692820621E+03  0.00000000000E+00 0. -1.
          6    2    1    2  501    0  0.96293839027E+02  0.69117258396E+02  0.28783482086E+02  0.21088052623E+03  0.17202444204E+03 0.  0.
         24    2    3    3    0    0  0.12473397350E+03  0.29011597985E+02 -0.54694782263E+01  0.15077511436E+03  0.79391327961E+02 0.  0.
         -6    2    1    2    0  502 -0.96293839027E+02 -0.69117258396E+02  0.99820748509E+02  0.23158011677E+03  0.17209145769E+03 0.  0.
        -24    2    5    5    0    0 -0.29335735581E+02 -0.97358078375E+02  0.89676497784E+02  0.15805510502E+03  0.81242606816E+02 0.  0.
          5    1    3    3  501    0 -0.28440134477E+02  0.40105660411E+02  0.34252960312E+02  0.60105411871E+02  0.47000000000E+01 0. -1.
        -13    1    4    4    0    0  0.65950043564E+02 -0.19361123634E+02 -0.23321387182E+02  0.72582011921E+02  0.00000000000E+00 0.  1.
         14    1    4    4    0    0  0.58783929940E+02  0.48372721620E+02  0.17851908955E+02  0.78193102441E+02  0.00000000000E+00 0. -1.
         -5    1    5    5    0  502 -0.66958103446E+02  0.28240819979E+02  0.10144250725E+02  0.73525011751E+02  0.47000000000E+01 0.  1.
         13    1    6    6    0    0  0.20083849321E+02 -0.27841453917E+01  0.28744687073E+02  0.35176263361E+02  0.00000000000E+00 0. -1.
        -14    1    6    6    0    0 -0.49419584902E+02 -0.94573932983E+02  0.60931810711E+02  0.12287884166E+03  0.00000000000E+00 0.  1.
</event>
<event>
12    1  0.9028446E-003  0.3439995E+03  0.7818608E-02  0.1065185E+00
         21   -1    0    0  503  502  0.00000000000E+00  0.00000000000E+00  0.21224481377E+03  0.21224481377E+03  0.00000000000E+00 0.  1.
         21   -1    0    0  501  503 -0.00000000000E+00 -0.00000000000E+00 -0.61823489788E+03  0.61823489788E+03  0.00000000000E+00 0. -1.
          6    2    1    2  501    0 -0.80335856398E+02  0.28682877098E+03 -0.33461805836E+03  0.47990091557E+03  0.17207861605E+03 0.  0.
         24    2    3    3    0    0 -0.19482695712E+01  0.16395415962E+03 -0.25594436641E+03  0.31420715078E+03  0.79585505553E+02 0.  0.
         -6    2    1    2    0  502  0.80335856398E+02 -0.28682877098E+03 -0.71372025754E+02  0.35057879608E+03  0.17054891532E+03 0.  0.
        -24    2    5    5    0    0  0.13176903075E+02 -0.23259019886E+03 -0.24928971007E+02  0.25244014390E+03  0.93982664768E+02 0.  0.
          5    1    3    3  501    0 -0.78387586826E+02  0.12287461136E+03 -0.78673691948E+02  0.16569376479E+03  0.47000000000E+01 0. -1.
        -13    1    4    4    0    0  0.54006623949E+01  0.20170073193E+02 -0.99213449098E+02  0.10138691971E+03  0.00000000000E+00 0.  1.
         14    1    4    4    0    0 -0.73489319661E+01  0.14378408643E+03 -0.15673091731E+03  0.21282023107E+03  0.00000000000E+00 0. -1.
         -5    1    5    5    0  502  0.67158953323E+02 -0.54238572116E+02 -0.46443054747E+02  0.98138652175E+02  0.47000000000E+01 0.  1.
         13    1    6    6    0    0 -0.12832085459E+02 -0.51541843179E+02 -0.43415564983E+02  0.68601277672E+02  0.00000000000E+00 0. -1.
        -14    1    6    6    0    0  0.26008988533E+02 -0.18104835568E+03  0.18486593976E+02  0.18383886623E+03  0.00000000000E+00 0.  1.
</event>
<event>
12    1  0.9028446E-003  0.1756932E+03  0.7818608E-02  0.1172163E+00
         21   -1    0    0  503  502  0.00000000000E+00  0.00000000000E+00  0.13765389619E+03  0.13765389619E+03  0.00000000000E+00 0.  1.
         21   -1    0    0  501  503 -0.00000000000E+00 -0.00000000000E+00 -0.25770682332E+03  0.25770682332E+03  0.00000000000E+00 0.  1.
          6    2    1    2  501    0  0.14846876971E+02 -0.31159988661E+02  0.11809907688E+02  0.17608969161E+03  0.17226935573E+03 0.  0.
         24    2    3    3    0    0 -0.46432803544E+02  0.17000560991E+02  0.27524116940E+02  0.96442568881E+02  0.78093327245E+02 0.  0.
         -6    2    1    2    0  502 -0.14846876971E+02  0.31159988661E+02 -0.13186283482E+03  0.21927102790E+03  0.17175739233E+03 0.  0.
        -24    2    5    5    0    0 -0.12464077087E+02 -0.13265545512E+02 -0.14968137864E+03  0.17111610784E+03  0.80900428529E+02 0.  0.
          5    1    3    3  501    0  0.61279680514E+02 -0.48160549652E+02 -0.15714209252E+02  0.79647122730E+02  0.47000000000E+01 0. -1.
        -13    1    4    4    0    0 -0.13155901920E+02 -0.28588695389E+02  0.24564916398E+02  0.39922755127E+02  0.00000000000E+00 0.  1.
         14    1    4    4    0    0 -0.33276901624E+02  0.45589256379E+02  0.29592005426E+01  0.56519813754E+02  0.00000000000E+00 0. -1.
         -5    1    5    5    0  502 -0.23827998835E+01  0.44425534174E+02  0.17818543818E+02  0.48154920057E+02  0.47000000000E+01 0.  1.
         11    1    6    6    0    0  0.21275931480E+02  0.24366550674E+02 -0.56099715693E+02  0.64757796078E+02  0.00000000000E+00 0. -1.
        -12    1    6    6    0    0 -0.33740008567E+02 -0.37632096186E+02 -0.93581662948E+02  0.10635831177E+03  0.00000000000E+00 0.  1.
</event>
<event>
12    1  0.9028446E-003  0.1756168E+03  0.7818608E-02  0.1173966E+00
         21   -1    0    0  503  502  0.00000000000E+00  0.00000000000E+00  0.33338566730E+03  0.33338566730E+03  0.00000000000E+00 0. -1.
         21   -1    0    0  501  503 -0.00000000000E+00 -0.00000000000E+00 -0.14532725849E+03  0.14532725849E+03  0.00000000000E+00 0. -1.
          6    2    1    2  501    0 -0.36712862601E+02 -0.18131013298E+01 -0.56530580984E+02  0.17760655813E+03  0.16430843341E+03 0.  0.
         24    2    3    3    0    0  0.17403917334E+02  0.47950372535E+02 -0.26389231687E+02  0.98009949291E+02  0.79419292657E+02 0.  0.
         -6    2    1    2    0  502  0.36712862601E+02  0.18131013298E+01  0.24458898980E+03  0.30110636766E+03  0.17172696089E+03 0.  0.
        -24    2    5    5    0    0  0.12422738491E+02  0.67854699584E+02  0.14164023829E+03  0.17631839441E+03  0.79168392797E+02 0.  0.
          5    1    3    3  501    0 -0.54116779936E+02 -0.49763473865E+02 -0.30141349297E+02  0.79596608842E+02  0.47000000000E+01 0. -1.
        -11    1    4    4    0    0 -0.16939589881E+02  0.45742981042E+02 -0.37845756734E+02  0.61738734379E+02  0.00000000000E+00 0.  1.
         12    1    4    4    0    0  0.34343507215E+02  0.22073914936E+01  0.11456525047E+02  0.36271214912E+02  0.00000000000E+00 0. -1.
         -5    1    5    5    0  502  0.24290124110E+02 -0.66041598254E+02  0.10294875151E+03  0.12478797324E+03  0.47000000000E+01 0.  1.
         13    1    6    6    0    0  0.41355260650E+02  0.16406190764E+02  0.46502992381E+02  0.64357975257E+02  0.00000000000E+00 0. -1.
        -14    1    6    6    0    0 -0.28932522159E+02  0.51448508819E+02  0.95137245911E+02  0.11196041916E+03  0.00000000000E+00 0.  1.
</event>
<event>
12    1  0.9028446E-003  0.1744661E+03  0.7818608E-02  0.1173743E+00
         21   -1    0    0  503  502  0.00000000000E+00  0.00000000000E+00  0.52738438193E+03  0.52738438193E+03  0.00000000000E+00 0.  1.
         21   -1    0    0  501  503 -0.00000000000E+00 -0.00000000000E+00 -0.59445631441E+02  0.59445631441E+02  0.00000000000E+00 0.  1.
          6    2    1    2  501    0 -0.10129289602E+02 -0.20035483092E+02  0.17445781623E+03  0.24540730253E+03  0.17112916584E+03 0.  0.
         24    2    3    3    0    0 -0.43972169660E+02 -0.22577055586E+02  0.33472687366E+02  0.10031872034E+03  0.80623505927E+02 0.  0.
         -6    2    1    2    0  502  0.10129289602E+02  0.20035483092E+02  0.29348093426E+03  0.34142271084E+03  0.17301556465E+03 0.  0.
        -24    2    5    5    0    0  0.66075076467E+02 -0.66458244225E+00  0.12877761825E+03  0.16618659560E+03  0.81657529925E+02 0.  0.
          5    1    3    3  501    0  0.33842880058E+02  0.25415724941E+01  0.14098512886E+03  0.14508858219E+03  0.47000000000E+01 0. -1.
        -13    1    4    4    0    0  0.16297491391E+02  0.96223455722E+01 -0.78214946228E+01  0.20478611723E+02  0.00000000000E+00 0.  1.
         14    1    4    4    0    0 -0.60269661051E+02 -0.32199401158E+02  0.41294181988E+02  0.79840108619E+02  0.00000000000E+00 0. -1.
         -5    1    5    5    0  502 -0.55945786864E+02  0.20700065534E+02  0.16470331601E+03  0.17523611524E+03  0.47000000000E+01 0.  1.
         13    1    6    6    0    0  0.40833349433E+02  0.11081619184E+02  0.90536697660E+01  0.43268159724E+02  0.00000000000E+00 0. -1.
        -14    1    6    6    0    0  0.25241727033E+02 -0.11746201626E+02  0.11972394849E+03  0.12291843587E+03  0.00000000000E+00 0.  1.
</event>
<event>
12    1  0.9028446E-003  0.3490677E+03  0.7818608E-02  0.1063085E+00
         21   -1    0    0  501  502  0.00000000000E+00  0.00000000000E+00  0.10684596124E+04  0.10684596124E+04  0.00000000000E+00 0.  1.
         21   -1    0    0  502  503 -0.00000000000E+00 -0.00000000000E+00 -0.11885152264E+03  0.11885152264E+03  0.00000000000E+00 0. -1.
          6    2    1    2  501    0  0.50687867208E+02  0.29889343369E+03  0.59816231418E+03  0.69256507701E+03  0.17303666434E+03 0.  0.
         24    2    3    3    0    0  0.99778939314E+02  0.21387616286E+03  0.43035155008E+03  0.49809036851E+03  0.84809838890E+02 0.  0.
         -6    2    1    2    0  503 -0.50687867208E+02 -0.29889343369E+03  0.35144577560E+03  0.49474605806E+03  0.17132712626E+03 0.  0.
        -24    2    5    5    0    0 -0.83391237078E+02 -0.14517816616E+03  0.14669546273E+03  0.23659363313E+03  0.80163521028E+02 0.  0.
          5    1    3    3  501    0 -0.49091072106E+02  0.85017270832E+02  0.16781076410E+03  0.19447470850E+03  0.47000000000E+01 0. -1.
        -11    1    4    4    0    0  0.59708286315E+01  0.81313942297E+02  0.20242014324E+03  0.21822356059E+03  0.00000000000E+00 0.  1.
         12    1    4    4    0    0  0.93808110683E+02  0.13256222056E+03  0.22793140684E+03  0.27986680792E+03  0.00000000000E+00 0. -1.
         -5    1    5    5    0  503  0.32703369870E+02 -0.15371526753E+03  0.20475031287E+03  0.25815242493E+03  0.47000000000E+01 0.  1.
         11    1    6    6    0    0 -0.27683305122E+02 -0.11478177077E+03  0.70842964522E+02  0.13769511939E+03  0.00000000000E+00 0. -1.
        -12    1    6    6    0    0 -0.55707931956E+02 -0.30396395390E+02  0.75852498203E+02  0.98898513736E+02  0.00000000000E+00 0.  1.
</event>
<event>
12    1  0.9028446E-003  0.1795216E+03  0.7818608E-02  0.1168758E+00
         21   -1    0    0  501  502  0.00000000000E+00  0.00000000000E+00  0.60685048282E+02  0.60685048282E+02  0.00000000000E+00 0. -1.
         21   -1    0    0  502  503 -0.00000000000E+00 -0.00000000000E+00 -0.54046056095E+03  0.54046056095E+03  0.00000000000E+00 0. -1.
          6    2    1    2  501    0  0.42261272149E+02 -0.24246629372E+02 -0.19059171802E+03  0.26182667324E+03  0.17278336055E+03 0.  0.
         24    2    3    3    0    0  0.10704357973E+02 -0.77624486691E+02 -0.15379288597E+03  0.18956825834E+03  0.78381940397E+02 0.  0.
         -6    2    1    2    0  503 -0.42261272149E+02  0.24246629372E+02 -0.28918379466E+03  0.33931893600E+03  0.17069317231E+03 0.  0.
        -24    2    5    5    0    0  0.26355960467E+02  0.34705975458E+02 -0.94022510977E+02  0.13212883203E+03  0.81967397786E+02 0.  0.
          5    1    3    3  501    0  0.31556914175E+02  0.53377857320E+02 -0.36798832046E+02  0.72258414903E+02  0.47000000000E+01 0. -1.
        -11    1    4    4    0    0  0.34779288720E+02 -0.72084325849E+01 -0.38861410073E+02  0.52647598398E+02  0.00000000000E+00 0.  1.
         12    1    4    4    0    0 -0.24074930747E+02 -0.70416054106E+02 -0.11493147590E+03  0.13692065994E+03  0.00000000000E+00 0. -1.
         -5    1    5    5    0  503 -0.68617232616E+02 -0.10459346086E+02 -0.19516128368E+03  0.20719010396E+03  0.47000000000E+01 0.  1.
         13    1    6    6    0    0  0.27849593085E+02  0.48388750418E+02 -0.10195637385E+03  0.11624187357E+03  0.00000000000E+00 0. -1.
        -14    1    6    6    0    0 -0.14936326182E+01 -0.13682774961E+02  0.79338628776E+01  0.15886958462E+02  0.00000000000E+00 0.  1.
</event>
<event>
12    1  0.9028446E-003  0.2121087E+03  0.7818608E-02  0.1140353E+00
         21   -1    0    0  501  502  0.00000000000E+00  0.00000000000E+00  0.24177465259E+03  0.24177465259E+03  0.00000000000E+00 0.  1.
         21   -1    0    0  502  503 -0.00000000000E+00 -0.00000000000E+00 -0.27622875570E+03  0.27622875570E+03  0.00000000000E+00 0.  1.
          6    2    1    2  501    0 -0.11688159574E+03  0.30433942167E+02  0.13241402342E+03  0.24812364115E+03  0.17159351806E+03 0.  0.
         24    2    3    3    0    0 -0.16390109874E+02  0.58889189357E+02  0.31818063318E+02  0.10303788371E+03  0.76601853768E+02 0.  0.
         -6    2    1    2    0  503  0.11688159574E+03 -0.30433942167E+02 -0.16686812653E+03  0.26987976714E+03  0.17436337002E+03 0.  0.
        -24    2    5    5    0    0  0.12375107775E+03  0.27577380518E+02 -0.14227826149E+03  0.20632463513E+03  0.79069021796E+02 0.  0.
          5    1    3    3  501    0 -0.10049148586E+03 -0.28455247189E+02  0.10059596010E+03  0.14508575744E+03  0.47000000000E+01 0. -1.
        -11    1    4    4    0    0  0.12782962814E+02  0.22191219885E+02  0.47198379814E+02  0.53698616699E+02  0.00000000000E+00 0.  1.
         12    1    4    4    0    0 -0.29173072687E+02  0.36697969472E+02 -0.15380316496E+02  0.49339267008E+02  0.00000000000E+00 0. -1.
         -5    1    5    5    0  503 -0.68694820137E+01 -0.58011322685E+02 -0.24589865044E+02  0.63555132017E+02  0.47000000000E+01 0.  1.
         13    1    6    6    0    0  0.55474149056E+01  0.29395478271E+02 -0.18551717817E+02  0.35199917456E+02  0.00000000000E+00 0. -1.
        -14    1    6    6    0    0  0.11820366285E+03 -0.18180977535E+01 -0.12372654367E+03  0.17112471767E+03  0.00000000000E+00 0.  1.
</event>
<event>
12    1  0.9028446E-003  0.2579089E+03  0.7818608E-02  0.1108730E+00
         21   -1    0    0  503  502  0.00000000000E+00  0.00000000000E+00  0.15938145063E+03  0.15938145063E+03  0.00000000000E+00 0. -1.
         21   -1    0    0  501  503 -0.00000000000E+00 -0.00000000000E+00 -0.43858714234E+03  0.43858714234E+03  0.00000000000E+00 0.  1.
          6    2    1    2  501    0 -0.88007376484E+02 -0.17116696278E+03 -0.68151964199E+02  0.26471092024E+03  0.16847478627E+03 0.  0.
         24    2    3    3    0    0 -0.38615606467E+02 -0.13592318796E+02 -0.23518632302E+02  0.93586580394E+02  0.80804738546E+02 0.  0.
         -6    2    1    2    0  502  0.88007376484E+02  0.17116696278E+03 -0.21105372751E+03  0.33325767272E+03  0.17167869136E+03 0.  0.
        -24    2    5    5    0    0  0.23030354946E+02  0.67618744171E+02 -0.17643826292E+03  0.20611772111E+03  0.79065558390E+02 0.  0.
          5    1    3    3  501    0 -0.49391770017E+02 -0.15757464398E+03 -0.44633331897E+02  0.17112433985E+03  0.47000000000E+01 0. -1.
        -13    1    4    4    0    0  0.24154595227E+02 -0.40325751772E+01 -0.16887706025E+02  0.29747281353E+02  0.00000000000E+00 0.  1.
         14    1    4    4    0    0 -0.62770201694E+02 -0.95597436190E+01 -0.66309262778E+01  0.63839299041E+02  0.00000000000E+00 0. -1.
         -5    1    5    5    0  502  0.64977021538E+02  0.10354821861E+03 -0.34615464596E+02  0.12713995161E+03  0.47000000000E+01 0.  1.
         11    1    6    6    0    0 -0.22788287176E+02  0.11154417128E+02 -0.16067470904E+02  0.30031494721E+02  0.00000000000E+00 0. -1.
        -12    1    6    6    0    0  0.45818642122E+02  0.56464327043E+02 -0.16037079201E+03  0.17608622639E+03  0.00000000000E+00 0.  1.
</event>
<event>
12    1  0.9028446E-003  0.1884183E+03  0.7818608E-02  0.1162051E+00
         21   -1    0    0  503  502  0.00000000000E+00  0.00000000000E+00  0.15994255660E+03  0.15994255660E+03  0.00000000000E+00 0.  1.
         21   -1    0    0  501  503 -0.00000000000E+00 -0.00000000000E+00 -0.21141089266E+03  0.21141089266E+03  0.00000000000E+00 0.  1.
          6    2    1    2  501    0 -0.47614721286E+02 -0.10655646447E+02 -0.31458167835E+02  0.19102636545E+03  0.18199107530E+03 0.  0.
         24    2    3    3    0    0 -0.29215957807E+02 -0.53120308615E+02 -0.73180045368E+02  0.12853983013E+03  0.86555355192E+02 0.  0.
         -6    2    1    2    0  502  0.47614721286E+02  0.10655646447E+02 -0.20010168225E+02  0.18032708382E+03  0.17244345694E+03 0.  0.
        -24    2    5    5    0    0  0.78374090728E+02 -0.37375684857E+02 -0.22070416994E+02  0.12306032016E+03  0.84364086995E+02 0.  0.
          5    1    3    3  501    0 -0.18398763478E+02  0.42464662168E+02  0.41721877533E+02  0.62486535313E+02  0.47000000000E+01 0. -1.
        -11    1    4    4    0    0 -0.42052925769E+02  0.24884487440E+01 -0.53664795440E+02  0.68224271433E+02  0.00000000000E+00 0.  1.
         12    1    4    4    0    0  0.12836967962E+02 -0.55608757359E+02 -0.19515249927E+02  0.60315558699E+02  0.00000000000E+00 0. -1.
         -5    1    5    5    0  502 -0.30759369443E+02  0.48031331304E+02  0.20602487685E+01  0.57266763662E+02  0.47000000000E+01 0.  1.
         13    1    6    6    0    0  0.60952539516E+02 -0.26194123114E+02 -0.53635998101E+02  0.85312158872E+02  0.00000000000E+00 0. -1.
        -14    1    6    6    0    0  0.17421551212E+02 -0.11181561743E+02  0.31565581107E+02  0.37748161283E+02  0.00000000000E+00 0.  1.
</event>
<event>
12    1  0.9028446E-003  0.2248706E+03  0.7818608E-02  0.1130616E+00
         21   -1    0    0  503  502  0.00000000000E+00  0.00000000000E+00  0.53486789074E+03  0.53486789074E+03  0.00000000000E+00 0. -1.
         21   -1    0    0  501  503 -0.00000000000E+00 -0.00000000000E+00 -0.95421367069E+02  0.95421367069E+02  0.00000000000E+00 0.  1.
          6    2    1    2  501    0  0.10447689088E+03  0.95725034111E+02  0.26140009207E+03  0.34481414747E+03  0.17460837689E+03 0.  0.
         24    2    3    3    0    0  0.64859152299E+02  0.55012941344E+02  0.52536277324E+02  0.12831190079E+03  0.80440972756E+02 0.  0.
         -6    2    1    2    0  502 -0.10447689088E+03 -0.95725034111E+02  0.17804643160E+03  0.28547511034E+03  0.17238562565E+03 0.  0.
        -24    2    5    5    0    0 -0.11305192561E+03 -0.16477112870E+02  0.85291525065E+02  0.16308504976E+03  0.79182422752E+02 0.  0.
          5    1    3    3  501    0  0.39617738577E+02  0.40712092767E+02  0.20886381474E+03  0.21650224668E+03  0.47000000000E+01 0. -1.
        -13    1    4    4    0    0  0.55728688590E+02 -0.17297568075E+01  0.42181546509E+02  0.69913958952E+02  0.00000000000E+00 0.  1.
         14    1    4    4    0    0  0.91304637099E+01  0.56742698152E+02  0.10354730816E+02  0.58397941842E+02  0.00000000000E+00 0. -1.
         -5    1    5    5    0  502  0.85750347373E+01 -0.79247921241E+02  0.92754906538E+02  0.12239006058E+03  0.47000000000E+01 0.  1.
         11    1    6    6    0    0 -0.39259056275E+02 -0.81954255653E+01  0.78957616879E+02  0.88559266951E+02  0.00000000000E+00 0. -1.
        -12    1    6    6    0    0 -0.73792869339E+02 -0.82816873047E+01  0.63339081864E+01  0.74525782806E+02  0.00000000000E+00 0.  1.
</event>
<event>
12    1  0.9028446E-003  0.1817122E+03  0.7818608E-02  0.1166455E+00
         21   -1    0    0  503  502  0.00000000000E+00  0.00000000000E+00  0.16423307215E+03  0.16423307215E+03  0.00000000000E+00 0.  1.
         21   -1    0    0  501  503 -0.00000000000E+00 -0.00000000000E+00 -0.19991749191E+03  0.19991749191E+03  0.00000000000E+00 0.  1.
          6    2    1    2  501    0  0.33312723158E+02  0.47910726882E+02 -0.24100079082E+02  0.18206947202E+03  0.17077266630E+03 0.  0.
         24    2    3    3    0    0  0.72264056293E+02 -0.18732086276E+01  0.11499499184E+02  0.10937100876E+03  0.81266083534E+02 0.  0.
         -6    2    1    2    0  502 -0.33312723158E+02 -0.47910726882E+02 -0.11584340683E+02  0.18208109204E+03  0.17208762842E+03 0.  0.
        -24    2    5    5    0    0  0.23622886328E+02 -0.79352209524E+02 -0.15938043445E+02  0.11672609846E+03  0.80722654305E+02 0.  0.
          5    1    3    3  501    0 -0.38951333135E+02  0.49783935510E+02 -0.35599578266E+02  0.72698463261E+02  0.47000000000E+01 0. -1.
        -13    1    4    4    0    0 -0.49561316843E+01  0.17423119695E+02  0.22646222866E+02  0.28999650882E+02  0.00000000000E+00 0.  1.
         14    1    4    4    0    0  0.77220187977E+02 -0.19296328323E+02 -0.11146723683E+02  0.80371357876E+02  0.00000000000E+00 0. -1.
         -5    1    5    5    0  502 -0.56935609486E+02  0.31441482642E+02  0.43537027619E+01  0.65354993581E+02  0.47000000000E+01 0.  1.
         11    1    6    6    0    0  0.13290587427E+02 -0.52617646093E+02  0.30426592480E+02  0.62217633549E+02  0.00000000000E+00 0. -1.
        -12    1    6    6    0    0  0.10332298901E+02 -0.26734563431E+02 -0.46364635926E+02  0.54508464911E+02  0.00000000000E+00 0.  1.
</event>
<event>
12    1  0.9028446E-003  0.1980053E+03  0.7818608E-02  0.1151652E+00
         21   -1    0    0  501  502  0.00000000000E+00  0.00000000000E+00  0.26471749331E+02  0.26471749331E+02  0.00000000000E+00 0. -1.
         21   -1    0    0  502  503 -0.00000000000E+00 -0.00000000000E+00 -0.15666465845E+04  0.15666465845E+04  0.00000000000E+00 0. -1.
          6    2    1    2  501    0 -0.96870961730E+02  0.78051498723E+01 -0.96251531546E+03  0.98246572389E+03  0.17134252986E+03 0.  0.
         24    2    3    3    0    0  0.69820082379E+01  0.29253155959E+01 -0.24252260609E+03  0.25499005853E+03  0.78392662749E+02 0.  0.
         -6    2    1    2    0  503  0.96870961730E+02 -0.78051498723E+01 -0.57765951969E+03  0.61065260992E+03  0.17251430585E+03 0.  0.
        -24    2    5    5    0    0  0.61351080517E+02  0.13734592211E+02 -0.14545098015E+03  0.17642693806E+03  0.77575013651E+02 0.  0.
          5    1    3    3  501    0 -0.10385296997E+03  0.48798342764E+01 -0.71999270937E+03  0.72747566537E+03  0.47000000000E+01 0. -1.
        -11    1    4    4    0    0 -0.53882785220E+00  0.39519452166E+02 -0.96868648362E+02  0.10462128115E+03  0.00000000000E+00 0.  1.
         12    1    4    4    0    0  0.75208360901E+01 -0.36594136570E+02 -0.14565395773E+03  0.15036877737E+03  0.00000000000E+00 0. -1.
         -5    1    5    5    0  503  0.35519881214E+02 -0.21539742083E+02 -0.43220853954E+03  0.43422567186E+03  0.47000000000E+01 0.  1.
         11    1    6    6    0    0  0.67241059220E+02 -0.16239046942E+02 -0.10499116813E+03  0.12573071254E+03  0.00000000000E+00 0. -1.
        -12    1    6    6    0    0 -0.58899787038E+01  0.29973639153E+02 -0.40459812025E+02  0.50696225524E+02  0.00000000000E+00 0.  1.
</event>
<event>
12    1  0.9028446E-003  0.1964408E+03  0.7818608E-02  0.1152854E+00
         21   -1    0    0  501  502  0.00000000000E+00  0.00000000000E+00  0.27703602653E+03  0.27703602653E+03  0.00000000000E+00 0.  1.
         21   -1    0    0  502  503 -0.00000000000E+00 -0.00000000000E+00 -0.14125625397E+03  0.14125625397E+03  0.00000000000E+00 0. -1.
          6    2    1    2  501    0 -0.82901621807E+02  0.45170154153E+02  0.94152295251E+02  0.21783857398E+03  0.17226714106E+03 0.  0.
         24    2    3    3    0    0 -0.11677843844E+03  0.54231867088E+02  0.10080358867E+03  0.18183742052E+03  0.79531031167E+02 0.  0.
         -6    2    1    2    0  503  0.82901621807E+02 -0.45170154153E+02  0.41627477309E+02  0.20045370652E+03  0.17185988440E+03 0.  0.
        -24    2    5    5    0    0  0.11155328196E+03 -0.69119817753E+02  0.51569426321E+02  0.16152510051E+03  0.78798911418E+02 0.  0.
          5    1    3    3  501    0  0.33876816635E+02 -0.90617129355E+01 -0.66512934224E+01  0.36001153466E+02  0.47000000000E+01 0. -1.
        -11    1    4    4    0    0 -0.11400142223E+03  0.31114022441E+02  0.54762159172E+02  0.13024323683E+03  0.00000000000E+00 0.  1.
         12    1    4    4    0    0 -0.27770162152E+01  0.23117844647E+02  0.46041429501E+02  0.51594183690E+02  0.00000000000E+00 0. -1.
         -5    1    5    5    0  503 -0.28651660151E+02  0.23949663600E+02 -0.99419490116E+01  0.38928606013E+02  0.47000000000E+01 0.  1.
         13    1    6    6    0    0  0.27032188125E+02 -0.32786922545E+02 -0.18034315895E+02  0.46162301011E+02  0.00000000000E+00 0. -1.
        -14    1    6    6    0    0  0.84521093833E+02 -0.36332895208E+02  0.69603742216E+02  0.11536279950E+03  0.00000000000E+00 0.  1.
</event>
<event>
12    1  0.9028446E-003  0.1804406E+03  0.7818608E-02  0.1167996E+00
         21   -1    0    0  501  502  0.00000000000E+00  0.00000000000E+00  0.39317719472E+03  0.39317719472E+03  0.00000000000E+00 0. -1.
         21   -1    0    0  502  503 -0.00000000000E+00 -0.00000000000E+00 -0.11217652068E+03  0.11217652068E+03  0.00000000000E+00 0. -1.
          6    2    1    2  501    0  0.42492246598E+02 -0.15851475259E+02  0.27304449398E+03  0.32727985964E+03  0.17464807626E+03 0.  0.
         24    2    3    3    0    0  0.60470289100E+02 -0.58626144017E+02  0.11514452829E+03  0.16263669559E+03  0.78094505144E+02 0.  0.
         -6    2    1    2    0  503 -0.42492246598E+02  0.15851475259E+02  0.79561800560E+01  0.17807385577E+03  0.17201783924E+03 0.  0.
        -24    2    5    5    0    0 -0.71266234607E+02  0.57197865700E+02 -0.14846454471E+02  0.12258046400E+03  0.80343518150E+02 0.  0.
          5    1    3    3  501    0 -0.17978042502E+02  0.42774668758E+02  0.15789996570E+03  0.16464316404E+03  0.47000000000E+01 0. -1.
        -13    1    4    4    0    0  0.25793955556E+02  0.16056252717E+02  0.18094889810E+02  0.35363207317E+02  0.00000000000E+00 0.  1.
         14    1    4    4    0    0  0.34676333544E+02 -0.74682396734E+02  0.97049638476E+02  0.12727348828E+03  0.00000000000E+00 0. -1.
         -5    1    5    5    0  503  0.28773988009E+02 -0.41346390441E+02  0.22802634527E+02  0.55493391767E+02  0.47000000000E+01 0.  1.
         13    1    6    6    0    0  0.15104064768E+02  0.20924058244E+02 -0.12973276577E+02  0.28883470897E+02  0.00000000000E+00 0. -1.
        -14    1    6    6    0    0 -0.86370299375E+02  0.36273807456E+02 -0.18731778940E+01  0.93696993104E+02  0.00000000000E+00 0.  1.
</event>
<event>
12    1  0.9028446E-003  0.1972250E+03  0.7818608E-02  0.1152295E+00
         21   -1    0    0  503  502  0.00000000000E+00  0.00000000000E+00  0.18525959973E+03  0.18525959973E+03  0.00000000000E+00 0. -1.
         21   -1    0    0  501  503 -0.00000000000E+00 -0.00000000000E+00 -0.26613225994E+03  0.26613225994E+03  0.00000000000E+00 0. -1.
          6    2    1    2  501    0  0.91124884407E+02 -0.25813816142E+02 -0.14507326598E+03  0.24483456580E+03  0.17299599547E+03 0.  0.
         24    2    3    3    0    0  0.42839941133E+02  0.50094870985E+02 -0.49358831518E+02  0.11339291528E+03  0.77954488848E+02 0.  0.
         -6    2    1    2    0  502 -0.91124884407E+02  0.25813816142E+02  0.64200605766E+02  0.20655729386E+03  0.17197121912E+03 0.  0.
        -24    2    5    5    0    0  0.10326161745E+02  0.39804872108E+02  0.62192003975E+01  0.88777848370E+02  0.78433222856E+02 0.  0.
          5    1    3    3  501    0  0.48284943274E+02 -0.75908687127E+02 -0.95714434458E+02  0.13144165052E+03  0.47000000000E+01 0. -1.
        -11    1    4    4    0    0 -0.10774519965E+02  0.30615231035E+02 -0.45938345954E+02  0.56246904633E+02  0.00000000000E+00 0.  1.
         12    1    4    4    0    0  0.53614461097E+02  0.19479639950E+02 -0.34204855635E+01  0.57146010646E+02  0.00000000000E+00 0. -1.
         -5    1    5    5    0  502 -0.10145104615E+03 -0.13991055966E+02  0.57981405369E+02  0.11777944549E+03  0.47000000000E+01 0.  1.
         13    1    6    6    0    0 -0.10124497332E+02 -0.18092201037E+02  0.16529810646E+02  0.26515426163E+02  0.00000000000E+00 0. -1.
        -14    1    6    6    0    0  0.20450659077E+02  0.57897073145E+02 -0.10310610249E+02  0.62262422207E+02  0.00000000000E+00 0.  1.
</event>
<event>
12    1  0.9028446E-003  0.2021336E+03  0.7818608E-02  0.1148010E+00
         21   -1    0    0  501  502  0.00000000000E+00  0.00000000000E+00  0.38774045185E+02  0.38774045185E+02  0.00000000000E+00 0. -1.
         21   -1    0    0  502  503 -0.00000000000E+00 -0.00000000000E+00 -0.14849804096E+04  0.14849804096E+04  0.00000000000E+00 0. -1.
          6    2    1    2  501    0  0.14641432394E+02  0.10648886553E+03 -0.31219606912E+03  0.37191985628E+03  0.17118336338E+03 0.  0.
         24    2    3    3    0    0 -0.46512195185E+02  0.19754815712E+02 -0.16303619077E+03  0.18879880104E+03  0.80687983787E+02 0.  0.
         -6    2    1    2    0  503 -0.14641432394E+02 -0.10648886553E+03 -0.11340102953E+04  0.11518345985E+04  0.17084888779E+03 0.  0.
        -24    2    5    5    0    0 -0.33025147640E+02 -0.18382965003E+02 -0.29893495989E+03  0.31190988968E+03  0.80604436959E+02 0.  0.
          5    1    3    3  501    0  0.61153627578E+02  0.86734049815E+02 -0.14915987835E+03  0.18312105524E+03  0.47000000000E+01 0. -1.
        -11    1    4    4    0    0 -0.25766197575E+02  0.17302272045E+02 -0.16492799940E+03  0.16782285464E+03  0.00000000000E+00 0.  1.
         12    1    4    4    0    0 -0.20745997609E+02  0.24525436666E+01  0.18918086269E+01  0.20975946394E+02  0.00000000000E+00 0. -1.
         -5    1    5    5    0  503  0.18383715247E+02 -0.88105900524E+02 -0.83507533540E+03  0.83992470882E+03  0.47000000000E+01 0.  1.
         13    1    6    6    0    0 -0.17195994909E+01  0.17547188546E+02 -0.21231811501E+03  0.21304892117E+03  0.00000000000E+00 0. -1.
        -14    1    6    6    0    0 -0.31305548150E+02 -0.35930153548E+02 -0.86616844880E+02  0.98860968516E+02  0.00000000000E+00 0.  1.
</event>
<event>
12    1  0.9028446E-003  0.1893560E+03  0.7818608E-02  0.1159083E+00
         21   -1    0    0  503  502  0.00000000000E+00  0.00000000000E+00  0.18155318319E+03  0.18155318319E+03  0.00000000000E+00 0.  1.
         21   -1    0    0  501  503 -0.00000000000E+00 -0.00000000000E+00 -0.30959240859E+03  0.30959240859E+03  0.00000000000E+00 0. -1.
          6    2    1    2  501    0  0.62342316834E+02  0.47676532303E+02 -0.21189132190E+03  0.28405413842E+03  0.17213135988E+03 0.  0.
         24    2    3    3    0    0  0.28357964453E+02  0.92159055703E+01 -0.24621813561E+02  0.89822022715E+02  0.81071912511E+02 0.  0.
         -6    2    1    2    0  502 -0.62342316834E+02 -0.47676532303E+02  0.83852096502E+02  0.20709145337E+03  0.17232550528E+03 0.  0.
        -24    2    5    5    0    0 -0.57458754366E+02 -0.62738974504E+02 -0.58957902522E+01  0.11583631913E+03  0.78393909916E+02 0.  0.
          5    1    3    3  501    0  0.33984352381E+02  0.38460626733E+02 -0.18726950834E+03  0.19423211570E+03  0.47000000000E+01 0. -1.
        -11    1    4    4    0    0 -0.42750933068E+01 -0.29813842728E+02 -0.24693044014E+02  0.38947247190E+02  0.00000000000E+00 0.  1.
         12    1    4    4    0    0  0.32633057759E+02  0.39029748298E+02  0.71230453116E-01  0.50874775525E+02  0.00000000000E+00 0. -1.
         -5    1    5    5    0  502 -0.48835624679E+01  0.15062442201E+02  0.89747886754E+02  0.91255134235E+02  0.47000000000E+01 0.  1.
         11    1    6    6    0    0 -0.22682573611E+02  0.17089210995E+02  0.15671263972E+01  0.28442857859E+02  0.00000000000E+00 0. -1.
        -12    1    6    6    0    0 -0.34776180755E+02 -0.79828185500E+02 -0.74629166495E+01  0.87393461271E+02  0.00000000000E+00 0.  1.
</event>
<event>
12    1  0.9028446E-003  0.1736128E+03  0.7818608E-02  0.1174335E+00
         21   -1    0    0  503  502  0.00000000000E+00  0.00000000000E+00  0.11576675587E+03  0.11576675587E+03  0.00000000000E+00 0.  1.
         21   -1    0    0  501  503 -0.00000000000E+00 -0.00000000000E+00 -0.34207847831E+03  0.34207847831E+03  0.00000000000E+00 0.  1.
          6    2    1    2  501    0 -0.28549097778E+02 -0.24852537934E+01 -0.22605713984E+03  0.28503196355E+03  0.17123131227E+03 0.  0.
         24    2    3    3    0    0  0.14004856094E+02  0.15660673027E+02 -0.22389313835E+03  0.23848213484E+03  0.79398983381E+02 0.  0.
         -6    2    1    2    0  502  0.28549097778E+02  0.24852537934E+01 -0.25458260051E+00  0.17281327063E+03  0.17042046304E+03 0.  0.
        -24    2    5    5    0    0 -0.25548321304E+02 -0.39246307470E+02  0.30156704107E+02  0.97880031569E+02  0.80486547981E+02 0.  0.
          5    1    3    3  501    0 -0.42553953872E+02 -0.18145926821E+02 -0.21640014857E+01  0.46549828708E+02  0.47000000000E+01 0. -1.
        -11    1    4    4    0    0 -0.16248733258E+02  0.14163396485E+02 -0.19638659535E+03  0.19756598382E+03  0.00000000000E+00 0.  1.
         12    1    4    4    0    0  0.30253589353E+02  0.14972765421E+01 -0.27506543007E+02  0.40916151016E+02  0.00000000000E+00 0. -1.
         -5    1    5    5    0  502  0.54097419082E+02  0.41731561263E+02 -0.30411286708E+02  0.74933239060E+02  0.47000000000E+01 0.  1.
         13    1    6    6    0    0  0.23615621353E+02 -0.31415937867E+02  0.27610740556E+02  0.48031361817E+02  0.00000000000E+00 0. -1.
        -14    1    6    6    0    0 -0.49163942657E+02 -0.78303696029E+01  0.25459635515E+01  0.49848669752E+02  0.00000000000E+00 0.  1.
</event>
<event>
12    1  0.9028446E-003  0.2533745E+03  0.7818608E-02  0.1111284E+00
         21   -1    0    0  503  502  0.00000000000E+00  0.00000000000E+00  0.34359631112E+03  0.34359631112E+03  0.00000000000E+00 0. -1.
         21   -1    0    0  501  503 -0.00000000000E+00 -0.00000000000E+00 -0.18646378412E+03  0.18646378412E+03  0.00000000000E+00 0.  1.
          6    2    1    2  501    0 -0.17503158245E+03 -0.62034100568E+02  0.73526828219E+02  0.26324826586E+03  0.17149102169E+03 0.  0.
         24    2    3    3    0    0 -0.63415295807E+02 -0.85621234680E+02  0.12091623831E+02  0.13359132359E+03  0.79673953091E+02 0.  0.
         -6    2    1    2    0  502  0.17503158245E+03  0.62034100568E+02  0.83605698781E+02  0.26681182938E+03  0.17237852227E+03 0.  0.
        -24    2    5    5    0    0  0.11382036684E+03  0.73109104097E+02 -0.70941818639E+01  0.15672991911E+03  0.78828441047E+02 0.  0.
          5    1    3    3  501    0 -0.11161628664E+03  0.23587134112E+02  0.61435204388E+02  0.12965694227E+03  0.47000000000E+01 0. -1.
        -13    1    4    4    0    0  0.16997140414E+02 -0.43447078710E+01  0.77410458760E+01  0.19175584997E+02  0.00000000000E+00 0.  1.
         14    1    4    4    0    0 -0.80412436221E+02 -0.81276526809E+02  0.43505779547E+01  0.11441573859E+03  0.00000000000E+00 0. -1.
         -5    1    5    5    0  502  0.61211215613E+02 -0.11075003529E+02  0.90699880645E+02  0.11008191027E+03  0.47000000000E+01 0.  1.
         13    1    6    6    0    0  0.73039090491E+02  0.74440667508E+02  0.22041408093E+02  0.10659242651E+03  0.00000000000E+00 0. -1.
        -14    1    6    6    0    0  0.40781276345E+02 -0.13315634112E+01 -0.29135589957E+02  0.50137492594E+02  0.00000000000E+00 0.  1.
</event>
<event>
12    1  0.9028446E-003  0.2650459E+03  0.7818608E-02  0.1104438E+00
         21   -1    0    0  503  502  0.00000000000E+00  0.00000000000E+00  0.10549462049E+03  0.10549462049E+03  0.00000000000E+00 0. -1.
         21   -1    0    0  501  503 -0.00000000000E+00 -0.00000000000E+00 -0.68085383244E+03  0.68085383244E+03  0.00000000000E+00 0.  1.
          6    2    1    2  501    0  0.14910330787E+03  0.13554140701E+03 -0.35383114779E+03  0.44091534302E+03  0.16913482530E+03 0.  0.
         24    2    3    3    0    0  0.15573869560E+03  0.84362171405E+02 -0.20536376661E+03  0.28366396527E+03  0.83183239231E+02 0.  0.
         -6    2    1    2    0  502 -0.14910330787E+03 -0.13554140701E+03 -0.22152806416E+03  0.34543310992E+03  0.17218037281E+03 0.  0.
        -24    2    5    5    0    0 -0.14023974854E+03 -0.38222024739E+02 -0.12569872915E+03  0.20848430087E+03  0.80854331699E+02 0.  0.
          5    1    3    3  501    0 -0.66353877255E+01  0.51179235608E+02 -0.14846738118E+03  0.15725137775E+03  0.47000000000E+01 0. -1.
        -11    1    4    4    0    0  0.51196128624E+02 -0.87838607676E+01 -0.81913784918E+02  0.96995195529E+02  0.00000000000E+00 0.  1.
         12    1    4    4    0    0  0.10454256697E+03  0.93146032173E+02 -0.12344998169E+03  0.18666876975E+03  0.00000000000E+00 0. -1.
         -5    1    5    5    0  502 -0.88635593352E+01 -0.97319382274E+02 -0.95829335012E+02  0.13694880905E+03  0.47000000000E+01 0.  1.
         13    1    6    6    0    0 -0.52924261356E+02 -0.18791349788E+01 -0.22958042679E+01  0.53007351430E+02  0.00000000000E+00 0. -1.
        -14    1    6    6    0    0 -0.87315487180E+02 -0.36342889760E+02 -0.12340292488E+03  0.15547694944E+03  0.00000000000E+00 0.  1.
</event>
<event>
12    1  0.9028446E-003  0.2460445E+03  0.7818608E-02  0.1115856E+00
         21   -1    0    0  501  502  0.00000000000E+00  0.00000000000E+00  0.97783026060E+02  0.97783026060E+02  0.00000000000E+00 0.  1.
         21   -1    0    0  502  503 -0.00000000000E+00 -0.00000000000E+00 -0.11789708496E+04  0.11789708496E+04  0.00000000000E+00 0. -1.
          6    2    1    2  501    0  0.56779068031E+01  0.17674337828E+03 -0.10043070023E+03  0.26560480575E+03  0.17084825694E+03 0.  0.
         24    2    3    3    0    0  0.33683008213E+02  0.15814716693E+03 -0.12839168344E+03  0.22162740970E+03  0.80555650970E+02 0.  0.
         -6    2    1    2    0  503 -0.56779068031E+01 -0.17674337828E+03 -0.98075712335E+03  0.10111490699E+04  0.17107731077E+03 0.  0.
        -24    2    5    5    0    0  0.25483483417E+02 -0.15663320461E+03 -0.50271035166E+03  0.53164280591E+03  0.68869490321E+02 0.  0.
          5    1    3    3  501    0 -0.28005101410E+02  0.18596211340E+02  0.27960983211E+02  0.43977396050E+02  0.47000000000E+01 0. -1.
        -11    1    4    4    0    0  0.15816671424E+01  0.14626357977E+03 -0.10748654536E+03  0.18151830175E+03  0.00000000000E+00 0.  1.
         12    1    4    4    0    0  0.32101341071E+02  0.11883587167E+02 -0.20905138079E+02  0.40109107951E+02  0.00000000000E+00 0. -1.
         -5    1    5    5    0  503 -0.31161390220E+02 -0.20110173667E+02 -0.47804677169E+03  0.47950626403E+03  0.47000000000E+01 0.  1.
         11    1    6    6    0    0  0.74832915163E+01 -0.90577805391E+02 -0.38395789785E+03  0.39456812568E+03  0.00000000000E+00 0. -1.
        -12    1    6    6    0    0  0.18000191901E+02 -0.66055399218E+02 -0.11875245381E+03  0.13707468023E+03  0.00000000000E+00 0.  1.
</event>
<event>
12    1  0.9028446E-003  0.2425588E+03  0.7818608E-02  0.1119401E+00
         21   -1    0    0  503  502  0.00000000000E+00  0.00000000000E+00  0.11879407883E+03  0.11879407883E+03  0.00000000000E+00 0.  1.
         21   -1    0    0  501  503 -0.00000000000E+00 -0.00000000000E+00 -0.49536914853E+03  0.49536914853E+03  0.00000000000E+00 0.  1.
          6    2    1    2  501    0  0.15081358400E+03  0.52710638589E+02 -0.24026751580E+03  0.33592858496E+03  0.17203600352E+03 0.  0.
         24    2    3    3    0    0  0.15065930590E+03  0.38729419198E+02 -0.11405066085E+03  0.20885269122E+03  0.80085573132E+02 0.  0.
         -6    2    1    2    0  502 -0.15081358400E+03 -0.52710638589E+02 -0.13630755391E+03  0.27823464240E+03  0.18251470746E+03 0.  0.
        -24    2    5    5    0    0 -0.45404629628E+01 -0.47784503741E+02 -0.32358480688E+02  0.98658495414E+02  0.79890254995E+02 0.  0.
          5    1    3    3  501    0  0.15427809973E+00  0.13981219391E+02 -0.12621685494E+03  0.12707589374E+03  0.47000000000E+01 0. -1.
        -11    1    4    4    0    0  0.14059811481E+02 -0.17645430037E+02 -0.63374637771E+00  0.22570802700E+02  0.00000000000E+00 0.  1.
         12    1    4    4    0    0  0.13659949442E+03  0.56374849235E+02 -0.11341691448E+03  0.18628188852E+03  0.00000000000E+00 0. -1.
         -5    1    5    5    0  502 -0.14627312104E+03 -0.49261348473E+01 -0.10394907322E+03  0.17957614699E+03  0.47000000000E+01 0.  1.
         11    1    6    6    0    0 -0.10599782181E+02  0.20964604197E+02 -0.30941842835E+01  0.23694809301E+02  0.00000000000E+00 0. -1.
        -12    1    6    6    0    0  0.60593192184E+01 -0.68749107938E+02 -0.29264296404E+02  0.74963686113E+02  0.00000000000E+00 0.  1.
</event>
<event>
12    1  0.9028446E-003  0.1911995E+03  0.7818608E-02  0.1157581E+00
         21   -1    0    0  501  502  0.00000000000E+00  0.00000000000E+00  0.28533228978E+03  0.28533228978E+03  0.00000000000E+00 0.  1.
         21   -1    0    0  502  503 -0.00000000000E+00 -0.00000000000E+00 -0.21431446402E+03  0.21431446402E+03  0.00000000000E+00 0.  1.
          6    2    1    2  501    0 -0.13543220606E+02 -0.79997564588E+02  0.19443104493E+03  0.27207678555E+03  0.17216072967E+03 0.  0.
         24    2    3    3    0    0  0.29887081831E+02  0.30107930067E+01  0.13770185858E+03  0.16245530415E+03  0.80793696890E+02 0.  0.
         -6    2    1    2    0  503  0.13543220606E+02  0.79997564588E+02 -0.12341321917E+03  0.22756996825E+03  0.17313069808E+03 0.  0.
        -24    2    5    5    0    0  0.63496695987E+02  0.23525609339E+02 -0.10775660143E+03  0.15042302332E+03  0.80189251755E+02 0.  0.
          5    1    3    3  501    0 -0.43430302437E+02 -0.83008357594E+02  0.56729186347E+02  0.10962148140E+03  0.47000000000E+01 0. -1.
        -11    1    4    4    0    0 -0.17181552102E+02 -0.16300050576E+02  0.88741229504E+02  0.91847173039E+02  0.00000000000E+00 0.  1.
         12    1    4    4    0    0  0.47068633934E+02  0.19310843583E+02  0.48960629074E+02  0.70608131115E+02  0.00000000000E+00 0. -1.
         -5    1    5    5    0  503 -0.49953475382E+02  0.56471955249E+02 -0.15656617738E+02  0.77146944926E+02  0.47000000000E+01 0.  1.
         11    1    6    6    0    0  0.49231021974E+02  0.16937845045E+02 -0.12055889045E+02  0.53440888653E+02  0.00000000000E+00 0. -1.
        -12    1    6    6    0    0  0.14265674013E+02  0.65877642935E+01 -0.95700712387E+02  0.96982134669E+02  0.00000000000E+00 0.  1.
</event>
<event>
12    1  0.9028446E-003  0.1736758E+03  0.7818608E-02  0.1174419E+00
         21   -1    0    0  503  502  0.00000000000E+00  0.00000000000E+00  0.34179468193E+03  0.34179468193E+03  0.00000000000E+00 0.  1.
         21   -1    0    0  501  503 -0.00000000000E+00 -0.00000000000E+00 -0.94759823608E+02  0.94759823608E+02  0.00000000000E+00 0.  1.
          6    2    1    2  501    0  0.12202178454E+02  0.84737422596E+01  0.18417739552E+03  0.25314937248E+03  0.17303928542E+03 0.  0.
         24    2    3    3    0    0  0.18448150061E+02  0.28809017519E+01  0.21021327054E+03  0.22539601566E+03  0.79152453734E+02 0.  0.
         -6    2    1    2    0  502 -0.12202178454E+02 -0.84737422596E+01  0.62857462807E+02  0.18340513307E+03  0.17165571571E+03 0.  0.
        -24    2    5    5    0    0 -0.36479271681E+02  0.87750902226E+01  0.10158896499E+03  0.13432235871E+03  0.79463442985E+02 0.  0.
          5    1    3    3  501    0 -0.62459716067E+01  0.55928405077E+01 -0.26035875019E+02  0.27753356811E+02  0.47000000000E+01 0. -1.
        -11    1    4    4    0    0  0.13192979981E+02  0.40366182287E+02  0.12863793993E+03  0.13546661205E+03  0.00000000000E+00 0.  1.
         12    1    4    4    0    0  0.52551700800E+01 -0.37485280535E+02  0.81575330611E+02  0.89929403610E+02  0.00000000000E+00 0. -1.
         -5    1    5    5    0  502  0.24277093227E+02 -0.17248832482E+02 -0.38731502180E+02  0.49082774358E+02  0.47000000000E+01 0.  1.
         11    1    6    6    0    0 -0.31726624896E+02 -0.31105769464E+02  0.71330083009E+02  0.84036470436E+02  0.00000000000E+00 0. -1.
        -12    1    6    6    0    0 -0.47526467852E+01  0.39880859686E+02  0.30258881978E+02  0.50285888272E+02  0.00000000000E+00 0.  1.
</event>
<event>
12    1  0.9028446E-003  0.1968673E+03  0.7818608E-02  0.1152473E+00
         21   -1    0    0  501  502  0.00000000000E+00  0.00000000000E+00  0.50147687170E+02  0.50147687170E+02  0.00000000000E+00 0.  1.
         21   -1    0    0  502  503 -0.00000000000E+00 -0.00000000000E+00 -0.13896877313E+04  0.13896877313E+04  0.00000000000E+00 0.  1.
          6    2    1    2  501    0 -0.58021546874E+02 -0.76584727184E+02 -0.18940848635E+03  0.27297667797E+03  0.17149044194E+03 0.  0.
         24    2    3    3    0    0 -0.65026034006E+02  0.15576160085E+02 -0.10210509187E+03  0.14574985427E+03  0.79665352399E+02 0.  0.
         -6    2    1    2    0  503  0.58021546874E+02  0.76584727184E+02 -0.11501315578E+04  0.11668587405E+04  0.17182840198E+03 0.  0.
        -24    2    5    5    0    0  0.91751377314E+02  0.23868835989E+02 -0.57603008203E+03  0.58933708627E+03  0.80743478207E+02 0.  0.
          5    1    3    3  501    0  0.70044871318E+01 -0.92160887269E+02 -0.87303394479E+02  0.12722682370E+03  0.47000000000E+01 0. -1.
        -13    1    4    4    0    0 -0.15928984903E+02  0.43745438651E+02 -0.36916182340E+02  0.59415490248E+02  0.00000000000E+00 0.  1.
         14    1    4    4    0    0 -0.49097049103E+02 -0.28169278567E+02 -0.65188909529E+02  0.86334364023E+02  0.00000000000E+00 0. -1.
         -5    1    5    5    0  503 -0.33729830440E+02  0.52715891196E+02 -0.57410147576E+03  0.57752165424E+03  0.47000000000E+01 0.  1.
         11    1    6    6    0    0 -0.84471740981E+01  0.77903101585E+01 -0.13507042124E+02  0.17733693060E+02  0.00000000000E+00 0. -1.
        -12    1    6    6    0    0  0.10019855141E+03  0.16078525830E+02 -0.56252303991E+03  0.57160339321E+03  0.00000000000E+00 0.  1.
</event>
<event>
12    1  0.9028446E-003  0.1924557E+03  0.7818608E-02  0.1156723E+00
         21   -1    0    0  501  502  0.00000000000E+00  0.00000000000E+00  0.25901966806E+03  0.25901966806E+03  0.00000000000E+00 0.  1.
         21   -1    0    0  502  503 -0.00000000000E+00 -0.00000000000E+00 -0.14831458303E+03  0.14831458303E+03  0.00000000000E+00 0. -1.
          6    2    1    2  501    0  0.82651653475E+02  0.18409249737E+02  0.99368207154E+02  0.21659462231E+03  0.17282648385E+03 0.  0.
         24    2    3    3    0    0  0.69470573041E+02 -0.45000400050E+02  0.96281118922E+02  0.15158581766E+03  0.82807063299E+02 0.  0.
         -6    2    1    2    0  503 -0.82651653475E+02 -0.18409249737E+02  0.11336877882E+02  0.19073962878E+03  0.17053704844E+03 0.  0.
        -24    2    5    5    0    0 -0.12229073025E+03 -0.14265941341E+02  0.29227010697E+02  0.14680137365E+03  0.74416969605E+02 0.  0.
          5    1    3    3  501    0  0.13181080434E+02  0.63409649787E+02  0.30870882326E+01  0.65008804644E+02  0.47000000000E+01 0. -1.
        -13    1    4    4    0    0  0.70977578410E+02 -0.40859054738E+02  0.33233037197E+02  0.88383899849E+02  0.00000000000E+00 0.  1.
         14    1    4    4    0    0 -0.15070053691E+01 -0.41413453117E+01  0.63048081725E+02  0.63201917814E+02  0.00000000000E+00 0. -1.
         -5    1    5    5    0  503  0.39639076771E+02 -0.41433083962E+01 -0.17890132815E+02  0.43938255130E+02  0.47000000000E+01 0.  1.
         11    1    6    6    0    0 -0.22946860822E+02  0.27247453253E+02  0.16693805191E+01  0.35661869856E+02  0.00000000000E+00 0. -1.
        -12    1    6    6    0    0 -0.99343869424E+02 -0.41513394593E+02  0.27557630178E+02  0.11113950380E+03  0.00000000000E+00 0.  1.
</event>
<event>
12    1  0.9028446E-003  0.2967715E+03  0.7818608E-02  0.1086880E+00
         21   -1    0    0  503  502  0.00000000000E+00  0.00000000000E+00  0.88822558450E+02  0.88822558450E+02  0.00000000000E+00 0. -1.
         21   -1    0    0  501  503 -0.00000000000E+00 -0.00000000000E+00 -0.99143141198E+03  0.99143141198E+03  0.00000000000E+00 0. -1.
          6    2    1    2  501    0  0.24085545176E+03 -0.23494078576E+02 -0.44273617700E+03  0.53293669051E+03  0.17158925753E+03 0.  0.
         24    2    3    3    0    0  0.42744321038E+02  0.36834349857E+02 -0.16910263071E+03  0.18973857419E+03  0.64970612679E+02 0.  0.
         -6    2    1    2    0  502 -0.24085545176E+03  0.23494078576E+02 -0.45987267653E+03  0.54731727992E+03  0.17178476623E+03 0.  0.
        -24    2    5    5    0    0 -0.17700896409E+03  0.20615046612E+02 -0.43745543077E+03  0.47942555936E+03  0.82002802053E+02 0.  0.
          5    1    3    3  501    0  0.19811113072E+03 -0.60328428433E+02 -0.27363354629E+03  0.34319811633E+03  0.47000000000E+01 0. -1.
        -13    1    4    4    0    0  0.14828072581E+02  0.32772056535E+02 -0.27300192558E+02  0.45157280030E+02  0.00000000000E+00 0.  1.
         14    1    4    4    0    0  0.27916248457E+02  0.40622933224E+01 -0.14180243815E+03  0.14458129416E+03  0.00000000000E+00 0. -1.
         -5    1    5    5    0  502 -0.63846487670E+02  0.28790319643E+01 -0.22417245760E+02  0.67891720558E+02  0.47000000000E+01 0.  1.
         13    1    6    6    0    0 -0.80904010517E+02 -0.28249177080E+02 -0.23348305719E+03  0.24871230954E+03  0.00000000000E+00 0. -1.
        -14    1    6    6    0    0 -0.96104953570E+02  0.48864223692E+02 -0.20397237358E+03  0.23071324982E+03  0.00000000000E+00 0.  1.
</event>
<event>
12    1  0.9028446E-003  0.1882753E+03  0.7818608E-02  0.1160074E+00
         21   -1    0    0  503  502  0.00000000000E+00  0.00000000000E+00  0.56178327104E+03  0.56178327104E+03  0.00000000000E+00 0.  1.
         21   -1    0    0  501  503 -0.00000000000E+00 -0.00000000000E+00 -0.73244941416E+02  0.73244941416E+02  0.00000000000E+00 0.  1.
          6    2    1    2  501    0 -0.14416385754E+02 -0.74860286434E+02  0.12556209949E+03  0.22612804248E+03  0.17191903939E+03 0.  0.
         24    2    3    3    0    0 -0.62793467487E+02 -0.16017232413E+02  0.40889900788E+02  0.11213541870E+03  0.81870610397E+02 0.  0.
         -6    2    1    2    0  502  0.14416385754E+02  0.74860286434E+02  0.36297623013E+03  0.40890016997E+03  0.17215025618E+03 0.  0.
        -24    2    5    5    0    0  0.44310168103E+02  0.20552853506E+01  0.27975385273E+03  0.29426047133E+03  0.79745794079E+02 0.  0.
          5    1    3    3  501    0  0.48377081733E+02 -0.58843054021E+02  0.84672198707E+02  0.11399262378E+03  0.47000000000E+01 0. -1.
        -13    1    4    4    0    0 -0.44128997141E+02 -0.85225396802E+01 -0.19121708796E+02  0.48843032446E+02  0.00000000000E+00 0.  1.
         14    1    4    4    0    0 -0.18664470346E+02 -0.74946927328E+01  0.60011609584E+02  0.63292386251E+02  0.00000000000E+00 0. -1.
         -5    1    5    5    0  502 -0.29893782349E+02  0.72805001083E+02  0.83222377397E+02  0.11463969865E+03  0.47000000000E+01 0.  1.
         13    1    6    6    0    0  0.67702748260E+02 -0.38115178250E+00  0.20431116027E+03  0.21523674781E+03  0.00000000000E+00 0. -1.
        -14    1    6    6    0    0 -0.23392580157E+02  0.24364371331E+01  0.75442692465E+02  0.79023723518E+02  0.00000000000E+00 0.  1.
</event>
<event>
12    1  0.9028446E-003  0.1732420E+03  0.7818608E-02  0.1174768E+00
         21   -1    0    0  503  502  0.00000000000E+00  0.00000000000E+00  0.15058522562E+03  0.15058522562E+03  0.00000000000E+00 0. -1.
         21   -1    0    0  501  503 -0.00000000000E+00 -0.00000000000E+00 -0.20139441382E+03  0.20139441382E+03  0.00000000000E+00 0. -1.
          6    2    1    2  501    0  0.28932513266E+01 -0.19040267437E+01 -0.29609714408E+01  0.17225135260E+03  0.17219107091E+03 0.  0.
         24    2    3    3    0    0 -0.22361694064E+02  0.44681199254E+02  0.41438592584E+02  0.10295916810E+03  0.79918573636E+02 0.  0.
         -6    2    1    2    0  502 -0.28932513266E+01  0.19040267437E+01 -0.47848216765E+02  0.17972828684E+03  0.17320741618E+03 0.  0.
        -24    2    5    5    0    0  0.35310127897E+02 -0.15699424507E+02 -0.86613160307E+02  0.12233324761E+03  0.77267760872E+02 0.  0.
          5    1    3    3  501    0  0.25254945390E+02 -0.46585225998E+02 -0.44399564025E+02  0.69292184505E+02  0.47000000000E+01 0. -1.
        -11    1    4    4    0    0  0.58520225127E+01  0.24993538411E+01 -0.21320376590E+02  0.22249750449E+02  0.00000000000E+00 0.  1.
         12    1    4    4    0    0 -0.28213716577E+02  0.42181845413E+02  0.62758969174E+02  0.80709417649E+02  0.00000000000E+00 0. -1.
         -5    1    5    5    0  502 -0.38203379223E+02  0.17603451250E+02  0.38764943542E+02  0.57395039227E+02  0.47000000000E+01 0.  1.
         13    1    6    6    0    0  0.45238179731E+02  0.18974171894E+02 -0.39396091514E+02  0.62917121128E+02  0.00000000000E+00 0. -1.
        -14    1    6    6    0    0 -0.99280518344E+01 -0.34673596401E+02 -0.47217068793E+02  0.59416126481E+02  0.00000000000E+00 0.  1.
</event>
<event>
12    1  0.9028446E-003  0.2108413E+03  0.7818608E-02  0.1141246E+00
         21   -1    0    0  503  502  0.00000000000E+00  0.00000000000E+00  0.35476094589E+03  0.35476094589E+03  0.00000000000E+00 0. -1.
         21   -1    0    0  501  503 -0.00000000000E+00 -0.00000000000E+00 -0.13780486023E+03  0.13780486023E+03  0.00000000000E+00 0. -1.
          6    2    1    2  501    0  0.62173948830E+02  0.10370116404E+03  0.31710943972E+02  0.21321265133E+03  0.17272671879E+03 0.  0.
         24    2    3    3    0    0  0.37906878783E+02  0.53864431295E+02  0.86684650870E+02  0.13500274742E+03  0.79832353696E+02 0.  0.
         -6    2    1    2    0  502 -0.62173948830E+02 -0.10370116404E+03  0.18524514169E+03  0.27935315480E+03  0.17059569526E+03 0.  0.
        -24    2    5    5    0    0 -0.76948662629E+02 -0.10158022911E+03  0.73527664063E+02  0.16654501972E+03  0.78046694902E+02 0.  0.
          5    1    3    3  501    0  0.24267070047E+02  0.49836732746E+02 -0.54973706897E+02  0.78209903909E+02  0.47000000000E+01 0. -1.
        -13    1    4    4    0    0 -0.15581689850E+02  0.16483763635E+02  0.60636290895E+02  0.64739966757E+02  0.00000000000E+00 0.  1.
         14    1    4    4    0    0  0.53488568633E+02  0.37380667660E+02  0.26048359974E+02  0.70262780663E+02  0.00000000000E+00 0. -1.
         -5    1    5    5    0  502  0.14774713798E+02 -0.21209349303E+01  0.11171747762E+03  0.11280813508E+03  0.47000000000E+01 0.  1.
         11    1    6    6    0    0 -0.28593619108E+02 -0.81784154733E+02  0.74530779351E+02  0.11428508253E+03  0.00000000000E+00 0. -1.
        -12    1    6    6    0    0 -0.48355043520E+02 -0.19796074378E+02 -0.10031152880E+01  0.52259937188E+02  0.00000000000E+00 0.  1.
</event>
<event>
12    1  0.9028446E-003  0.3561055E+03  0.7818608E-02  0.1060224E+00
         21   -1    0    0  501  502  0.00000000000E+00  0.00000000000E+00  0.19710665397E+03  0.19710665397E+03  0.00000000000E+00 0.  1.
         21   -1    0    0  502  503 -0.00000000000E+00 -0.00000000000E+00 -0.79464569186E+03  0.79464569186E+03  0.00000000000E+00 0. -1.
          6    2    1    2  501    0 -0.29455438220E+03 -0.99871895453E+02 -0.80993542924E+02  0.36435266379E+03  0.17162817380E+03 0.  0.
         24    2    3    3    0    0 -0.66182662593E+02 -0.69937912185E+02 -0.24905722452E+02  0.12725011367E+03  0.79377830841E+02 0.  0.
         -6    2    1    2    0  503  0.29455438220E+03  0.99871895453E+02 -0.51654549496E+03  0.62739968203E+03  0.17341981744E+03 0.  0.
        -24    2    5    5    0    0  0.43499619039E+02  0.31500154697E+02 -0.15615822605E+03  0.18287267202E+03  0.78565552289E+02 0.  0.
          5    1    3    3  501    0 -0.22837171961E+03 -0.29933983268E+02 -0.56087820472E+02  0.23710255013E+03  0.47000000000E+01 0. -1.
        -11    1    4    4    0    0  0.12516592764E+02  0.51884979284E+01  0.49538879030E+01  0.14426593865E+02  0.00000000000E+00 0.  1.
         12    1    4    4    0    0 -0.78699255357E+02 -0.75126410114E+02 -0.29859610355E+02  0.11282351980E+03  0.00000000000E+00 0. -1.
         -5    1    5    5    0  503  0.25105476316E+03  0.68371740756E+02 -0.36038726891E+03  0.44452701001E+03  0.47000000000E+01 0.  1.
         11    1    6    6    0    0  0.22144267543E+02 -0.55321682090E+01 -0.13161506870E+03  0.13357956348E+03  0.00000000000E+00 0. -1.
        -12    1    6    6    0    0  0.21355351496E+02  0.37032322906E+02 -0.24543157354E+02  0.49293108547E+02  0.00000000000E+00 0.  1.
</event>
<event>
12    1  0.9028446E-003  0.1965305E+03  0.7818608E-02  0.1153013E+00
         21   -1    0    0  501  502  0.00000000000E+00  0.00000000000E+00  0.27323387837E+03  0.27323387837E+03  0.00000000000E+00 0.  1.
         21   -1    0    0  502  503 -0.00000000000E+00 -0.00000000000E+00 -0.14032176561E+03  0.14032176561E+03  0.00000000000E+00 0. -1.
          6    2    1    2  501    0 -0.24002877203E+02  0.91411930779E+02  0.66548732873E+02  0.20749209745E+03  0.17231354403E+03 0.  0.
         24    2    3    3    0    0  0.31834152289E+02  0.49713098076E+02 -0.15692943092E+02  0.99592376524E+02  0.78661093474E+02 0.  0.
         -6    2    1    2    0  503  0.24002877203E+02 -0.91411930779E+02  0.66363379882E+02  0.20606354652E+03  0.17066284837E+03 0.  0.
        -24    2    5    5    0    0  0.63193064330E+02 -0.45964192918E+02 -0.63806640878E+01  0.11164345557E+03  0.79482563411E+02 0.  0.
          5    1    3    3  501    0 -0.55837029492E+02  0.41698832703E+02  0.82241675966E+02  0.10789972093E+03  0.47000000000E+01 0. -1.
        -13    1    4    4    0    0  0.24470590845E+02  0.46709407908E+01  0.27253007773E+02  0.36923623019E+02  0.00000000000E+00 0.  1.
         14    1    4    4    0    0  0.73635614437E+01  0.45042157285E+02 -0.42945950866E+02  0.62668753505E+02  0.00000000000E+00 0. -1.
         -5    1    5    5    0  503 -0.39190187126E+02 -0.45447737862E+02  0.72744043970E+02  0.94420090960E+02  0.47000000000E+01 0.  1.
         11    1    6    6    0    0  0.31013488638E+02 -0.24544889770E+02 -0.42980813159E+02  0.58409232071E+02  0.00000000000E+00 0. -1.
        -12    1    6    6    0    0  0.32179575691E+02 -0.21419303148E+02  0.36600149071E+02  0.53234223494E+02  0.00000000000E+00 0.  1.
</event>
<event>
12    1  0.9028446E-003  0.1804689E+03  0.7818608E-02  0.1167614E+00
         21   -1    0    0  501  502  0.00000000000E+00  0.00000000000E+00  0.23656904381E+03  0.23656904381E+03  0.00000000000E+00 0. -1.
         21   -1    0    0  502  503 -0.00000000000E+00 -0.00000000000E+00 -0.16706543426E+03  0.16706543426E+03  0.00000000000E+00 0. -1.
          6    2    1    2  501    0 -0.35799048371E+02 -0.39177285835E+02  0.12068051236E+03  0.21710091838E+03  0.17248939419E+03 0.  0.
         24    2    3    3    0    0 -0.83473167358E+02 -0.95136088745E+01  0.47134765841E+02  0.12445199942E+03  0.78792991993E+02 0.  0.
         -6    2    1    2    0  503  0.35799048371E+02  0.39177285835E+02 -0.51176902817E+02  0.18653355970E+03  0.17134544616E+03 0.  0.
        -24    2    5    5    0    0  0.61479654465E+02  0.75710251899E+02 -0.19913421858E+02  0.13181933503E+03  0.86417605629E+02 0.  0.
          5    1    3    3  501    0  0.47674118987E+02 -0.29663676961E+02  0.73545746517E+02  0.92648918951E+02  0.47000000000E+01 0. -1.
        -13    1    4    4    0    0  0.35186620330E+01  0.21772374157E+02  0.39082680015E+01  0.22398478022E+02  0.00000000000E+00 0.  1.
         14    1    4    4    0    0 -0.86991829391E+02 -0.31285983032E+02  0.43226497839E+02  0.10205352140E+03  0.00000000000E+00 0. -1.
         -5    1    5    5    0  503 -0.25680606094E+02 -0.36532966064E+02 -0.31263480960E+02  0.54714224663E+02  0.47000000000E+01 0.  1.
         13    1    6    6    0    0  0.42343686376E+01  0.60997916375E+02 -0.35486809439E+02  0.70696459063E+02  0.00000000000E+00 0. -1.
        -14    1    6    6    0    0  0.57245285827E+02  0.14712335524E+02  0.15573387581E+02  0.61122875970E+02  0.00000000000E+00 0.  1.
</event>
<event>
12    1  0.9028446E-003  0.3313287E+03  0.7818608E-02  0.1070911E+00
         21   -1    0    0  501  502  0.00000000000E+00  0.00000000000E+00  0.17092444929E+03  0.17092444929E+03  0.00000000000E+00 0. -1.
         21   -1    0    0  502  503 -0.00000000000E+00 -0.00000000000E+00 -0.70565741365E+03  0.70565741365E+03  0.00000000000E+00 0. -1.
          6    2    1    2  501    0  0.25780957192E+03 -0.10827435367E+03 -0.12842773745E+03  0.35230841692E+03  0.17157629745E+03 0.  0.
         24    2    3    3    0    0  0.33547941283E+02 -0.24447971617E+02 -0.25229343270E+02  0.91555392263E+02  0.77606071992E+02 0.  0.
         -6    2    1    2    0  503 -0.25780957192E+03  0.10827435367E+03 -0.40630522691E+03  0.52427344602E+03  0.17773462733E+03 0.  0.
        -24    2    5    5    0    0 -0.24906645322E+03  0.47197272523E+02 -0.35950236839E+03  0.44668833449E+03  0.77632690510E+02 0.  0.
          5    1    3    3  501    0  0.22426163064E+03 -0.83826382054E+02 -0.10319839418E+03  0.26075302465E+03  0.47000000000E+01 0. -1.
        -11    1    4    4    0    0  0.44290760393E+00  0.76150850478E+01  0.23367200208E+02  0.24580718724E+02  0.00000000000E+00 0.  1.
         12    1    4    4    0    0  0.33105033679E+02 -0.32063056665E+02 -0.48596543478E+02  0.66974673538E+02  0.00000000000E+00 0. -1.
         -5    1    5    5    0  503 -0.87431187024E+01  0.61077081148E+02 -0.46802858514E+02  0.77585111531E+02  0.47000000000E+01 0.  1.
         13    1    6    6    0    0 -0.22610794079E+03  0.57784036876E+02 -0.28702810619E+03  0.36993097944E+03  0.00000000000E+00 0. -1.
        -14    1    6    6    0    0 -0.22958512432E+02 -0.10586764352E+02 -0.72474262207E+02  0.76757355054E+02  0.00000000000E+00 0.  1.
</event>
<event>
12    1  0.9028446E-003  0.2863716E+03  0.7818608E-02  0.1092379E+00
         21   -1    0    0  501  502  0.00000000000E+00  0.00000000000E+00  0.13195251250E+03  0.13195251250E+03  0.00000000000E+00 0. -1.
         21   -1    0    0  502  503 -0.00000000000E+00 -0.00000000000E+00 -0.74882699119E+03  0.74882699119E+03  0.00000000000E+00 0. -1.
          6    2    1    2  501    0  0.16788728261E+03 -0.15511896578E+03 -0.12504523742E+03  0.31165324710E+03  0.17100702273E+03 0.  0.
         24    2    3    3    0    0  0.34707047794E+02 -0.11730822043E+03 -0.55502772619E+02  0.15665366059E+03  0.80585444476E+02 0.  0.
         -6    2    1    2    0  503 -0.16788728261E+03  0.15511896578E+03 -0.49182924127E+03  0.56912625658E+03  0.17251278259E+03 0.  0.
        -24    2    5    5    0    0 -0.15625155772E+03  0.14653777746E+03 -0.50133148366E+03  0.55119835941E+03  0.81231184898E+02 0.  0.
          5    1    3    3  501    0  0.13318023481E+03 -0.37810745349E+02 -0.69542464798E+02  0.15499958651E+03  0.47000000000E+01 0. -1.
        -11    1    4    4    0    0 -0.90287113112E+01 -0.29394269600E+02 -0.49506190543E+02  0.58278672046E+02  0.00000000000E+00 0.  1.
         12    1    4    4    0    0  0.43735759105E+02 -0.87913950827E+02 -0.59965820760E+01  0.98374988545E+02  0.00000000000E+00 0. -1.
         -5    1    5    5    0  503 -0.11635724886E+02  0.85811883205E+01  0.95022423864E+01  0.17927897171E+02  0.47000000000E+01 0.  1.
         13    1    6    6    0    0 -0.10804941544E+03  0.14450798269E+03 -0.40862779934E+03  0.44669218891E+03  0.00000000000E+00 0. -1.
        -14    1    6    6    0    0 -0.48202142285E+02  0.20297947688E+01 -0.92703684317E+02  0.10450617050E+03  0.00000000000E+00 0.  1.
</event>
<event>
12    1  0.9028446E-003  0.1946162E+03  0.7818608E-02  0.1154364E+00
         21   -1    0    0  503  502  0.00000000000E+00  0.00000000000E+00  0.24866024961E+03  0.24866024961E+03  0.00000000000E+00 0. -1.
         21   -1    0    0  501  503 -0.00000000000E+00 -0.00000000000E+00 -0.16238795109E+03  0.16238795109E+03  0.00000000000E+00 0.  1.
          6    2    1    2  501    0  0.91646181176E+02  0.49529441799E+01 -0.80528285931E+01  0.19478269619E+03  0.17161554855E+03 0.  0.
         24    2    3    3    0    0  0.92772302490E+02 -0.55326991104E+02 -0.16470957008E+01  0.13397100191E+03  0.79232192789E+02 0.  0.
         -6    2    1    2    0  502 -0.91646181176E+02 -0.49529441799E+01  0.94325127110E+02  0.21626550452E+03  0.17160997832E+03 0.  0.
        -24    2    5    5    0    0 -0.99560735502E+02 -0.58204819580E+02  0.67242277351E+02  0.15581740153E+03  0.80357934767E+02 0.  0.
          5    1    3    3  501    0 -0.11261213140E+01  0.60279935284E+02 -0.64057328923E+01  0.60811694278E+02  0.47000000000E+01 0. -1.
        -11    1    4    4    0    0  0.39900544806E+02  0.12025942315E+02  0.19138624823E+02  0.45858082434E+02  0.00000000000E+00 0.  1.
         12    1    4    4    0    0  0.52871757684E+02 -0.67352933419E+02 -0.20785720524E+02  0.88112919475E+02  0.00000000000E+00 0. -1.
         -5    1    5    5    0  502  0.79145543258E+01  0.53251875400E+02  0.27082849758E+02  0.60448102988E+02  0.47000000000E+01 0.  1.
         13    1    6    6    0    0 -0.49890041170E+02  0.14303970222E+02  0.17181896107E+02  0.54670259977E+02  0.00000000000E+00 0. -1.
        -14    1    6    6    0    0 -0.49670694332E+02 -0.72508789802E+02  0.50060381244E+02  0.10114714155E+03  0.00000000000E+00 0.  1.
</event>
<event>
12    1  0.9028446E-003  0.2742387E+03  0.7818608E-02  0.1098999E+00
         21   -1    0    0  503  502  0.00000000000E+00  0.00000000000E+00  0.48041316595E+03  0.48041316595E+03  0.00000000000E+00 0.  1.
         21   -1    0    0  501  503 -0.00000000000E+00 -0.00000000000E+00 -0.15767190328E+03  0.15767190328E+03  0.00000000000E+00 0.  1.
          6    2    1    2  501    0 -0.52867403141E+02 -0.20534348110E+03  0.12931007389E+03  0.30319622589E+03  0.17391362408E+03 0.  0.
         24    2    3    3    0    0 -0.64550970377E+02 -0.22681733058E+03  0.12125724840E+03  0.27703193815E+03  0.80190056969E+02 0.  0.
         -6    2    1    2    0  502  0.52867403141E+02  0.20534348110E+03  0.19343118879E+03  0.33488884334E+03  0.17255145624E+03 0.  0.
        -24    2    5    5    0    0  0.14304845824E+02  0.15504453346E+03  0.20237219626E+03  0.27070873291E+03  0.89918164387E+02 0.  0.
          5    1    3    3  501    0  0.11683567236E+02  0.21473849480E+02  0.80528254816E+01  0.26164287743E+02  0.47000000000E+01 0. -1.
        -13    1    4    4    0    0  0.11124665611E+02 -0.12176975308E+02  0.24938389655E+02  0.29899167065E+02  0.00000000000E+00 0.  1.
         14    1    4    4    0    0 -0.75675635988E+02 -0.21464035527E+03  0.96318858749E+02  0.24713277108E+03  0.00000000000E+00 0. -1.
         -5    1    5    5    0  502  0.38562557318E+02  0.50298947633E+02 -0.89410074648E+01  0.64180110427E+02  0.47000000000E+01 0.  1.
         11    1    6    6    0    0  0.31065788233E+02  0.11906953026E+03  0.19463680631E+03  0.23027401635E+03  0.00000000000E+00 0. -1.
        -12    1    6    6    0    0 -0.16760942409E+02  0.35975003204E+02  0.77353899448E+01  0.40434716563E+02  0.00000000000E+00 0.  1.
</event>
<event>
12    1  0.9028446E-003  0.2260653E+03  0.7818608E-02  0.1130808E+00
         21   -1    0    0  501  502  0.00000000000E+00  0.00000000000E+00  0.61348733396E+03  0.61348733396E+03  0.00000000000E+00 0.  1.
         21   -1    0    0  502  503 -0.00000000000E+00 -0.00000000000E+00 -0.80574490859E+02  0.80574490859E+02  0.00000000000E+00 0.  1.
          6    2    1    2  501    0 -0.12576365277E+03  0.54350484206E+02  0.27143722731E+03  0.35324734602E+03  0.17981948618E+03 0.  0.
         24    2    3    3    0    0 -0.12787110695E+03 -0.69737323695E+00  0.12752554143E+03  0.19908064630E+03  0.83778479875E+02 0.  0.
         -6    2    1    2    0  503  0.12576365277E+03 -0.54350484206E+02  0.26147561579E+03  0.34081447879E+03  0.17033654866E+03 0.  0.
        -24    2    5    5    0    0  0.11024489325E+03 -0.74444363803E+02  0.12029895243E+03  0.19729606126E+03  0.82207043754E+02 0.  0.
          5    1    3    3  501    0  0.21074541815E+01  0.55047857443E+02  0.14391168587E+03  0.15416669972E+03  0.47000000000E+01 0. -1.
        -13    1    4    4    0    0 -0.22113214754E+02  0.74746697956E+01 -0.10005331740E+02  0.25396291432E+02  0.00000000000E+00 0.  1.
         14    1    4    4    0    0 -0.10575789220E+03 -0.81720430325E+01  0.13753087317E+03  0.17368435487E+03  0.00000000000E+00 0. -1.
         -5    1    5    5    0  503  0.15518759526E+02  0.20093879597E+02  0.14117666336E+03  0.14351841754E+03  0.47000000000E+01 0.  1.
         13    1    6    6    0    0  0.39345578326E+02 -0.74117289132E+02  0.78973710742E+02  0.11523148038E+03  0.00000000000E+00 0. -1.
        -14    1    6    6    0    0  0.70899314920E+02 -0.32707467060E+00  0.41325241687E+02  0.82064580876E+02  0.00000000000E+00 0.  1.
</event>
<event>
12    1  0.9028446E-003  0.1776033E+03  0.7818608E-02  0.1171441E+00
         21   -1    0    0  503  502  0.00000000000E+00  0.00000000000E+00  0.20121475702E+03  0.20121475702E+03  0.00000000000E+00 0.  1.
         21   -1    0    0  501  503 -0.00000000000E+00 -0.00000000000E+00 -0.15222681326E+03  0.15222681326E+03  0.00000000000E+00 0.  1.
          6    2    1    2  501    0  0.14064589584E+02  0.41350504857E+02  0.22696906246E+02  0.17390289567E+03  0.16679145852E+03 0.  0.
         24    2    3    3    0    0 -0.19053541216E+02  0.17091701370E+02  0.71271998885E+02  0.11013041133E+03  0.79961528156E+02 0.  0.
         -6    2    1    2    0  502 -0.14064589584E+02 -0.41350504857E+02  0.26291037509E+02  0.17953867462E+03  0.17214888933E+03 0.  0.
        -24    2    5    5    0    0  0.50973935717E+02 -0.34012957610E+02 -0.29961519375E+01  0.10767993236E+03  0.88491623893E+02 0.  0.
          5    1    3    3  501    0  0.33118130800E+02  0.24258803487E+02 -0.48575092639E+02  0.63772484342E+02  0.47000000000E+01 0. -1.
        -13    1    4    4    0    0  0.21524126590E+02 -0.12976625171E+02  0.48718307650E+02  0.54819287906E+02  0.00000000000E+00 0.  1.
         14    1    4    4    0    0 -0.40577667806E+02  0.30068326541E+02  0.22553691235E+02  0.55311123419E+02  0.00000000000E+00 0. -1.
         -5    1    5    5    0  502 -0.65038525301E+02 -0.73375472464E+01  0.29287189447E+02  0.71858742256E+02  0.47000000000E+01 0.  1.
         11    1    6    6    0    0 -0.13640670481E+02  0.11067456294E+02  0.19004849925E+02  0.25879350855E+02  0.00000000000E+00 0. -1.
        -12    1    6    6    0    0  0.64614606198E+02 -0.45080413905E+02 -0.22001001863E+02  0.81800581507E+02  0.00000000000E+00 0.  1.
</event>
<event>
12    1  0.9028446E-003  0.2055033E+03  0.7818608E-02  0.1145406E+00
         21   -1    0    0  501  502  0.00000000000E+00  0.00000000000E+00  0.16382147798E+03  0.16382147798E+03  0.00000000000E+00 0. -1.
         21   -1    0    0  502  503 -0.00000000000E+00 -0.00000000000E+00 -0.31764328837E+03  0.31764328837E+03  0.00000000000E+00 0. -1.
          6    2    1    2  501    0 -0.45211275717E+02 -0.97734234865E+02  0.28634263909E+02  0.20748866387E+03  0.17503023867E+03 0.  0.
         24    2    3    3    0    0 -0.62910951317E+02 -0.21596758067E+02 -0.32082333895E+02  0.10839886047E+03  0.79352561701E+02 0.  0.
         -6    2    1    2    0  503  0.45211275717E+02  0.97734234865E+02 -0.18245607429E+03  0.27397610248E+03  0.17371426414E+03 0.  0.
        -24    2    5    5    0    0 -0.24798560005E+02  0.23889397396E+02 -0.35857728220E+02  0.95461110981E+02  0.81494632647E+02 0.  0.
          5    1    3    3  501    0  0.17699675600E+02 -0.76137476799E+02  0.60716597803E+02  0.99089803403E+02  0.47000000000E+01 0. -1.
        -13    1    4    4    0    0 -0.25137284448E+02  0.30286086334E+02 -0.11606432001E+02  0.41034611715E+02  0.00000000000E+00 0.  1.
         14    1    4    4    0    0 -0.37773666869E+02 -0.51882844401E+02 -0.20475901894E+02  0.67364248755E+02  0.00000000000E+00 0. -1.
         -5    1    5    5    0  503  0.70009835722E+02  0.73844837469E+02 -0.14659834607E+03  0.17851499150E+03  0.47000000000E+01 0.  1.
         13    1    6    6    0    0 -0.50202376811E+02  0.15463446032E+02 -0.42858853494E+02  0.67795856241E+02  0.00000000000E+00 0. -1.
        -14    1    6    6    0    0  0.25403816806E+02  0.84259513639E+01  0.70011252734E+01  0.27665254739E+02  0.00000000000E+00 0.  1.
</event>
<event>
12    1  0.9028446E-003  0.1845243E+03  0.7818608E-02  0.1165032E+00
         21   -1    0    0  501  502  0.00000000000E+00  0.00000000000E+00  0.10358897046E+03  0.10358897046E+03  0.00000000000E+00 0.  1.
         21   -1    0    0  502  503 -0.00000000000E+00 -0.00000000000E+00 -0.31898946248E+03  0.31898946248E+03  0.00000000000E+00 0.  1.
          6    2    1    2  501    0  0.31775871725E+02 -0.36842449773E+02 -0.90551335056E+02  0.19978587277E+03  0.17131193347E+03 0.  0.
         24    2    3    3    0    0  0.79352259972E+02 -0.31736346933E+02 -0.96185873036E+02  0.15137695807E+03  0.79745121369E+02 0.  0.
         -6    2    1    2    0  503 -0.31775871725E+02  0.36842449773E+02 -0.12484915697E+03  0.22279256017E+03  0.17799477729E+03 0.  0.
        -24    2    5    5    0    0 -0.89287527593E+02  0.41666745180E+02 -0.90972778026E+02  0.15570632137E+03  0.79120363585E+02 0.  0.
          5    1    3    3  501    0 -0.47576388247E+02 -0.51061028399E+01  0.56345379805E+01  0.48408914707E+02  0.47000000000E+01 0. -1.
        -11    1    4    4    0    0  0.43606750032E+02 -0.22058672154E+02 -0.60443276694E+00  0.48872272348E+02  0.00000000000E+00 0.  1.
         12    1    4    4    0    0  0.35745509940E+02 -0.96776747795E+01 -0.95581440270E+02  0.10250468572E+03  0.00000000000E+00 0. -1.
         -5    1    5    5    0  503  0.57511655868E+02 -0.48242954072E+01 -0.33876378939E+02  0.67086238804E+02  0.47000000000E+01 0.  1.
         11    1    6    6    0    0 -0.40350439321E+02 -0.11036452196E+02 -0.28060497870E+01  0.41926544645E+02  0.00000000000E+00 0. -1.
        -12    1    6    6    0    0 -0.48937088272E+02  0.52703197376E+02 -0.88166728239E+02  0.11377977672E+03  0.00000000000E+00 0.  1.
</event>
<event>
12    1  0.9028446E-003  0.2184046E+03  0.7818608E-02  0.1135280E+00
         21   -1    0    0  501  502  0.00000000000E+00  0.00000000000E+00  0.83233881779E+03  0.83233881779E+03  0.00000000000E+00 0. -1.
         21   -1    0    0  502  503 -0.00000000000E+00 -0.00000000000E+00 -0.10402267226E+03  0.10402267226E+03  0.00000000000E+00 0. -1.
          6    2    1    2  501    0  0.52624149558E+02  0.12145708155E+03  0.67932773306E+03  0.71357321241E+03  0.17372229794E+03 0.  0.
         24    2    3    3    0    0  0.80640633769E+01  0.93992427618E+01  0.14583350911E+03  0.16659904712E+03  0.79589290989E+02 0.  0.
         -6    2    1    2    0  503 -0.52624149558E+02 -0.12145708155E+03  0.48988412472E+02  0.22278827764E+03  0.17237641463E+03 0.  0.
        -24    2    5    5    0    0  0.63643367405E+01 -0.92640782305E+02 -0.24432124961E+02  0.12418459649E+03  0.78753196432E+02 0.  0.
          5    1    3    3  501    0  0.44560086181E+02  0.11205783879E+03  0.53349422394E+03  0.54697416529E+03  0.47000000000E+01 0. -1.
        -11    1    4    4    0    0 -0.34221175058E+02  0.13284851309E+02  0.83079627491E+02  0.90828412959E+02  0.00000000000E+00 0.  1.
         12    1    4    4    0    0  0.42285238435E+02 -0.38856085468E+01  0.62753881621E+02  0.75770634166E+02  0.00000000000E+00 0. -1.
         -5    1    5    5    0  503 -0.58988486299E+02 -0.28816299244E+02  0.73420537433E+02  0.98603681142E+02  0.47000000000E+01 0.  1.
         11    1    6    6    0    0  0.11986062947E+02 -0.92010493458E+02 -0.44806201711E+02  0.10303976088E+03  0.00000000000E+00 0. -1.
        -12    1    6    6    0    0 -0.56217262068E+01 -0.63028884693E+00  0.20374076750E+02  0.21144835611E+02  0.00000000000E+00 0.  1.
</event>
<event>
12    1  0.9028446E-003  0.1790085E+03  0.7818608E-02  0.1172163E+00
         21   -1    0    0  501  502  0.00000000000E+00  0.00000000000E+00  0.48598501266E+03  0.48598501266E+03  0.00000000000E+00 0. -1.
         21   -1    0    0  502  503 -0.00000000000E+00 -0.00000000000E+00 -0.81312958100E+02  0.81312958100E+02  0.00000000000E+00 0. -1.
          6    2    1    2  501    0 -0.26467501892E+02  0.44176487685E+02  0.33776747927E+03  0.37619517971E+03  0.15742888066E+03 0.  0.
         24    2    3    3    0    0  0.14414401130E+02  0.51701989292E+02  0.31686164380E+03  0.32942866257E+03  0.72395246766E+02 0.  0.
         -6    2    1    2    0  503  0.26467501892E+02 -0.44176487685E+02  0.66904575297E+02  0.19110279105E+03  0.17144084645E+03 0.  0.
        -24    2    5    5    0    0 -0.24516718258E+02 -0.53560048675E+02  0.89070779925E+02  0.13452653677E+03  0.81817094607E+02 0.  0.
          5    1    3    3  501    0 -0.40881903021E+02 -0.75255016066E+01  0.20905835468E+02  0.46766517143E+02  0.47000000000E+01 0. -1.
        -11    1    4    4    0    0  0.21654215159E+01  0.83869663933E+01 -0.70219830652E+00  0.86904164506E+01  0.00000000000E+00 0.  1.
         12    1    4    4    0    0  0.12248979614E+02  0.43315022898E+02  0.31756384211E+03  0.32073824612E+03  0.00000000000E+00 0. -1.
         -5    1    5    5    0  503  0.50984220150E+02  0.93835609901E+01 -0.22166204628E+02  0.56576254284E+02  0.47000000000E+01 0.  1.
         13    1    6    6    0    0  0.23927132169E+02 -0.20104459333E+02  0.46377024526E+01  0.31594385940E+02  0.00000000000E+00 0. -1.
        -14    1    6    6    0    0 -0.48443850427E+02 -0.33455589342E+02  0.84433077472E+02  0.10293215083E+03  0.00000000000E+00 0.  1.
</event>
<event>
12    1  0.9028446E-003  0.2247793E+03  0.7818608E-02  0.1130740E+00
         21   -1    0    0  501  502  0.00000000000E+00  0.00000000000E+00  0.49509948051E+03  0.49509948051E+03  0.00000000000E+00 0. -1.
         21   -1    0    0  502  503 -0.00000000000E+00 -0.00000000000E+00 -0.14299556690E+03  0.14299556690E+03  0.00000000000E+00 0.  1.
          6    2    1    2  501    0  0.13740184533E+03 -0.41940685414E+02  0.34925275844E+03  0.41533507216E+03  0.17287985625E+03 0.  0.
         24    2    3    3    0    0  0.11805397229E+03 -0.78563617743E+02  0.33264017017E+03  0.37046138886E+03  0.80518168275E+02 0.  0.
         -6    2    1    2    0  503 -0.13740184533E+03  0.41940685414E+02  0.28511551720E+01  0.22275997524E+03  0.17022217626E+03 0.  0.
        -24    2    5    5    0    0 -0.77854809021E+02 -0.20778926498E+02  0.50087582199E+02  0.12410416299E+03  0.79999639425E+02 0.  0.
          5    1    3    3  501    0  0.19347873047E+02  0.36622932329E+02  0.16612588272E+02  0.44873683300E+02  0.47000000000E+01 0. -1.
        -13    1    4    4    0    0  0.13255133997E+02 -0.47239359451E+02  0.14725243241E+03  0.15521125768E+03  0.00000000000E+00 0.  1.
         14    1    4    4    0    0  0.10479883829E+03 -0.31324258293E+02  0.18538773775E+03  0.21525013118E+03  0.00000000000E+00 0. -1.
         -5    1    5    5    0  503 -0.59547036312E+02  0.62719611912E+02 -0.47236427027E+02  0.98655812247E+02  0.47000000000E+01 0.  1.
         11    1    6    6    0    0  0.16164101379E+02  0.23297991519E+01  0.11022196528E+02  0.19702663621E+02  0.00000000000E+00 0. -1.
        -12    1    6    6    0    0 -0.94018910399E+02 -0.23108725650E+02  0.39065385671E+02  0.10440149937E+03  0.00000000000E+00 0.  1.
</event>
<event>
12    1  0.9028446E-003  0.1915481E+03  0.7818608E-02  0.1157272E+00
         21   -1    0    0  501  502  0.00000000000E+00  0.00000000000E+00  0.21199011144E+03  0.21199011144E+03  0.00000000000E+00 0.  1.
         21   -1    0    0  502  503 -0.00000000000E+00 -0.00000000000E+00 -0.17550269749E+03  0.17550269749E+03  0.00000000000E+00 0.  1.
          6    2    1    2  501    0 -0.81111908959E+02 -0.18185196994E+02  0.44578932729E+02  0.19666714941E+03  0.17257127005E+03 0.  0.
         24    2    3    3    0    0 -0.71935502598E+02 -0.41533508133E+02  0.85520119757E+02  0.14842172618E+03  0.88405707329E+02 0.  0.
         -6    2    1    2    0  503  0.81111908959E+02  0.18185196994E+02 -0.80915187795E+01  0.19082565951E+03  0.17157831008E+03 0.  0.
        -24    2    5    5    0    0  0.10596787628E+03  0.45834891800E+02  0.24081401597E+02  0.14143424791E+03  0.78062183356E+02 0.  0.
          5    1    3    3  501    0 -0.91764063612E+01  0.23348311139E+02 -0.40941187028E+02  0.48245423223E+02  0.47000000000E+01 0. -1.
        -13    1    4    4    0    0 -0.33434748043E+02 -0.58285118257E+02  0.19121912663E+02  0.69861898993E+02  0.00000000000E+00 0.  1.
         14    1    4    4    0    0 -0.38500754555E+02  0.16751610124E+02  0.66398207094E+02  0.78559827191E+02  0.00000000000E+00 0. -1.
         -5    1    5    5    0  503 -0.24855967322E+02 -0.27649694806E+02 -0.32172920376E+02  0.49391411601E+02  0.47000000000E+01 0.  1.
         11    1    6    6    0    0 -0.11218135337E+01  0.25793796002E+02  0.19561273176E+02  0.32391693165E+02  0.00000000000E+00 0. -1.
        -12    1    6    6    0    0  0.10708968981E+03  0.20041095798E+02  0.45201284205E+01  0.10904255475E+03  0.00000000000E+00 0.  1.
</event>
<event>
12    1  0.9028446E-003  0.1897123E+03  0.7818608E-02  0.1158850E+00
         21   -1    0    0  501  502  0.00000000000E+00  0.00000000000E+00  0.12390857409E+04  0.12390857409E+04  0.00000000000E+00 0. -1.
         21   -1    0    0  502  503 -0.00000000000E+00 -0.00000000000E+00 -0.29185786126E+02  0.29185786126E+02  0.00000000000E+00 0. -1.
          6    2    1    2  501    0  0.79845131602E+02  0.36770478781E+01  0.54814991187E+03  0.57986475588E+03  0.17142357920E+03 0.  0.
         24    2    3    3    0    0  0.54675539640E+01 -0.22397770974E+01  0.44937665817E+03  0.45598869476E+03  0.77145305039E+02 0.  0.
         -6    2    1    2    0  503 -0.79845131602E+02 -0.36770478781E+01  0.66175004287E+03  0.68840677111E+03  0.17205231052E+03 0.  0.
        -24    2    5    5    0    0 -0.52391534143E+02 -0.63995068294E+02  0.31960466048E+03  0.33987052294E+03  0.80774945040E+02 0.  0.
          5    1    3    3  501    0  0.74377577638E+02  0.59168249756E+01  0.98773253700E+02  0.12387606112E+03  0.47000000000E+01 0. -1.
        -13    1    4    4    0    0  0.36430107025E+02  0.15315898504E+02  0.29037825628E+03  0.29305504801E+03  0.00000000000E+00 0.  1.
         14    1    4    4    0    0 -0.30962553061E+02 -0.17555675601E+02  0.15899840189E+03  0.16293364675E+03  0.00000000000E+00 0. -1.
         -5    1    5    5    0  503 -0.27453597459E+02  0.60318020416E+02  0.34214538239E+03  0.34853624817E+03  0.47000000000E+01 0.  1.
         13    1    6    6    0    0 -0.37729318818E+02  0.32331059614E+01  0.18343928802E+03  0.18730703901E+03  0.00000000000E+00 0. -1.
        -14    1    6    6    0    0 -0.14662215325E+02 -0.67228174256E+02  0.13616537246E+03  0.15256348393E+03  0.00000000000E+00 0.  1.
</event>
<event>
12    1  0.9028446E-003  0.2717360E+03  0.7818608E-02  0.1100661E+00
         21   -1    0    0  503  502  0.00000000000E+00  0.00000000000E+00  0.11868034855E+03  0.11868034855E+03  0.00000000000E+00 0. -1.
         21   -1    0    0  501  503 -0.00000000000E+00 -0.00000000000E+00 -0.12046677711E+04  0.12046677711E+04  0.00000000000E+00 0. -1.
          6    2    1    2  501    0 -0.20940226100E+03  0.15141062595E+02 -0.10040978958E+04  0.10395412323E+04  0.16838892682E+03 0.  0.
         24    2    3    3    0    0 -0.12528237836E+03 -0.97708220121E+01 -0.32946275163E+03  0.35920938360E+03  0.68516664129E+02 0.  0.
         -6    2    1    2    0  502  0.20940226100E+03 -0.15141062595E+02 -0.81889526777E+02  0.28380688734E+03  0.17251636449E+03 0.  0.
        -24    2    5    5    0    0  0.10620416122E+03 -0.30572893274E+02  0.21608298239E+02  0.13676308781E+03  0.77609264725E+02 0.  0.
          5    1    3    3  501    0 -0.84119882646E+02  0.24911884607E+02 -0.67463514417E+03  0.68033184873E+03  0.47000000000E+01 0. -1.
        -13    1    4    4    0    0 -0.52466225664E+02 -0.38235104205E+02 -0.14605383654E+03  0.15983225957E+03  0.00000000000E+00 0.  1.
         14    1    4    4    0    0 -0.72816152694E+02  0.28464282193E+02 -0.18340891509E+03  0.19937712403E+03  0.00000000000E+00 0. -1.
         -5    1    5    5    0  502  0.10319809978E+03  0.15431830679E+02 -0.10349782502E+03  0.14704379953E+03  0.47000000000E+01 0.  1.
         13    1    6    6    0    0  0.11297962920E+03 -0.10273436931E+02  0.20873767286E+02  0.11535013776E+03  0.00000000000E+00 0. -1.
        -14    1    6    6    0    0 -0.67754679790E+01 -0.20299456344E+02  0.73453095309E+00  0.21412950051E+02  0.00000000000E+00 0.  1.
</event>
<event>
12    1  0.9028446E-003  0.1937385E+03  0.7818608E-02  0.1155328E+00
         21   -1    0    0  501  502  0.00000000000E+00  0.00000000000E+00  0.19060765114E+03  0.19060765114E+03  0.00000000000E+00 0.  1.
         21   -1    0    0  502  503 -0.00000000000E+00 -0.00000000000E+00 -0.19604137066E+03  0.19604137066E+03  0.00000000000E+00 0.  1.
          6    2    1    2  501    0 -0.41251069201E+02 -0.76133607930E+02 -0.47548713941E+01  0.19379686096E+03  0.17331081198E+03 0.  0.
         24    2    3    3    0    0 -0.12855800150E+02 -0.18901141242E+01 -0.59588748070E+02  0.97115778490E+02  0.75576526820E+02 0.  0.
         -6    2    1    2    0  503  0.41251069201E+02  0.76133607930E+02 -0.67884812635E+00  0.19285216084E+03  0.17231807258E+03 0.  0.
        -24    2    5    5    0    0 -0.46281769987E+01  0.29637434001E+02  0.57664325890E+02  0.10514346471E+03  0.82644879903E+02 0.  0.
          5    1    3    3  501    0 -0.28395269052E+02 -0.74243493805E+02  0.54833876676E+02  0.96681082474E+02  0.47000000000E+01 0. -1.
        -11    1    4    4    0    0 -0.40182661507E+02 -0.17619415304E+02 -0.25794068257E+02  0.50896208490E+02  0.00000000000E+00 0.  1.
         12    1    4    4    0    0  0.27326861357E+02  0.15729301180E+02 -0.33794679814E+02  0.46219570000E+02  0.00000000000E+00 0. -1.
         -5    1    5    5    0  503  0.45879246200E+02  0.46496173928E+02 -0.58343174016E+02  0.87708696126E+02  0.47000000000E+01 0.  1.
         13    1    6    6    0    0  0.27423619730E+02 -0.16240701454E+02  0.23135640195E+02  0.39383666031E+02  0.00000000000E+00 0. -1.
        -14    1    6    6    0    0 -0.32051796729E+02  0.45878135455E+02  0.34528685695E+02  0.65759798678E+02  0.00000000000E+00 0.  1.
</event>
<event>
12    1  0.9028446E-003  0.2080326E+03  0.7818608E-02  0.1143248E+00
         21   -1    0    0  501  502  0.00000000000E+00  0.00000000000E+00  0.22936673616E+03  0.22936673616E+03  0.00000000000E+00 0. -1.
         21   -1    0    0  502  503 -0.00000000000E+00 -0.00000000000E+00 -0.22072891005E+03  0.22072891005E+03  0.00000000000E+00 0.  1.
          6    2    1    2  501    0 -0.10257934496E+03 -0.55927444639E+02  0.90754937193E+02  0.22644235060E+03  0.17143301446E+03 0.  0.
         24    2    3    3    0    0  0.12698773537E+02 -0.34388013901E+02  0.56439375614E+02  0.10416136497E+03  0.79500896118E+02 0.  0.
         -6    2    1    2    0  503  0.10257934496E+03  0.55927444639E+02 -0.82117111086E+02  0.22365329561E+03  0.17212546478E+03 0.  0.
        -24    2    5    5    0    0  0.91576327755E+02  0.77706786269E+02  0.31700867171E+01  0.13481973090E+03  0.61169779738E+02 0.  0.
          5    1    3    3  501    0 -0.11527811850E+03 -0.21539430738E+02  0.34315561579E+02  0.12228098563E+03  0.47000000000E+01 0. -1.
        -11    1    4    4    0    0  0.28664630580E+01  0.12359990115E+02 -0.14100024536E+02  0.18968306672E+02  0.00000000000E+00 0.  1.
         12    1    4    4    0    0  0.98323104793E+01 -0.46748004016E+02  0.70539400150E+02  0.85193058299E+02  0.00000000000E+00 0. -1.
         -5    1    5    5    0  503  0.11003017204E+02 -0.21779341630E+02 -0.85287197803E+02  0.88833564707E+02  0.47000000000E+01 0.  1.
         11    1    6    6    0    0 -0.42181936755E+01  0.21676358219E+02 -0.75207426108E+01  0.23328506873E+02  0.00000000000E+00 0. -1.
        -12    1    6    6    0    0  0.95794521430E+02  0.56030428050E+02  0.10690829328E+02  0.11149122403E+03  0.00000000000E+00 0.  1.
</event>
<event>
12    1  0.9028446E-003  0.2196319E+03  0.7818608E-02  0.1134756E+00
         21   -1    0    0  503  502  0.00000000000E+00  0.00000000000E+00  0.86392590918E+02  0.86392590918E+02  0.00000000000E+00 0.  1.
         21   -1    0    0  501  503 -0.00000000000E+00 -0.00000000000E+00 -0.56391990208E+03  0.56391990208E+03  0.00000000000E+00 0.  1.
          6    2    1    2  501    0 -0.98387119969E+02  0.92743672953E+02 -0.29097083893E+03  0.36455754991E+03  0.17308022371E+03 0.  0.
         24    2    3    3    0    0 -0.21728894827E+02 -0.17192781862E+02 -0.10216012709E+03  0.13296721659E+03  0.80472681721E+02 0.  0.
         -6    2    1    2    0  502  0.98387119969E+02 -0.92743672953E+02 -0.18655647223E+03  0.28575494309E+03  0.16903004443E+03 0.  0.
        -24    2    5    5    0    0 -0.10560666488E+02 -0.19600960604E+02 -0.97003334775E+02  0.12681680741E+03  0.78594722160E+02 0.  0.
          5    1    3    3  501    0 -0.76658225142E+02  0.10993645481E+03 -0.18881071185E+03  0.23159033332E+03  0.47000000000E+01 0. -1.
        -13    1    4    4    0    0 -0.47532332136E+02  0.85726422289E+01 -0.64079197113E+02  0.80243107466E+02  0.00000000000E+00 0.  1.
         14    1    4    4    0    0  0.25803437309E+02 -0.25765424091E+02 -0.38080929973E+02  0.52724109126E+02  0.00000000000E+00 0. -1.
         -5    1    5    5    0  502  0.10894778646E+03 -0.73142712348E+02 -0.89553137453E+02  0.15893813567E+03  0.47000000000E+01 0.  1.
         13    1    6    6    0    0 -0.15663805359E+02 -0.29936034650E+02 -0.50711415203E+01  0.34164856874E+02  0.00000000000E+00 0. -1.
        -14    1    6    6    0    0  0.51031388707E+01  0.10335074046E+02 -0.91932193255E+02  0.92651950538E+02  0.00000000000E+00 0.  1.
</event>
<event>
12    1  0.9028446E-003  0.1905972E+03  0.7818608E-02  0.1159020E+00
         21   -1    0    0  501  502  0.00000000000E+00  0.00000000000E+00  0.19836074247E+04  0.19836074247E+04  0.00000000000E+00 0. -1.
         21   -1    0    0  502  503 -0.00000000000E+00 -0.00000000000E+00 -0.20382667854E+02  0.20382667854E+02  0.00000000000E+00 0. -1.
          6    2    1    2  501    0  0.63142499848E+02 -0.33864117080E+02  0.13455232035E+04  0.13589554709E+04  0.17661689352E+03 0.  0.
         24    2    3    3    0    0 -0.13034795274E+02 -0.67221690229E+02  0.85582746994E+03  0.86222646085E+03  0.79404974417E+02 0.  0.
         -6    2    1    2    0  503 -0.63142499848E+02  0.33864117080E+02  0.61770155337E+03  0.64503462166E+03  0.17140799395E+03 0.  0.
        -24    2    5    5    0    0 -0.57384511661E+02 -0.28910792267E+02  0.22229739778E+03  0.24460937279E+03  0.79301930050E+02 0.  0.
          5    1    3    3  501    0  0.76177295122E+02  0.33357573149E+02  0.48969573355E+03  0.49672901006E+03  0.47000000000E+01 0. -1.
        -11    1    4    4    0    0 -0.21760842421E+02 -0.31907920658E+02  0.13325960200E+03  0.13874354468E+03  0.00000000000E+00 0.  1.
         12    1    4    4    0    0  0.87260471467E+01 -0.35313769571E+02  0.72256786793E+03  0.72348291617E+03  0.00000000000E+00 0. -1.
         -5    1    5    5    0  503 -0.57579881869E+01  0.62774909346E+02  0.39540415559E+03  0.40042524887E+03  0.47000000000E+01 0.  1.
         11    1    6    6    0    0 -0.47701313793E+02  0.20102340070E+02  0.10310202343E+03  0.11536700850E+03  0.00000000000E+00 0. -1.
        -12    1    6    6    0    0 -0.96831978681E+01 -0.49013132337E+02  0.11919537435E+03  0.12924236429E+03  0.00000000000E+00 0.  1.
</event>
<event>
12    1  0.9028446E-003  0.2079338E+03  0.7818608E-02  0.1144120E+00
         21   -1    0    0  501  502  0.00000000000E+00  0.00000000000E+00  0.98802901664E+02  0.98802901664E+02  0.00000000000E+00 0. -1.
         21   -1    0    0  502  503 -0.00000000000E+00 -0.00000000000E+00 -0.42992448590E+03  0.42992448590E+03  0.00000000000E+00 0. -1.
          6    2    1    2  501    0  0.99700065495E+02  0.46641455198E+02 -0.14724889559E+03  0.25115645047E+03  0.17111924777E+03 0.  0.
         24    2    3    3    0    0  0.22878341394E+02  0.81779113828E+02 -0.75778684822E+02  0.14040306057E+03  0.82215378005E+02 0.  0.
         -6    2    1    2    0  503 -0.99700065495E+02 -0.46641455198E+02 -0.18387268865E+03  0.27757093709E+03  0.17641125555E+03 0.  0.
        -24    2    5    5    0    0  0.39126929147E+01  0.13001849660E+02 -0.11896916449E+03  0.14145523276E+03  0.75309783649E+02 0.  0.
          5    1    3    3  501    0  0.76821724101E+02 -0.35137658629E+02 -0.71470210768E+02  0.11075338990E+03  0.47000000000E+01 0. -1.
        -11    1    4    4    0    0  0.14265722136E+02  0.56982111722E+02 -0.92285588474E+02  0.10939424905E+03  0.00000000000E+00 0.  1.
         12    1    4    4    0    0  0.86126192576E+01  0.24797002106E+02  0.16506903652E+02  0.31008811523E+02  0.00000000000E+00 0. -1.
         -5    1    5    5    0  503 -0.10361275841E+03 -0.59643304858E+02 -0.64903524154E+02  0.13611570434E+03  0.47000000000E+01 0.  1.
         11    1    6    6    0    0 -0.30690566639E+02  0.80741724964E+01 -0.91964454046E+02  0.97285990513E+02  0.00000000000E+00 0. -1.
        -12    1    6    6    0    0  0.34603259554E+02  0.49276771631E+01 -0.27004710449E+02  0.44169242244E+02  0.00000000000E+00 0.  1.
</event>
<event>
12    1  0.9028446E-003  0.2019166E+03  0.7818608E-02  0.1148219E+00
         21   -1    0    0  503  502  0.00000000000E+00  0.00000000000E+00  0.13261674399E+03  0.13261674399E+03  0.00000000000E+00 0.  1.
         21   -1    0    0  501  503 -0.00000000000E+00 -0.00000000000E+00 -0.30818637942E+03  0.30818637942E+03  0.00000000000E+00 0. -1.
          6    2    1    2  501    0 -0.21885691078E+02  0.10402299773E+03 -0.10268376291E+03  0.22652654421E+03  0.17166989408E+03 0.  0.
         24    2    3    3    0    0 -0.46772696942E+02  0.10221490288E+03 -0.13014278330E+03  0.18912707805E+03  0.78716809243E+02 0.  0.
         -6    2    1    2    0  502  0.21885691078E+02 -0.10402299773E+03 -0.72885872512E+02  0.21427657921E+03  0.17117924656E+03 0.  0.
        -24    2    5    5    0    0 -0.16512729952E+02 -0.72064265331E+02  0.17559229771E+02  0.11084444764E+03  0.80698428941E+02 0.  0.
          5    1    3    3  501    0  0.24887005864E+02  0.18080948504E+01  0.27459020390E+02  0.37399466155E+02  0.47000000000E+01 0. -1.
        -13    1    4    4    0    0  0.35915758862E+01 -0.82826315420E+01  0.24252617360E+01  0.93479033529E+01  0.00000000000E+00 0.  1.
         14    1    4    4    0    0 -0.50364272828E+02  0.11049753442E+03 -0.13256804504E+03  0.17977917470E+03  0.00000000000E+00 0. -1.
         -5    1    5    5    0  502  0.38398421030E+02 -0.31958732395E+02 -0.90445102283E+02  0.10343213157E+03  0.47000000000E+01 0.  1.
         13    1    6    6    0    0  0.23312295453E+02 -0.39993184692E+02 -0.16793122606E+02  0.49243546866E+02  0.00000000000E+00 0. -1.
        -14    1    6    6    0    0 -0.39825025405E+02 -0.32071080638E+02  0.34352352378E+02  0.61600900770E+02  0.00000000000E+00 0.  1.
</event>
<event>
12    1  0.9028446E-003  0.2111628E+03  0.7818608E-02  0.1140910E+00
         21   -1    0    0  501  502  0.00000000000E+00  0.00000000000E+00  0.16767649595E+02  0.16767649595E+02  0.00000000000E+00 0. -1.
         21   -1    0    0  502  503 -0.00000000000E+00 -0.00000000000E+00 -0.26979797216E+04  0.26979797216E+04  0.00000000000E+00 0.  1.
          6    2    1    2  501    0 -0.12127345098E+03 -0.16934845711E+01 -0.11502981737E+04  0.11695193913E+04  0.17285716751E+03 0.  0.
         24    2    3    3    0    0 -0.52908979147E+02 -0.12252991944E+02 -0.99177691351E+03  0.99649834014E+03  0.80237147552E+02 0.  0.
         -6    2    1    2    0  503  0.12127345098E+03  0.16934845711E+01 -0.15309138984E+04  0.15452279800E+04  0.17123676033E+03 0.  0.
        -24    2    5    5    0    0  0.40025676483E+02  0.40337313894E+02 -0.45551376161E+03  0.46606066647E+03  0.80564285787E+02 0.  0.
          5    1    3    3  501    0 -0.68364471829E+02  0.10559507373E+02 -0.15852126019E+03  0.17302105114E+03  0.47000000000E+01 0. -1.
        -13    1    4    4    0    0 -0.12291247410E+02  0.32338928552E+02 -0.46342932543E+03  0.46471886203E+03  0.00000000000E+00 0.  1.
         14    1    4    4    0    0 -0.40617731737E+02 -0.44591920496E+02 -0.52834758808E+03  0.53177947810E+03  0.00000000000E+00 0. -1.
         -5    1    5    5    0  503  0.81247774493E+02 -0.38643829322E+02 -0.10754001367E+04  0.10791673135E+04  0.47000000000E+01 0.  1.
         13    1    6    6    0    0 -0.24610663413E+02  0.14802326899E+02 -0.11549006731E+03  0.11900734970E+03  0.00000000000E+00 0. -1.
        -14    1    6    6    0    0  0.64636339896E+02  0.25534986994E+02 -0.34002369430E+03  0.34705331677E+03  0.00000000000E+00 0.  1.
</event>
<event>
12    1  0.9028446E-003  0.1746128E+03  0.7818608E-02  0.1173539E+00
         21   -1    0    0  501  502  0.00000000000E+00  0.00000000000E+00  0.70300677782E+03  0.70300677782E+03  0.00000000000E+00 0.  1.
         21   -1    0    0  502  503 -0.00000000000E+00 -0.00000000000E+00 -0.47432824956E+02  0.47432824956E+02  0.00000000000E+00 0.  1.
          6    2    1    2  501    0  0.22121138764E+02 -0.32220601775E+00  0.44440643040E+03  0.47747951594E+03  0.17320555465E+03 0.  0.
         24    2    3    3    0    0 -0.38810305519E+02  0.30243924244E+02  0.33670628733E+03  0.34993211284E+03  0.81611426251E+02 0.  0.
         -6    2    1    2    0  503 -0.22121138764E+02  0.32220601775E+00  0.21116752246E+03  0.27296008684E+03  0.17154019315E+03 0.  0.
        -24    2    5    5    0    0 -0.64610285829E+02 -0.44242598641E+02  0.14574541506E+03  0.18299625205E+03  0.78192107553E+02 0.  0.
          5    1    3    3  501    0  0.60931444284E+02 -0.30566130262E+02  0.10770014307E+03  0.12754740310E+03  0.47000000000E+01 0. -1.
        -13    1    4    4    0    0  0.23834735265E+02  0.20276384120E+02  0.93916068514E+02  0.98992193042E+02  0.00000000000E+00 0.  1.
         14    1    4    4    0    0 -0.62645040785E+02  0.99675401240E+01  0.24279021882E+03  0.25093991979E+03  0.00000000000E+00 0. -1.
         -5    1    5    5    0  503  0.42489147065E+02  0.44564804659E+02  0.65422107398E+02  0.89963834784E+02  0.47000000000E+01 0.  1.
         13    1    6    6    0    0  0.96104951652E+01 -0.27150455949E+02  0.17099056939E+02  0.33494576035E+02  0.00000000000E+00 0. -1.
        -14    1    6    6    0    0 -0.74220780994E+02 -0.17092142692E+02  0.12864635812E+03  0.14950167602E+03  0.00000000000E+00 0.  1.
</event>
<event>
12    1  0.9028446E-003  0.1840914E+03  0.7818608E-02  0.1163906E+00
         21   -1    0    0  503  502  0.00000000000E+00  0.00000000000E+00  0.39808199659E+03  0.39808199659E+03  0.00000000000E+00 0.  1.
         21   -1    0    0  501  503 -0.00000000000E+00 -0.00000000000E+00 -0.11463068207E+03  0.11463068207E+03  0.00000000000E+00 0.  1.
          6    2    1    2  501    0 -0.60730587005E+02 -0.19579136198E+02  0.11665992599E+02  0.18446071330E+03  0.17267921877E+03 0.  0.
         24    2    3    3    0    0 -0.33023343173E+02 -0.78457431649E+02  0.21220933407E+02  0.11852337995E+03  0.79695381320E+02 0.  0.
         -6    2    1    2    0  502  0.60730587005E+02  0.19579136198E+02  0.27178532192E+03  0.32825196536E+03  0.17265730444E+03 0.  0.
        -24    2    5    5    0    0  0.85346031795E+02  0.25762428927E+02  0.10445179994E+03  0.15893938222E+03  0.80024376415E+02 0.  0.
          5    1    3    3  501    0 -0.27707243831E+02  0.58878295451E+02 -0.95549408085E+01  0.65937333354E+02  0.47000000000E+01 0. -1.
        -13    1    4    4    0    0 -0.22132440000E+01  0.20832753030E+01 -0.21900263351E+02  0.22110179100E+02  0.00000000000E+00 0.  1.
         14    1    4    4    0    0 -0.30810099173E+02 -0.80540706952E+02  0.43121196758E+02  0.96413200845E+02  0.00000000000E+00 0. -1.
         -5    1    5    5    0  502 -0.24615444790E+02 -0.61832927291E+01  0.16733352198E+03  0.16931258314E+03  0.47000000000E+01 0.  1.
         11    1    6    6    0    0 -0.80084093681E+01  0.13635148596E+02 -0.29868674808E+01  0.16092646619E+02  0.00000000000E+00 0. -1.
        -12    1    6    6    0    0  0.93354441163E+02  0.12127280331E+02  0.10743866742E+03  0.14284673560E+03  0.00000000000E+00 0.  1.
</event>
<event>
12    1  0.9028446E-003  0.2074434E+03  0.7818608E-02  0.1143831E+00
         21   -1    0    0  501  502  0.00000000000E+00  0.00000000000E+00  0.64211341363E+03  0.64211341363E+03  0.00000000000E+00 0.  1.
         21   -1    0    0  502  503 -0.00000000000E+00 -0.00000000000E+00 -0.91652736078E+02  0.91652736078E+02  0.00000000000E+00 0. -1.
          6    2    1    2  501    0 -0.29536064253E+02 -0.11135114994E+03  0.46736127345E+03  0.51133094906E+03  0.17251470043E+03 0.  0.
         24    2    3    3    0    0  0.82472658095E+01  0.52097793252E+01  0.23694726191E+03  0.25031995892E+03  0.80130629054E+02 0.  0.
         -6    2    1    2    0  503  0.29536064253E+02  0.11135114994E+03  0.83099404106E+02  0.22243520065E+03  0.17117374168E+03 0.  0.
        -24    2    5    5    0    0 -0.30369887634E+02  0.11709842935E+03  0.64172266373E+02  0.15917319914E+03  0.81139727147E+02 0.  0.
          5    1    3    3  501    0 -0.37783330062E+02 -0.11656092927E+03  0.23041401154E+03  0.26101099014E+03  0.47000000000E+01 0. -1.
        -11    1    4    4    0    0  0.31138075241E+02 -0.26954145143E+02  0.11613227803E+03  0.12321855246E+03  0.00000000000E+00 0.  1.
         12    1    4    4    0    0 -0.22890809432E+02  0.32163924468E+02  0.12081498388E+03  0.12710140646E+03  0.00000000000E+00 0. -1.
         -5    1    5    5    0  503  0.59905951887E+02 -0.57472794078E+01  0.18927137733E+02  0.63262001509E+02  0.47000000000E+01 0.  1.
         13    1    6    6    0    0 -0.20554531606E+02  0.11812454066E+03  0.29987846903E+02  0.12359274590E+03  0.00000000000E+00 0. -1.
        -14    1    6    6    0    0 -0.98153560286E+01 -0.10261113133E+01  0.34184419469E+02  0.35580453241E+02  0.00000000000E+00 0.  1.
</event>
<event>
12    1  0.9028446E-003  0.2229216E+03  0.7818608E-02  0.1131953E+00
         21   -1    0    0  501  502  0.00000000000E+00  0.00000000000E+00  0.16858546180E+03  0.16858546180E+03  0.00000000000E+00 0.  1.
         21   -1    0    0  502  503 -0.00000000000E+00 -0.00000000000E+00 -0.31584623238E+03  0.31584623238E+03  0.00000000000E+00 0.  1.
          6    2    1    2  501    0 -0.21840683932E+02  0.13852254010E+03 -0.13878788124E+03  0.26259495246E+03  0.17328740141E+03 0.  0.
         24    2    3    3    0    0 -0.40736094778E+02  0.16133800076E+03 -0.86044492919E+02  0.20191928346E+03  0.75354909364E+02 0.  0.
         -6    2    1    2    0  503  0.21840683932E+02 -0.13852254010E+03 -0.84728893436E+01  0.22183674172E+03  0.17168063529E+03 0.  0.
        -24    2    5    5    0    0  0.61118666312E+02 -0.14485226693E+03 -0.25291536609E+02  0.17838812566E+03  0.80405167409E+02 0.  0.
          5    1    3    3  501    0  0.18895410846E+02 -0.22815460662E+02 -0.52743388319E+02  0.60675668992E+02  0.47000000000E+01 0. -1.
        -11    1    4    4    0    0 -0.54139950775E+02  0.73667232745E+02 -0.60487737117E+02  0.10962099157E+03  0.00000000000E+00 0.  1.
         12    1    4    4    0    0  0.13403855997E+02  0.87670768017E+02 -0.25556755802E+02  0.92298291898E+02  0.00000000000E+00 0. -1.
         -5    1    5    5    0  503 -0.39277982380E+02  0.63297268324E+01  0.16818647266E+02  0.43448616059E+02  0.47000000000E+01 0.  1.
         13    1    6    6    0    0  0.57301410313E+01  0.90997095908E+01  0.52219887664E+01  0.11954430039E+02  0.00000000000E+00 0. -1.
        -14    1    6    6    0    0  0.55388525281E+02 -0.15395197652E+03 -0.30513525376E+02  0.16643369562E+03  0.00000000000E+00 0.  1.
</event>
<event>
12    1  0.9028446E-003  0.1759941E+03  0.7818608E-02  0.1172142E+00
         21   -1    0    0  501  502  0.00000000000E+00  0.00000000000E+00  0.34621782721E+02  0.34621782721E+02  0.00000000000E+00 0. -1.
         21   -1    0    0  502  503 -0.00000000000E+00 -0.00000000000E+00 -0.92770361676E+03  0.92770361676E+03  0.00000000000E+00 0. -1.
          6    2    1    2  501    0  0.30989428948E+02  0.13420169612E+02 -0.34703929295E+03  0.38911464756E+03  0.17272374601E+03 0.  0.
         24    2    3    3    0    0 -0.28890875295E+02 -0.41026184933E+02 -0.20850633247E+03  0.22860443761E+03  0.79166076622E+02 0.  0.
         -6    2    1    2    0  503 -0.30989428948E+02 -0.13420169612E+02 -0.54604254109E+03  0.57321075192E+03  0.17107794651E+03 0.  0.
        -24    2    5    5    0    0 -0.58128867010E+02  0.43968431563E+02 -0.28688304255E+03  0.30634798508E+03  0.78962140970E+02 0.  0.
          5    1    3    3  501    0  0.59880304243E+02  0.54446354545E+02 -0.13853296048E+03  0.16051020995E+03  0.47000000000E+01 0. -1.
        -11    1    4    4    0    0  0.72980066848E+01 -0.40414847248E+02 -0.17334417866E+03  0.17814270980E+03  0.00000000000E+00 0.  1.
         12    1    4    4    0    0 -0.36188881980E+02 -0.61133768496E+00 -0.35162153813E+02  0.50461727809E+02  0.00000000000E+00 0. -1.
         -5    1    5    5    0  503  0.27139438061E+02 -0.57388601175E+02 -0.25915949854E+03  0.26686276684E+03  0.47000000000E+01 0.  1.
         11    1    6    6    0    0 -0.17434179601E+02 -0.65482958032E+01 -0.18251812754E+03  0.18346579429E+03  0.00000000000E+00 0. -1.
        -12    1    6    6    0    0 -0.40694687408E+02  0.50516727366E+02 -0.10436491501E+03  0.12288219079E+03  0.00000000000E+00 0.  1.
</event>
<event>
12    1  0.9028446E-003  0.2035221E+03  0.7818608E-02  0.1146896E+00
         21   -1    0    0  501  502  0.00000000000E+00  0.00000000000E+00  0.37628140804E+03  0.37628140804E+03  0.00000000000E+00 0. -1.
         21   -1    0    0  502  503 -0.00000000000E+00 -0.00000000000E+00 -0.47686150524E+03  0.47686150524E+03  0.00000000000E+00 0. -1.
          6    2    1    2  501    0 -0.30938768350E+02  0.10607275733E+03  0.32395957686E+03  0.38234021768E+03  0.17036900358E+03 0.  0.
         24    2    3    3    0    0  0.81328865060E+01  0.98017118607E+02  0.11797027721E+03  0.17247080805E+03  0.78458230548E+02 0.  0.
         -6    2    1    2    0  503  0.30938768350E+02 -0.10607275733E+03 -0.42453967406E+03  0.47080269560E+03  0.17091695674E+03 0.  0.
        -24    2    5    5    0    0  0.59231142020E+02 -0.13185555445E+03 -0.35864606518E+03  0.39445304776E+03  0.77922983698E+02 0.  0.
          5    1    3    3  501    0 -0.39071654856E+02  0.80556387223E+01  0.20598929965E+03  0.20986940963E+03  0.47000000000E+01 0. -1.
        -13    1    4    4    0    0 -0.33406816692E+02  0.63489033330E+02  0.64736852012E+02  0.96631944838E+02  0.00000000000E+00 0.  1.
         14    1    4    4    0    0  0.41539703198E+02  0.34528085277E+02  0.53233425195E+02  0.75838863208E+02  0.00000000000E+00 0. -1.
         -5    1    5    5    0  503 -0.28292373670E+02  0.25782797120E+02 -0.65893608871E+02  0.76349647840E+02  0.47000000000E+01 0.  1.
         13    1    6    6    0    0  0.75415311853E+01 -0.53848024695E+02 -0.22384715404E+03  0.23035631710E+03  0.00000000000E+00 0. -1.
        -14    1    6    6    0    0  0.51689610835E+02 -0.78007529755E+02 -0.13479891115E+03  0.16409673066E+03  0.00000000000E+00 0.  1.
</event>
<event>
12    1  0.9028446E-003  0.1997137E+03  0.7818608E-02  0.1151074E+00
         21   -1    0    0  501  502  0.00000000000E+00  0.00000000000E+00  0.41725405791E+03  0.41725405791E+03  0.00000000000E+00 0. -1.
         21   -1    0    0  502  503 -0.00000000000E+00 -0.00000000000E+00 -0.94829983199E+02  0.94829983199E+02  0.00000000000E+00 0. -1.
          6    2    1    2  501    0  0.40184436045E+02 -0.91777319115E+02  0.12523976661E+03  0.23142904463E+03  0.16684285528E+03 0.  0.
         24    2    3    3    0    0 -0.16795302612E+02 -0.10684924973E+03  0.75699222188E+02  0.15429144517E+03  0.79853825552E+02 0.  0.
         -6    2    1    2    0  503 -0.40184436045E+02  0.91777319115E+02  0.19718430811E+03  0.28065499648E+03  0.17276489944E+03 0.  0.
        -24    2    5    5    0    0 -0.70796965944E+02  0.46562819863E+02  0.56009900416E+02  0.12921596149E+03  0.79870828090E+02 0.  0.
          5    1    3    3  501    0  0.56979738657E+02  0.15071930615E+02  0.49540544417E+02  0.77137599464E+02  0.47000000000E+01 0. -1.
        -13    1    4    4    0    0  0.84605633222E+01  0.11023397492E+02  0.80199654315E+01  0.16044197378E+02  0.00000000000E+00 0.  1.
         14    1    4    4    0    0 -0.25255865934E+02 -0.11787264722E+03  0.67679256757E+02  0.13824724779E+03  0.00000000000E+00 0. -1.
         -5    1    5    5    0  503  0.30612529899E+02  0.45214499252E+02  0.14117440769E+03  0.15143903499E+03  0.47000000000E+01 0.  1.
         13    1    6    6    0    0 -0.74809746336E+02  0.53586321007E+02  0.22484891201E+02  0.94728888298E+02  0.00000000000E+00 0. -1.
        -14    1    6    6    0    0  0.40127803918E+01 -0.70235011436E+01  0.33525009214E+02  0.34487073196E+02  0.00000000000E+00 0.  1.
</event>
<event>
12    1  0.9028446E-003  0.1865830E+03  0.7818608E-02  0.1161646E+00
         21   -1    0    0  503  502  0.00000000000E+00  0.00000000000E+00  0.15776476877E+03  0.15776476877E+03  0.00000000000E+00 0.  1.
         21   -1    0    0  501  503 -0.00000000000E+00 -0.00000000000E+00 -0.51301315017E+03  0.51301315017E+03  0.00000000000E+00 0.  1.
          6    2    1    2  501    0  0.59194331547E+02 -0.38417898311E+02 -0.43089488862E+03  0.46944334538E+03  0.17241445902E+03 0.  0.
         24    2    3    3    0    0  0.33893896241E+02 -0.43401535115E+02 -0.43249899036E+03  0.44318288451E+03  0.79518570185E+02 0.  0.
         -6    2    1    2    0  502 -0.59194331547E+02  0.38417898311E+02  0.75646507220E+02  0.20133457357E+03  0.17272322560E+03 0.  0.
        -24    2    5    5    0    0  0.24362954118E+02  0.54327866114E+02  0.26220660962E+02  0.10284624258E+03  0.79653976555E+02 0.  0.
          5    1    3    3  501    0  0.25300435305E+02  0.49836368048E+01  0.16041017433E+01  0.26260460865E+02  0.47000000000E+01 0. -1.
        -11    1    4    4    0    0 -0.11465613690E+02 -0.48856290708E+02 -0.25557960444E+03  0.26045984651E+03  0.00000000000E+00 0.  1.
         12    1    4    4    0    0  0.45359509932E+02  0.54547555930E+01 -0.17691938592E+03  0.18272303800E+03  0.00000000000E+00 0. -1.
         -5    1    5    5    0  502 -0.83557285665E+02 -0.15909967803E+02  0.49425846258E+02  0.98488330992E+02  0.47000000000E+01 0.  1.
         11    1    6    6    0    0 -0.44952967013E+01  0.28077356082E+02 -0.25410218008E+02  0.38134299472E+02  0.00000000000E+00 0. -1.
        -12    1    6    6    0    0  0.28858250820E+02  0.26250510032E+02  0.51630878970E+02  0.64711943106E+02  0.00000000000E+00 0.  1.
</event>
<event>
12    1  0.9028446E-003  0.2256071E+03  0.7818608E-02  0.1129789E+00
         21   -1    0    0  501  502  0.00000000000E+00  0.00000000000E+00  0.14932627044E+03  0.14932627044E+03  0.00000000000E+00 0.  1.
         21   -1    0    0  502  503 -0.00000000000E+00 -0.00000000000E+00 -0.37947360064E+03  0.37947360064E+03  0.00000000000E+00 0. -1.
          6    2    1    2  501    0  0.36717381161E+02 -0.14180905852E+03 -0.30581277589E+02  0.22767029262E+03  0.17158255285E+03 0.  0.
         24    2    3    3    0    0  0.74900161595E+02 -0.46478601940E+02 -0.37542332531E+02  0.12463453688E+03  0.79712272624E+02 0.  0.
         -6    2    1    2    0  503 -0.36717381161E+02  0.14180905852E+03 -0.19956605261E+03  0.30112957846E+03  0.17144806359E+03 0.  0.
        -24    2    5    5    0    0  0.28340983973E+01  0.50493201270E+02 -0.17493422251E+03  0.19850539819E+03  0.79024144527E+02 0.  0.
          5    1    3    3  501    0 -0.38182780434E+02 -0.95330456583E+02  0.69610549425E+01  0.10303575574E+03  0.47000000000E+01 0. -1.
        -13    1    4    4    0    0  0.23902000383E+02  0.21556148261E+02 -0.13194777353E+01  0.32213571234E+02  0.00000000000E+00 0.  1.
         14    1    4    4    0    0  0.50998161212E+02 -0.68034750201E+02 -0.36222854796E+02  0.92420965649E+02  0.00000000000E+00 0. -1.
         -5    1    5    5    0  503 -0.39551479559E+02  0.91315857253E+02 -0.24631830097E+02  0.10262418026E+03  0.47000000000E+01 0.  1.
         13    1    6    6    0    0 -0.20253693713E+02 -0.10567850502E+02 -0.80681570233E+02  0.83853487396E+02  0.00000000000E+00 0. -1.
        -14    1    6    6    0    0  0.23087792111E+02  0.61061051772E+02 -0.94252652280E+02  0.11465191080E+03  0.00000000000E+00 0.  1.
</event>
<event>
12    1  0.9028446E-003  0.1899397E+03  0.7818608E-02  0.1159259E+00
         21   -1    0    0  503  502  0.00000000000E+00  0.00000000000E+00  0.77065006633E+02  0.77065006633E+02  0.00000000000E+00 0.  1.
         21   -1    0    0  501  503 -0.00000000000E+00 -0.00000000000E+00 -0.52367214417E+03  0.52367214417E+03  0.00000000000E+00 0.  1.
          6    2    1    2  501    0 -0.65542003701E+02  0.43791596492E+02 -0.12037421495E+03  0.22487117026E+03  0.17281097597E+03 0.  0.
         24    2    3    3    0    0 -0.71708723211E+02  0.68305826938E+02 -0.13999298646E+03  0.19252983262E+03  0.87532126749E+02 0.  0.
         -6    2    1    2    0  502  0.65542003701E+02 -0.43791596492E+02 -0.32623292259E+03  0.37586598054E+03  0.16921541708E+03 0.  0.
        -24    2    5    5    0    0  0.10472828141E+03 -0.18488171750E+02 -0.28075201125E+03  0.31054805834E+03  0.79426565441E+02 0.  0.
          5    1    3    3  501    0  0.61667195094E+01 -0.24514230446E+02  0.19618771518E+02  0.32341337631E+02  0.47000000000E+01 0. -1.
        -13    1    4    4    0    0 -0.51492771518E+02  0.22857025344E+01 -0.10060245261E+03  0.11303797338E+03  0.00000000000E+00 0.  1.
         14    1    4    4    0    0 -0.20215951693E+02  0.66020124403E+02 -0.39390533857E+02  0.79491859247E+02  0.00000000000E+00 0. -1.
         -5    1    5    5    0  502 -0.39186277711E+02 -0.25303424742E+02 -0.45480911340E+02  0.65317922203E+02  0.47000000000E+01 0.  1.
         11    1    6    6    0    0  0.29139408964E+02 -0.12140658296E+02 -0.18845052881E+03  0.19107616949E+03  0.00000000000E+00 0. -1.
        -12    1    6    6    0    0  0.75588872449E+02 -0.63475134538E+01 -0.92301482435E+02  0.11947188885E+03  0.00000000000E+00 0.  1.
</event>
<event>
12    1  0.9028446E-003  0.3131742E+03  0.7818608E-02  0.1079006E+00
         21   -1    0    0  501  502  0.00000000000E+00  0.00000000000E+00  0.16233823814E+04  0.16233823814E+04  0.00000000000E+00 0.  1.
         21   -1    0    0  502  503 -0.00000000000E+00 -0.00000000000E+00 -0.60726264662E+02  0.60726264662E+02  0.00000000000E+00 0.  1.
          6    2    1    2  501    0  0.77226749227E+02  0.24899334574E+03  0.70019429705E+03  0.76703985711E+03  0.17354086480E+03 0.  0.
         24    2    3    3    0    0  0.96434031315E+02  0.13362739324E+03  0.31298374362E+03  0.36252493109E+03  0.79433615524E+02 0.  0.
         -6    2    1    2    0  503 -0.77226749227E+02 -0.24899334574E+03  0.86246181966E+03  0.91706878893E+03  0.17091844906E+03 0.  0.
        -24    2    5    5    0    0 -0.47689739276E+02 -0.70676122311E+02  0.21944568539E+03  0.24911571717E+03  0.81442042031E+02 0.  0.
          5    1    3    3  501    0 -0.19207282089E+02  0.11536595250E+03  0.38721055343E+03  0.40451492602E+03  0.47000000000E+01 0. -1.
        -13    1    4    4    0    0  0.45560374415E+02  0.12176512823E+03  0.23698538880E+03  0.27030458500E+03  0.00000000000E+00 0.  1.
         14    1    4    4    0    0  0.50873656900E+02  0.11862265008E+02  0.75998354820E+02  0.92220346090E+02  0.00000000000E+00 0. -1.
         -5    1    5    5    0  503 -0.29537009951E+02 -0.17831722343E+03  0.64301613427E+03  0.66795307175E+03  0.47000000000E+01 0.  1.
         11    1    6    6    0    0  0.22565706969E+02 -0.26304085066E+02  0.70548139005E+02  0.78601246423E+02  0.00000000000E+00 0. -1.
        -12    1    6    6    0    0 -0.70255446245E+02 -0.44372037245E+02  0.14889754638E+03  0.17051447075E+03  0.00000000000E+00 0.  1.
</event>
<event>
12    1  0.9028446E-003  0.1919743E+03  0.7818608E-02  0.1156741E+00
         21   -1    0    0  503  502  0.00000000000E+00  0.00000000000E+00  0.69400580599E+02  0.69400580599E+02  0.00000000000E+00 0. -1.
         21   -1    0    0  501  503 -0.00000000000E+00 -0.00000000000E+00 -0.60413698975E+03  0.60413698975E+03  0.00000000000E+00 0. -1.
          6    2    1    2  501    0 -0.49186207153E+02  0.70726974252E+02 -0.14987290711E+03  0.24354881778E+03  0.17155917491E+03 0.  0.
         24    2    3    3    0    0  0.29833085538E+02  0.22279688288E+02 -0.10885431767E+03  0.14208058229E+03  0.83374048027E+02 0.  0.
         -6    2    1    2    0  502  0.49186207153E+02 -0.70726974252E+02 -0.38486350204E+03  0.42998875257E+03  0.17131498554E+03 0.  0.
        -24    2    5    5    0    0 -0.24884575210E+02  0.11061451306E+02 -0.18888309551E+03  0.20503045177E+03  0.74960420185E+02 0.  0.
          5    1    3    3  501    0 -0.79019292692E+02  0.48447285964E+02 -0.41018589440E+02  0.10146823549E+03  0.47000000000E+01 0. -1.
        -13    1    4    4    0    0  0.37005074239E+02 -0.89756362019E+01 -0.11798082307E+02  0.39863922421E+02  0.00000000000E+00 0.  1.
         14    1    4    4    0    0 -0.71719887006E+01  0.31255324490E+02 -0.97056235368E+02  0.10221665987E+03  0.00000000000E+00 0. -1.
         -5    1    5    5    0  502  0.74070782364E+02 -0.81788425558E+02 -0.19598040653E+03  0.22495830080E+03  0.47000000000E+01 0.  1.
         11    1    6    6    0    0  0.14348663911E+02 -0.16998113339E+02 -0.11260530152E+03  0.11478141811E+03  0.00000000000E+00 0. -1.
        -12    1    6    6    0    0 -0.39233239121E+02  0.28059564645E+02 -0.76277793986E+02  0.90249033653E+02  0.00000000000E+00 0.  1.
</event>
<event>
12    1  0.9028446E-003  0.1822385E+03  0.7818608E-02  0.1165939E+00
         21   -1    0    0  501  502  0.00000000000E+00  0.00000000000E+00  0.14252994821E+04  0.14252994821E+04  0.00000000000E+00 0. -1.
         21   -1    0    0  502  503 -0.00000000000E+00 -0.00000000000E+00 -0.34379884974E+02  0.34379884974E+02  0.00000000000E+00 0. -1.
          6    2    1    2  501    0 -0.44664402902E+02 -0.39292574231E+02  0.11110678820E+04  0.11257214911E+04  0.17099187624E+03 0.  0.
         24    2    3    3    0    0 -0.50767250989E+02 -0.39976478129E+02  0.35128518006E+03  0.36589943514E+03  0.79408351797E+02 0.  0.
         -6    2    1    2    0  503  0.44664402902E+02  0.39292574231E+02  0.27985171514E+03  0.33395787603E+03  0.17225581331E+03 0.  0.
        -24    2    5    5    0    0  0.79936642618E+02  0.30144235940E+02  0.27229401714E+03  0.29644745365E+03  0.80240383932E+02 0.  0.
          5    1    3    3  501    0  0.61028480874E+01  0.68390389848E+00  0.75978270195E+03  0.75982205592E+03  0.47000000000E+01 0. -1.
        -11    1    4    4    0    0 -0.45376217614E+02  0.28613985738E+01  0.87533635581E+02  0.98637346298E+02  0.00000000000E+00 0.  1.
         12    1    4    4    0    0 -0.53910333752E+01 -0.42837876703E+02  0.26375154447E+03  0.26726208885E+03  0.00000000000E+00 0. -1.
         -5    1    5    5    0  503 -0.35272239716E+02  0.91483382907E+01  0.75576980029E+01  0.37510422380E+02  0.47000000000E+01 0.  1.
         11    1    6    6    0    0  0.70299954505E+02  0.32810777363E+02  0.11432526159E+03  0.13816257146E+03  0.00000000000E+00 0. -1.
        -12    1    6    6    0    0  0.96366881122E+01 -0.26665414226E+01  0.15796875555E+03  0.15828488219E+03  0.00000000000E+00 0.  1.
</event>
<event>
12    1  0.9028446E-003  0.3143284E+03  0.7818608E-02  0.1078391E+00
         21   -1    0    0  501  502  0.00000000000E+00  0.00000000000E+00  0.25401953645E+03  0.25401953645E+03  0.00000000000E+00 0.  1.
         21   -1    0    0  502  503 -0.00000000000E+00 -0.00000000000E+00 -0.38799330390E+03  0.38799330390E+03  0.00000000000E+00 0. -1.
          6    2    1    2  501    0  0.20636476451E+03 -0.16334871214E+03 -0.61934147309E+02  0.32037195219E+03  0.17185206242E+03 0.  0.
         24    2    3    3    0    0  0.16086829756E+03 -0.14450269754E+03 -0.10633527879E+03  0.25389901598E+03  0.79986749174E+02 0.  0.
         -6    2    1    2    0  503 -0.20636476451E+03  0.16334871214E+03 -0.72039620133E+02  0.32164088816E+03  0.17027605904E+03 0.  0.
        -24    2    5    5    0    0 -0.20263838436E+03  0.86365881245E+02 -0.69498155972E+02  0.24438293581E+03  0.79822586849E+02 0.  0.
          5    1    3    3  501    0  0.45496466946E+02 -0.18846014604E+02  0.44401131485E+02  0.66472936208E+02  0.47000000000E+01 0. -1.
        -13    1    4    4    0    0  0.10331764893E+03 -0.74635763023E+02 -0.20385754904E+02  0.12907599586E+03  0.00000000000E+00 0.  1.
         14    1    4    4    0    0  0.57550648626E+02 -0.69866934516E+02 -0.85949523890E+02  0.12482302012E+03  0.00000000000E+00 0. -1.
         -5    1    5    5    0  503 -0.37263801461E+01  0.76982830897E+02 -0.25414641604E+01  0.77257952354E+02  0.47000000000E+01 0.  1.
         13    1    6    6    0    0 -0.12132003171E+03  0.22926602498E+02 -0.68594088852E+02  0.14124209083E+03  0.00000000000E+00 0. -1.
        -14    1    6    6    0    0 -0.81318352647E+02  0.63439278747E+02 -0.90406712044E+00  0.10314084498E+03  0.00000000000E+00 0.  1.
</event>
<event>
12    1  0.9028446E-003  0.1973634E+03  0.7818608E-02  0.1152018E+00
         21   -1    0    0  503  502  0.00000000000E+00  0.00000000000E+00  0.10336609441E+04  0.10336609441E+04  0.00000000000E+00 0. -1.
         21   -1    0    0  501  503 -0.00000000000E+00 -0.00000000000E+00 -0.38022254937E+02  0.38022254937E+02  0.00000000000E+00 0. -1.
          6    2    1    2  501    0  0.95927511722E+02 -0.88628779476E+01  0.44480003147E+03  0.48655454485E+03  0.17206864623E+03 0.  0.
         24    2    3    3    0    0  0.27891180156E+02  0.19430687554E+02  0.37504649797E+03  0.38498135106E+03  0.79970591323E+02 0.  0.
         -6    2    1    2    0  502 -0.95927511722E+02  0.88628779476E+01  0.55083865767E+03  0.58512865416E+03  0.17225468650E+03 0.  0.
        -24    2    5    5    0    0 -0.14179923996E+02  0.33545793459E+02  0.41603238871E+03  0.42548300101E+03  0.81402980239E+02 0.  0.
          5    1    3    3  501    0  0.68036331567E+02 -0.28293565501E+02  0.69753533497E+02  0.10157319379E+03  0.47000000000E+01 0. -1.
        -13    1    4    4    0    0  0.99492416302E+01 -0.19674897766E+02  0.27741692782E+03  0.27829164711E+03  0.00000000000E+00 0.  1.
         14    1    4    4    0    0  0.17941938525E+02  0.39105585320E+02  0.97629570149E+02  0.10668970395E+03  0.00000000000E+00 0. -1.
         -5    1    5    5    0  502 -0.81747587726E+02 -0.24682915511E+02  0.13480626896E+03  0.15964565315E+03  0.47000000000E+01 0.  1.
         11    1    6    6    0    0 -0.31169811022E+02 -0.83279174030E+01  0.28616702842E+03  0.28797999840E+03  0.00000000000E+00 0. -1.
        -12    1    6    6    0    0  0.16989887026E+02  0.41873710862E+02  0.12986536029E+03  0.13750300260E+03  0.00000000000E+00 0.  1.
</event>
<event>
12    1  0.9028446E-003  0.1934015E+03  0.7818608E-02  0.1155568E+00
         21   -1    0    0  501  502  0.00000000000E+00  0.00000000000E+00  0.96428762933E+02  0.96428762933E+02  0.00000000000E+00 0.  1.
         21   -1    0    0  502  503 -0.00000000000E+00 -0.00000000000E+00 -0.44429702437E+03  0.44429702437E+03  0.00000000000E+00 0.  1.
          6    2    1    2  501    0  0.83676848323E+02  0.26520181820E+02 -0.76775455602E+02  0.20808316667E+03  0.17233397424E+03 0.  0.
         24    2    3    3    0    0 -0.23368426049E+02  0.12529555761E+02 -0.45818852702E+02  0.95678408557E+02  0.79698917794E+02 0.  0.
         -6    2    1    2    0  503 -0.83676848323E+02 -0.26520181820E+02 -0.27109280584E+03  0.33264262064E+03  0.17162362512E+03 0.  0.
        -24    2    5    5    0    0 -0.10356582305E+03  0.18787055501E+02 -0.14563408997E+03  0.19769708919E+03  0.82437963080E+02 0.  0.
          5    1    3    3  501    0  0.10704527437E+03  0.13990626059E+02 -0.30956602900E+02  0.11240475811E+03  0.47000000000E+01 0. -1.
        -13    1    4    4    0    0 -0.30844668988E+02  0.35681514488E+02 -0.52374431527E+02  0.70481523529E+02  0.00000000000E+00 0.  1.
         14    1    4    4    0    0  0.74762429388E+01 -0.23151958727E+02  0.65555788248E+01  0.25196885028E+02  0.00000000000E+00 0. -1.
         -5    1    5    5    0  503  0.19888974722E+02 -0.45307237321E+02 -0.12545871587E+03  0.13494553145E+03  0.47000000000E+01 0.  1.
         11    1    6    6    0    0 -0.87499891122E+01 -0.75461837836E+01  0.88357771186E+01  0.14545726398E+02  0.00000000000E+00 0. -1.
        -12    1    6    6    0    0 -0.94815833933E+02  0.26333239285E+02 -0.15446986708E+03  0.18315136279E+03  0.00000000000E+00 0.  1.
</event>
<event>
12    1  0.9028446E-003  0.1864189E+03  0.7818608E-02  0.1162363E+00
         21   -1    0    0  503  502  0.00000000000E+00  0.00000000000E+00  0.12637435452E+03  0.12637435452E+03  0.00000000000E+00 0.  1.
         21   -1    0    0  501  503 -0.00000000000E+00 -0.00000000000E+00 -0.29865574212E+03  0.29865574212E+03  0.00000000000E+00 0.  1.
          6    2    1    2  501    0 -0.50576316258E+02  0.35811458739E+02 -0.15022844617E+03  0.23731133419E+03  0.17293830968E+03 0.  0.
         24    2    3    3    0    0 -0.35236321416E+02 -0.44761666253E+02 -0.99888017722E+02  0.14095993229E+03  0.81528408017E+02 0.  0.
         -6    2    1    2    0  502  0.50576316258E+02 -0.35811458739E+02 -0.22052941434E+02  0.18771876244E+03  0.17581688543E+03 0.  0.
        -24    2    5    5    0    0  0.96721281204E+02 -0.33438256600E+02 -0.41898231751E+02  0.13721217449E+03  0.81231741108E+02 0.  0.
          5    1    3    3  501    0 -0.15339994842E+02  0.80573124992E+02 -0.50340428444E+02  0.96351401903E+02  0.47000000000E+01 0. -1.
        -13    1    4    4    0    0 -0.17726760369E+02  0.21928705171E+02 -0.43732959267E+02  0.52035352117E+02  0.00000000000E+00 0.  1.
         14    1    4    4    0    0 -0.17509561047E+02 -0.66690371424E+02 -0.56155058455E+02  0.88924580172E+02  0.00000000000E+00 0. -1.
         -5    1    5    5    0  502 -0.46144964946E+02 -0.23732021399E+01  0.19845290317E+02  0.50506587947E+02  0.47000000000E+01 0.  1.
         13    1    6    6    0    0  0.11408442868E+02 -0.25904316063E+02 -0.43094558654E+02  0.51558967649E+02  0.00000000000E+00 0. -1.
        -14    1    6    6    0    0  0.85312838335E+02 -0.75339405366E+01  0.11963269035E+01  0.85653206845E+02  0.00000000000E+00 0.  1.
</event>
<event>
12    1  0.9028446E-003  0.1901195E+03  0.7818608E-02  0.1158396E+00
         21   -1    0    0  503  502  0.00000000000E+00  0.00000000000E+00  0.66074314888E+03  0.66074314888E+03  0.00000000000E+00 0.  1.
         21   -1    0    0  501  503 -0.00000000000E+00 -0.00000000000E+00 -0.72327248946E+02  0.72327248946E+02  0.00000000000E+00 0.  1.
          6    2    1    2  501    0 -0.67348893305E+02  0.44113943053E+02  0.11311114582E+03  0.22122286636E+03  0.17223098411E+03 0.  0.
         24    2    3    3    0    0 -0.58937349781E+02  0.30185035586E+02 -0.62662408537E+01  0.10064998807E+03  0.75540762191E+02 0.  0.
         -6    2    1    2    0  502  0.67348893305E+02 -0.44113943053E+02  0.47530475411E+03  0.51184753146E+03  0.17202143119E+03 0.  0.
        -24    2    5    5    0    0  0.35970448500E+02  0.22649762525E+02  0.12895199440E+03  0.15769456545E+03  0.80200213246E+02 0.  0.
          5    1    3    3  501    0 -0.84115435240E+01  0.13928907467E+02  0.11937738668E+03  0.12057287828E+03  0.47000000000E+01 0. -1.
        -13    1    4    4    0    0 -0.25608754946E+02  0.17000953007E+02  0.34607605882E+02  0.46287440175E+02  0.00000000000E+00 0.  1.
         14    1    4    4    0    0 -0.33328594835E+02  0.13184082579E+02 -0.40873846736E+02  0.54362547899E+02  0.00000000000E+00 0. -1.
         -5    1    5    5    0  502  0.31378444805E+02 -0.66763705578E+02  0.34635275971E+03  0.35415296602E+03  0.47000000000E+01 0.  1.
         13    1    6    6    0    0  0.51757394802E+02 -0.81049417312E+01  0.98767789058E+02  0.11180158386E+03  0.00000000000E+00 0. -1.
        -14    1    6    6    0    0 -0.15786946302E+02  0.30754704256E+02  0.30184205340E+02  0.45892981592E+02  0.00000000000E+00 0.  1.
</event>
<event>
12    1  0.9028446E-003  0.1805999E+03  0.7818608E-02  0.1167808E+00
         21   -1    0    0  503  502  0.00000000000E+00  0.00000000000E+00  0.85005821292E+03  0.85005821292E+03  0.00000000000E+00 0.  1.
         21   -1    0    0  501  503 -0.00000000000E+00 -0.00000000000E+00 -0.51212257881E+02  0.51212257881E+02  0.00000000000E+00 0.  1.
          6    2    1    2  501    0  0.81581962600E+01 -0.51052730367E+02  0.17130479539E+03  0.24892097207E+03  0.17304155561E+03 0.  0.
         24    2    3    3    0    0 -0.49572900596E+02  0.46728892410E+01  0.12053448124E+03  0.15385289633E+03  0.81626246855E+02 0.  0.
         -6    2    1    2    0  502 -0.81581962600E+01  0.51052730367E+02  0.62754115965E+03  0.65234949873E+03  0.17052572826E+03 0.  0.
        -24    2    5    5    0    0 -0.45180999805E+02  0.11071287619E+02  0.19115537234E+03  0.21254971575E+03  0.80455634595E+02 0.  0.
          5    1    3    3  501    0  0.57731096856E+02 -0.55725619608E+02  0.50770314152E+02  0.95068075735E+02  0.47000000000E+01 0. -1.
        -13    1    4    4    0    0  0.18265450281E+02 -0.16307582293E+02  0.27614089183E+02  0.36906663838E+02  0.00000000000E+00 0.  1.
         14    1    4    4    0    0 -0.67838350876E+02  0.20980471534E+02  0.92920392056E+02  0.11694623250E+03  0.00000000000E+00 0. -1.
         -5    1    5    5    0  502  0.37022803544E+02  0.39981442748E+02  0.43638578731E+03  0.43979978298E+03  0.47000000000E+01 0.  1.
         13    1    6    6    0    0  0.20974451594E+02 -0.42441136172E+01  0.24150945785E+02  0.32267759487E+02  0.00000000000E+00 0. -1.
        -14    1    6    6    0    0 -0.66155451398E+02  0.15315401236E+02  0.16700442656E+03  0.18028195626E+03  0.00000000000E+00 0.  1.
</event>
<event>
12    1  0.9028446E-003  0.2514894E+03  0.7818608E-02  0.1112457E+00
         21   -1    0    0  501  502  0.00000000000E+00  0.00000000000E+00  0.91858605009E+03  0.91858605009E+03  0.00000000000E+00 0.  1.
         21   -1    0    0  502  503 -0.00000000000E+00 -0.00000000000E+00 -0.70113040367E+02  0.70113040367E+02  0.00000000000E+00 0.  1.
          6    2    1    2  501    0 -0.12330938540E+03  0.13490946312E+03  0.49404931132E+03  0.55411529960E+03  0.17191066130E+03 0.  0.
         24    2    3    3    0    0 -0.15908799466E+03  0.84719200858E+02  0.37542183526E+03  0.42034781707E+03  0.57134927027E+02 0.  0.
         -6    2    1    2    0  503  0.12330938540E+03 -0.13490946312E+03  0.35442369841E+03  0.43458379086E+03  0.17274589870E+03 0.  0.
        -24    2    5    5    0    0  0.31417427576E+02 -0.12178306153E+03  0.27455520181E+03  0.31203787669E+03  0.78542401370E+02 0.  0.
          5    1    3    3  501    0  0.35778609257E+02  0.50190262265E+02  0.11862747605E+03  0.13376748253E+03  0.47000000000E+01 0. -1.
        -13    1    4    4    0    0 -0.92481657267E+02  0.40399576375E+02  0.26826156925E+03  0.28661690850E+03  0.00000000000E+00 0.  1.
         14    1    4    4    0    0 -0.66606337393E+02  0.44319624483E+02  0.10716026601E+03  0.13373090857E+03  0.00000000000E+00 0. -1.
         -5    1    5    5    0  503  0.91891957827E+02 -0.13126401589E+02  0.79868496592E+02  0.12254591417E+03  0.47000000000E+01 0.  1.
         13    1    6    6    0    0 -0.19870197787E+02 -0.60559975204E+01  0.52120854763E+02  0.56107783482E+02  0.00000000000E+00 0. -1.
        -14    1    6    6    0    0  0.51287625363E+02 -0.11572706401E+03  0.22243434705E+03  0.25593009321E+03  0.00000000000E+00 0.  1.
</event>
<event>
12    1  0.9028446E-003  0.2349495E+03  0.7818608E-02  0.1123382E+00
         21   -1    0    0  503  502  0.00000000000E+00  0.00000000000E+00  0.82506445722E+02  0.82506445722E+02  0.00000000000E+00 0. -1.
         21   -1    0    0  501  503 -0.00000000000E+00 -0.00000000000E+00 -0.74673025746E+03  0.74673025746E+03  0.00000000000E+00 0. -1.
          6    2    1    2  501    0  0.13134954762E+03  0.90536497784E+02 -0.46770345074E+03  0.52293374659E+03  0.17106614042E+03 0.  0.
         24    2    3    3    0    0  0.35065283565E+02  0.15501269742E+02 -0.31596453138E+03  0.32813196375E+03  0.79794342314E+02 0.  0.
         -6    2    1    2    0  502 -0.13134954762E+03 -0.90536497784E+02 -0.19652036099E+03  0.30630295659E+03  0.17248677584E+03 0.  0.
        -24    2    5    5    0    0 -0.14986103125E+03 -0.11298896433E+03 -0.16241854849E+03  0.26122733240E+03  0.81456120390E+02 0.  0.
          5    1    3    3  501    0  0.96284264051E+02  0.75035228042E+02 -0.15173891936E+03  0.19480178285E+03  0.47000000000E+01 0. -1.
        -13    1    4    4    0    0  0.45205573289E+02 -0.21559160798E+02 -0.18231450385E+03  0.18906855790E+03  0.00000000000E+00 0.  1.
         14    1    4    4    0    0 -0.10140289724E+02  0.37060430539E+02 -0.13365002753E+03  0.13906340585E+03  0.00000000000E+00 0. -1.
         -5    1    5    5    0  502  0.18511483632E+02  0.22452466548E+02 -0.34101812501E+02  0.45075624191E+02  0.47000000000E+01 0.  1.
         11    1    6    6    0    0 -0.25699939623E+02 -0.10364205604E+02 -0.70529614508E+02  0.75778164250E+02  0.00000000000E+00 0. -1.
        -12    1    6    6    0    0 -0.12416109162E+03 -0.10262475873E+03 -0.91888933983E+02  0.18544916815E+03  0.00000000000E+00 0.  1.
</event>
<event>
12    1  0.9028446E-003  0.1740636E+03  0.7818608E-02  0.1174120E+00
         21   -1    0    0  501  502  0.00000000000E+00  0.00000000000E+00  0.48596626859E+03  0.48596626859E+03  0.00000000000E+00 0. -1.
         21   -1    0    0  502  503 -0.00000000000E+00 -0.00000000000E+00 -0.94702963085E+02  0.94702963085E+02  0.00000000000E+00 0. -1.
          6    2    1    2  501    0 -0.11187234025E+02 -0.26132801617E+00  0.36632464445E+03  0.40482820587E+03  0.17195030863E+03 0.  0.
         24    2    3    3    0    0 -0.58298528843E+02  0.34465038893E+02  0.28458910564E+03  0.30418933185E+03  0.83388447604E+02 0.  0.
         -6    2    1    2    0  503  0.11187234025E+02  0.26132801617E+00  0.24938661054E+02  0.17584102581E+03  0.17370350326E+03 0.  0.
        -24    2    5    5    0    0 -0.76277295856E+01 -0.16580837874E+02  0.80689615944E+02  0.11445763735E+03  0.79098863346E+02 0.  0.
          5    1    3    3  501    0  0.47111294818E+02 -0.34726366909E+02  0.81735538810E+02  0.10063887401E+03  0.47000000000E+01 0. -1.
        -11    1    4    4    0    0 -0.58325865064E+02 -0.12221541696E+02  0.13720969436E+03  0.14959202132E+03  0.00000000000E+00 0.  1.
         12    1    4    4    0    0  0.27336221689E-01  0.46686580589E+02  0.14737941128E+03  0.15459731053E+03  0.00000000000E+00 0. -1.
         -5    1    5    5    0  503  0.18814963610E+02  0.16842165891E+02 -0.55750954890E+02  0.61383388459E+02  0.47000000000E+01 0.  1.
         13    1    6    6    0    0  0.32469947897E+02  0.85146819685E+01  0.28651060884E+02  0.44132534657E+02  0.00000000000E+00 0. -1.
        -14    1    6    6    0    0 -0.40097677483E+02 -0.25095519843E+02  0.52038555059E+02  0.70325102690E+02  0.00000000000E+00 0.  1.
</event>
<event>
12    1  0.9028446E-003  0.2008960E+03  0.7818608E-02  0.1149242E+00
         21   -1    0    0  503  502  0.00000000000E+00  0.00000000000E+00  0.33090591368E+03  0.33090591368E+03  0.00000000000E+00 0.  1.
         21   -1    0    0  501  503 -0.00000000000E+00 -0.00000000000E+00 -0.13166386321E+03  0.13166386321E+03  0.00000000000E+00 0. -1.
          6    2    1    2  501    0  0.15077478080E+02  0.10405536333E+03  0.16501624121E+03  0.25997993552E+03  0.17118515715E+03 0.  0.
         24    2    3    3    0    0 -0.13397644426E+02  0.13375851173E+02  0.18686906319E+02  0.85429167041E+02  0.81182090653E+02 0.  0.
         -6    2    1    2    0  502 -0.15077478080E+02 -0.10405536333E+03  0.34225809257E+02  0.20258984137E+03  0.16975390665E+03 0.  0.
        -24    2    5    5    0    0 -0.34694831862E+02 -0.20716455494E+02  0.61995849826E+02  0.11245949530E+03  0.84680279886E+02 0.  0.
          5    1    3    3  501    0  0.28475122507E+02  0.90679512160E+02  0.14632933489E+03  0.17455076848E+03  0.47000000000E+01 0. -1.
        -13    1    4    4    0    0  0.19506127077E+02  0.29197977217E+02  0.31059300052E+02  0.46879536973E+02  0.00000000000E+00 0.  1.
         14    1    4    4    0    0 -0.32903771504E+02 -0.15822126044E+02 -0.12372393733E+02  0.38549630068E+02  0.00000000000E+00 0. -1.
         -5    1    5    5    0  502  0.19617353782E+02 -0.83338907838E+02 -0.27770040569E+02  0.90130346068E+02  0.47000000000E+01 0.  1.
         11    1    6    6    0    0 -0.17215872436E+02  0.16384739127E+02 -0.12920709353E+02  0.27051629714E+02  0.00000000000E+00 0. -1.
        -12    1    6    6    0    0 -0.17478959426E+02 -0.37101194621E+02  0.74916559179E+02  0.85407865587E+02  0.00000000000E+00 0.  1.
</event>
<event>
12    1  0.9028446E-003  0.2116120E+03  0.7818608E-02  0.1140624E+00
         21   -1    0    0  501  502  0.00000000000E+00  0.00000000000E+00  0.37642463372E+03  0.37642463372E+03  0.00000000000E+00 0.  1.
         21   -1    0    0  502  503 -0.00000000000E+00 -0.00000000000E+00 -0.12175355062E+03  0.12175355062E+03  0.00000000000E+00 0.  1.
          6    2    1    2  501    0  0.90369267180E+02 -0.81529131269E+02  0.17141705200E+03  0.27232964421E+03  0.17310697763E+03 0.  0.
         24    2    3    3    0    0  0.66254182820E+01 -0.58753824220E+01  0.13013832865E+03  0.15206932264E+03  0.78170825877E+02 0.  0.
         -6    2    1    2    0  503 -0.90369267180E+02  0.81529131269E+02  0.83254031094E+02  0.22584854013E+03  0.17106351361E+03 0.  0.
        -24    2    5    5    0    0 -0.12005652448E+03  0.97592919605E+02  0.80165261529E+02  0.19162853080E+03  0.79731283906E+02 0.  0.
          5    1    3    3  501    0  0.83743848898E+02 -0.75653748847E+02  0.41278723349E+02  0.12026032157E+03  0.47000000000E+01 0. -1.
        -11    1    4    4    0    0 -0.99870970740E+01  0.17361934148E+02  0.12662130205E+01  0.20069433493E+02  0.00000000000E+00 0.  1.
         12    1    4    4    0    0  0.16612515356E+02 -0.23237316570E+02  0.12887211563E+03  0.13199988914E+03  0.00000000000E+00 0. -1.
         -5    1    5    5    0  503  0.29687257295E+02 -0.16063788336E+02  0.30887695650E+01  0.34220009334E+02  0.47000000000E+01 0.  1.
         13    1    6    6    0    0 -0.36813404659E+01  0.45804362479E+01 -0.14138754215E+02  0.15311336800E+02  0.00000000000E+00 0. -1.
        -14    1    6    6    0    0 -0.11637518401E+03  0.93012483357E+02  0.94304015744E+02  0.17631719400E+03  0.00000000000E+00 0.  1.
</event>
<event>
12    1  0.9028446E-003  0.2553239E+03  0.7818608E-02  0.1110099E+00
         21   -1    0    0  501  502  0.00000000000E+00  0.00000000000E+00  0.12111490821E+03  0.12111490821E+03  0.00000000000E+00 0. -1.
         21   -1    0    0  502  503 -0.00000000000E+00 -0.00000000000E+00 -0.57429909361E+03  0.57429909361E+03  0.00000000000E+00 0. -1.
          6    2    1    2  501    0  0.16538292820E+02 -0.18769893109E+03 -0.13793594398E+03  0.29020098181E+03  0.17229591215E+03 0.  0.
         24    2    3    3    0    0 -0.40723828049E+02 -0.90217974604E+02 -0.22731633704E+02  0.12872153894E+03  0.79087257533E+02 0.  0.
         -6    2    1    2    0  503 -0.16538292820E+02  0.18769893109E+03 -0.31524824142E+03  0.40521302001E+03  0.17120669966E+03 0.  0.
        -24    2    5    5    0    0  0.50743525201E+02  0.11162736438E+03 -0.13856961109E+03  0.20137201650E+03  0.79458027182E+02 0.  0.
          5    1    3    3  501    0  0.57262120869E+02 -0.97480956483E+02 -0.11520431028E+03  0.16147944287E+03  0.47000000000E+01 0. -1.
        -13    1    4    4    0    0 -0.30730455084E+02 -0.73093446292E+02 -0.50938768852E+02  0.94243147935E+02  0.00000000000E+00 0.  1.
         14    1    4    4    0    0 -0.99933729651E+01 -0.17124528312E+02  0.28207135148E+02  0.34478391007E+02  0.00000000000E+00 0. -1.
         -5    1    5    5    0  503 -0.67281818021E+02  0.76071566704E+02 -0.17667863033E+03  0.20384100351E+03  0.47000000000E+01 0.  1.
         13    1    6    6    0    0  0.24839179580E+02  0.12422090157E+02 -0.76810179851E+02  0.81676783083E+02  0.00000000000E+00 0. -1.
        -14    1    6    6    0    0  0.25904345621E+02  0.99205274226E+02 -0.61759431239E+02  0.11969523342E+03  0.00000000000E+00 0.  1.
</event>
<event>
12    1  0.9028446E-003  0.2128938E+03  0.7818608E-02  0.1139798E+00
         21   -1    0    0  503  502  0.00000000000E+00  0.00000000000E+00  0.13288526394E+03  0.13288526394E+03  0.00000000000E+00 0. -1.
         21   -1    0    0  501  503 -0.00000000000E+00 -0.00000000000E+00 -0.38587325604E+03  0.38587325604E+03  0.00000000000E+00 0. -1.
          6    2    1    2  501    0  0.10594631845E+03  0.67009994779E+02 -0.21950698227E+03  0.30578927077E+03  0.17207208101E+03 0.  0.
         24    2    3    3    0    0  0.93270734152E+02  0.67874935280E+00 -0.59224804842E+02  0.13179797514E+03  0.71855676124E+02 0.  0.
         -6    2    1    2    0  502 -0.10594631845E+03 -0.67009994779E+02 -0.33481009825E+02  0.21296924921E+03  0.16887854007E+03 0.  0.
        -24    2    5    5    0    0 -0.32561935243E+02 -0.59709678411E+01  0.36947531956E+02  0.94254043758E+02  0.80142202137E+02 0.  0.
          5    1    3    3  501    0  0.12675584296E+02  0.66331245426E+02 -0.16028217743E+03  0.17399129564E+03  0.47000000000E+01 0. -1.
        -13    1    4    4    0    0  0.73494782314E+02  0.32432505977E+02 -0.40608267352E+02  0.90013231520E+02  0.00000000000E+00 0.  1.
         14    1    4    4    0    0  0.19775951837E+02 -0.31753756624E+02 -0.18616537491E+02  0.41784743615E+02  0.00000000000E+00 0. -1.
         -5    1    5    5    0  502 -0.73384383204E+02 -0.61039026938E+02 -0.70428541782E+02  0.11871520545E+03  0.47000000000E+01 0.  1.
         13    1    6    6    0    0 -0.54469084114E+02  0.14412987141E+02  0.19542239977E+02  0.59636519565E+02  0.00000000000E+00 0. -1.
        -14    1    6    6    0    0  0.21907148871E+02 -0.20383954982E+02  0.17405291980E+02  0.34617524193E+02  0.00000000000E+00 0.  1.
</event>
<event>
12    1  0.9028446E-003  0.2070131E+03  0.7818608E-02  0.1144074E+00
         21   -1    0    0  501  502  0.00000000000E+00  0.00000000000E+00  0.97879467068E+03  0.97879467068E+03  0.00000000000E+00 0.  1.
         21   -1    0    0  502  503 -0.00000000000E+00 -0.00000000000E+00 -0.43731620605E+02  0.43731620605E+02  0.00000000000E+00 0.  1.
          6    2    1    2  501    0  0.11239032894E+03  0.24456051290E+02  0.48807523989E+03  0.52992854503E+03  0.17139760371E+03 0.  0.
         24    2    3    3    0    0  0.48274265943E+02  0.68619842840E+02  0.31932623512E+03  0.34402634862E+03  0.96673659938E+02 0.  0.
         -6    2    1    2    0  503 -0.11239032894E+03 -0.24456051290E+02  0.44698781019E+03  0.49259774626E+03  0.17211842632E+03 0.  0.
        -24    2    5    5    0    0 -0.11961576721E+03 -0.67621575006E+02  0.38866597493E+03  0.41952931352E+03  0.77865240368E+02 0.  0.
          5    1    3    3  501    0  0.64116062995E+02 -0.44163791550E+02  0.16874900477E+03  0.18590219641E+03  0.47000000000E+01 0. -1.
        -13    1    4    4    0    0  0.72813003628E+02  0.41863630865E+02  0.27012035288E+03  0.28287683207E+03  0.00000000000E+00 0.  1.
         14    1    4    4    0    0 -0.24538737685E+02  0.26756211975E+02  0.49205882241E+02  0.61149516544E+02  0.00000000000E+00 0. -1.
         -5    1    5    5    0  503  0.72254382740E+01  0.43165523716E+02  0.58321835253E+02  0.73068432741E+02  0.47000000000E+01 0.  1.
         11    1    6    6    0    0 -0.33234569860E+02 -0.61536446267E+02  0.14628063976E+03  0.16213974349E+03  0.00000000000E+00 0. -1.
        -12    1    6    6    0    0 -0.86381197352E+02 -0.60851287391E+01  0.24238533518E+03  0.25738957002E+03  0.00000000000E+00 0.  1.
</event>
<event>
12    1  0.9028446E-003  0.3392039E+03  0.7818608E-02  0.1067580E+00
         21   -1    0    0  503  502  0.00000000000E+00  0.00000000000E+00  0.77262059044E+03  0.77262059044E+03  0.00000000000E+00 0.  1.
         21   -1    0    0  501  503 -0.00000000000E+00 -0.00000000000E+00 -0.20941873159E+03  0.20941873159E+03  0.00000000000E+00 0. -1.
          6    2    1    2  501    0  0.29231355026E+03 -0.99383503250E+01  0.14985532601E+02  0.33953476605E+03  0.17179437913E+03 0.  0.
         24    2    3    3    0    0  0.93265862835E+02 -0.46597294066E+02  0.46300971888E+02  0.13467723809E+03  0.71584561725E+02 0.  0.
         -6    2    1    2    0  502 -0.29231355026E+03  0.99383503250E+01  0.54821632625E+03  0.64250455598E+03  0.16347777102E+03 0.  0.
        -24    2    5    5    0    0 -0.25140391912E+03  0.32528823615E+02  0.35330617993E+03  0.44201519831E+03  0.79310300980E+02 0.  0.
          5    1    3    3  501    0  0.19904768742E+03  0.36658943741E+02 -0.31315439287E+02  0.20485752796E+03  0.47000000000E+01 0. -1.
        -11    1    4    4    0    0  0.67578584834E+02 -0.27533255927E+02  0.64914760226E+02  0.97667145987E+02  0.00000000000E+00 0.  1.
         12    1    4    4    0    0  0.25687278001E+02 -0.19064038140E+02 -0.18613788337E+02  0.37010092104E+02  0.00000000000E+00 0. -1.
         -5    1    5    5    0  502 -0.40909631141E+02 -0.22590473290E+02  0.19491014632E+03  0.20048935768E+03  0.47000000000E+01 0.  1.
         11    1    6    6    0    0 -0.11454081512E+02  0.14805061715E+02  0.58873157974E+02  0.61777298140E+02  0.00000000000E+00 0. -1.
        -12    1    6    6    0    0 -0.23994983760E+03  0.17723761901E+02  0.29443302196E+03  0.38023790016E+03  0.00000000000E+00 0.  1.
</event>
<event>
12    1  0.9028446E-003  0.2410008E+03  0.7818608E-02  0.1119567E+00
         21   -1    0    0  503  502  0.00000000000E+00  0.00000000000E+00  0.59483085225E+03  0.59483085225E+03  0.00000000000E+00 0.  1.
         21   -1    0    0  501  503 -0.00000000000E+00 -0.00000000000E+00 -0.10439206894E+03  0.10439206894E+03  0.00000000000E+00 0. -1.
          6    2    1    2  501    0 -0.16417455815E+03  0.24136137937E+02  0.15082463406E+03  0.28430517542E+03  0.17477277773E+03 0.  0.
         24    2    3    3    0    0 -0.16054572945E+03  0.71552869046E+02  0.11104897477E+03  0.22213035850E+03  0.78200236952E+02 0.  0.
         -6    2    1    2    0  502  0.16417455815E+03 -0.24136137937E+02  0.33961414925E+03  0.41491774577E+03  0.17112313312E+03 0.  0.
        -24    2    5    5    0    0  0.71682905560E+02  0.40208698825E+02  0.10610581700E+03  0.15560481696E+03  0.78735228781E+02 0.  0.
          5    1    3    3  501    0 -0.36288286978E+01 -0.47416731108E+02  0.39775659290E+02  0.62174816917E+02  0.47000000000E+01 0. -1.
        -13    1    4    4    0    0 -0.25606008384E+02  0.83946707741E+01  0.58043250188E+02  0.63993414154E+02  0.00000000000E+00 0.  1.
         14    1    4    4    0    0 -0.13493972107E+03  0.63158198272E+02  0.53005724578E+02  0.15813694435E+03  0.00000000000E+00 0. -1.
         -5    1    5    5    0  502  0.92491652586E+02 -0.64344836762E+02  0.23350833225E+03  0.25931292881E+03  0.47000000000E+01 0.  1.
         13    1    6    6    0    0  0.14972283455E+02 -0.22104436146E+02  0.11936678253E+02  0.29244822737E+02  0.00000000000E+00 0. -1.
        -14    1    6    6    0    0  0.56710622105E+02  0.62313134971E+02  0.94169138743E+02  0.12635999423E+03  0.00000000000E+00 0.  1.
</event>
<event>
12    1  0.9028446E-003  0.2215335E+03  0.7818608E-02  0.1133435E+00
         21   -1    0    0  503  502  0.00000000000E+00  0.00000000000E+00  0.21027143947E+03  0.21027143947E+03  0.00000000000E+00 0.  1.
         21   -1    0    0  501  503 -0.00000000000E+00 -0.00000000000E+00 -0.23038192910E+03  0.23038192910E+03  0.00000000000E+00 0.  1.
          6    2    1    2  501    0  0.11140568060E+03  0.72266319079E+02  0.33915075673E+01  0.22155947587E+03  0.17732301735E+03 0.  0.
         24    2    3    3    0    0  0.12378632319E+02  0.44465899873E+02 -0.50436900605E+02  0.10537510891E+03  0.80184698328E+02 0.  0.
         -6    2    1    2    0  502 -0.11140568060E+03 -0.72266319079E+02 -0.23501997197E+02  0.21909389270E+03  0.17267351679E+03 0.  0.
        -24    2    5    5    0    0 -0.80537651474E+02 -0.38449276556E+02 -0.81115403475E+02  0.14535230219E+03  0.81135213682E+02 0.  0.
          5    1    3    3  501    0  0.99027048278E+02  0.27800419206E+02  0.53828408172E+02  0.11618436696E+03  0.47000000000E+01 0. -1.
        -13    1    4    4    0    0 -0.97625264849E+00  0.64242319697E+02 -0.21246009578E+02  0.67671424045E+02  0.00000000000E+00 0.  1.
         14    1    4    4    0    0  0.13354884968E+02 -0.19776419824E+02 -0.29190891027E+02  0.37703684867E+02  0.00000000000E+00 0. -1.
         -5    1    5    5    0  502 -0.30868029124E+02 -0.33817042523E+02  0.57613406279E+02  0.73741590504E+02  0.47000000000E+01 0.  1.
         11    1    6    6    0    0 -0.56660304373E+02 -0.14642759490E+02 -0.11102131452E+01  0.58532325004E+02  0.00000000000E+00 0. -1.
        -12    1    6    6    0    0 -0.23877347101E+02 -0.23806517067E+02 -0.80005190330E+02  0.86819977189E+02  0.00000000000E+00 0.  1.
</event>
<event>
12    1  0.9028446E-003  0.2331586E+03  0.7818608E-02  0.1124524E+00
         21   -1    0    0  503  502  0.00000000000E+00  0.00000000000E+00  0.62170358946E+02  0.62170358946E+02  0.00000000000E+00 0. -1.
         21   -1    0    0  501  503 -0.00000000000E+00 -0.00000000000E+00 -0.87836518811E+03  0.87836518811E+03  0.00000000000E+00 0.  1.
          6    2    1    2  501    0 -0.29024200529E+02  0.15458793079E+03 -0.44604297648E+03  0.50307089063E+03  0.17142389439E+03 0.  0.
         24    2    3    3    0    0 -0.23149007639E+02  0.10990606228E+03 -0.15098745578E+03  0.20455650644E+03  0.80193100998E+02 0.  0.
         -6    2    1    2    0  502  0.29024200529E+02 -0.15458793079E+03 -0.37015185268E+03  0.43746465643E+03  0.17211362240E+03 0.  0.
        -24    2    5    5    0    0  0.26735721648E+02 -0.15529297457E+03 -0.38284153776E+03  0.42372230111E+03  0.90234354117E+02 0.  0.
          5    1    3    3  501    0 -0.58751928901E+01  0.44681868513E+02 -0.29505552071E+03  0.29851438419E+03  0.47000000000E+01 0. -1.
        -11    1    4    4    0    0  0.49702693478E+01  0.76955090661E+02 -0.14005233720E+03  0.15987947558E+03  0.00000000000E+00 0.  1.
         12    1    4    4    0    0 -0.28119276987E+02  0.32950971616E+02 -0.10935118573E+02  0.44677030865E+02  0.00000000000E+00 0. -1.
         -5    1    5    5    0  502  0.22884788813E+01  0.70504378303E+00  0.12689685075E+02  0.13742355315E+02  0.47000000000E+01 0.  1.
         11    1    6    6    0    0 -0.18975130179E+02 -0.38895629277E+01 -0.19657308335E+02  0.27596993243E+02  0.00000000000E+00 0. -1.
        -12    1    6    6    0    0  0.45710851827E+02 -0.15140341164E+03 -0.36318422942E+03  0.39612530787E+03  0.00000000000E+00 0.  1.
</event>
<event>
12    1  0.9028446E-003  0.1970201E+03  0.7818608E-02  0.1157071E+00
         21   -1    0    0  503  502  0.00000000000E+00  0.00000000000E+00  0.54569056013E+02  0.54569056013E+02  0.00000000000E+00 0.  1.
         21   -1    0    0  501  503 -0.00000000000E+00 -0.00000000000E+00 -0.70551855440E+03  0.70551855440E+03  0.00000000000E+00 0.  1.
          6    2    1    2  501    0 -0.36330444727E+02 -0.17241350611E+02 -0.19115938731E+03  0.25986380510E+03  0.17137712934E+03 0.  0.
         24    2    3    3    0    0 -0.85935779083E+02 -0.13699695285E+02 -0.97775246252E+02  0.15395856293E+03  0.81059240939E+02 0.  0.
         -6    2    1    2    0  502  0.36330444727E+02  0.17241350611E+02 -0.45979011107E+03  0.50022380531E+03  0.19287235097E+03 0.  0.
        -24    2    5    5    0    0  0.97441485206E+02 -0.59184311378E+01 -0.35552622611E+03  0.37708168227E+03  0.79131705298E+02 0.  0.
          5    1    3    3  501    0  0.49605334356E+02 -0.35416553257E+01 -0.93384141059E+02  0.10590524218E+03  0.47000000000E+01 0. -1.
        -13    1    4    4    0    0 -0.21972570870E+02  0.10427017638E+02  0.10027676093E+02  0.26307239599E+02  0.00000000000E+00 0.  1.
         14    1    4    4    0    0 -0.63963208213E+02 -0.24126712923E+02 -0.10780292235E+03  0.12765132333E+03  0.00000000000E+00 0. -1.
         -5    1    5    5    0  502 -0.61111040479E+02  0.23159781749E+02 -0.10426388496E+03  0.12314212304E+03  0.47000000000E+01 0.  1.
         13    1    6    6    0    0  0.87365954306E+01  0.35045225141E+00  0.17395804252E+01  0.89149905526E+01  0.00000000000E+00 0. -1.
        -14    1    6    6    0    0  0.88704889776E+02 -0.62688833892E+01 -0.35726580653E+03  0.36816669171E+03  0.00000000000E+00 0.  1.
</event>
<event>
12    1  0.9028446E-003  0.2447626E+03  0.7818608E-02  0.1116768E+00
         21   -1    0    0  503  502  0.00000000000E+00  0.00000000000E+00  0.82701954476E+03  0.82701954476E+03  0.00000000000E+00 0.  1.
         21   -1    0    0  501  503 -0.00000000000E+00 -0.00000000000E+00 -0.73752542612E+02  0.73752542612E+02  0.00000000000E+00 0.  1.
          6    2    1    2  501    0  0.10604217152E+03 -0.13733442608E+03  0.44156583823E+03  0.50486545093E+03  0.17263559111E+03 0.  0.
         24    2    3    3    0    0  0.80345335923E+02 -0.17662331678E+02  0.15122628740E+03  0.18974502582E+03  0.79790061160E+02 0.  0.
         -6    2    1    2    0  502 -0.10604217152E+03  0.13733442608E+03  0.31170116391E+03  0.39590663644E+03  0.17169380440E+03 0.  0.
        -24    2    5    5    0    0 -0.11399200502E+03  0.42852773852E+02  0.15469059046E+03  0.21242804741E+03  0.79786960798E+02 0.  0.
          5    1    3    3  501    0  0.25696835596E+02 -0.11967209440E+03  0.29033955083E+03  0.31512042510E+03  0.47000000000E+01 0. -1.
        -11    1    4    4    0    0  0.61921516242E+02 -0.46807587139E+02  0.85197481715E+02  0.11525552168E+03  0.00000000000E+00 0.  1.
         12    1    4    4    0    0  0.18423819681E+02  0.29145255460E+02  0.66028805684E+02  0.74489504143E+02  0.00000000000E+00 0. -1.
         -5    1    5    5    0  502  0.79498334971E+01  0.94481652223E+02  0.15701057345E+03  0.18347858904E+03  0.47000000000E+01 0.  1.
         11    1    6    6    0    0 -0.25928351199E+02 -0.23421953226E+02  0.44483615862E+02  0.56565531633E+02  0.00000000000E+00 0. -1.
        -12    1    6    6    0    0 -0.88063653818E+02  0.66274727078E+02  0.11020697460E+03  0.15586251577E+03  0.00000000000E+00 0.  1.
</event>
<event>
12    1  0.9028446E-003  0.1887515E+03  0.7818608E-02  0.1159868E+00
         21   -1    0    0  501  502  0.00000000000E+00  0.00000000000E+00  0.29995416724E+03  0.29995416724E+03  0.00000000000E+00 0.  1.
         21   -1    0    0  502  503 -0.00000000000E+00 -0.00000000000E+00 -0.17839372383E+03  0.17839372383E+03  0.00000000000E+00 0.  1.
          6    2    1    2  501    0  0.12924362295E+02  0.77066406513E+02  0.20005192200E+03  0.27504163351E+03  0.17181635112E+03 0.  0.
         24    2    3    3    0    0 -0.20267729686E+01  0.15873008945E+02  0.21966646498E+02  0.86084962010E+02  0.81682476115E+02 0.  0.
         -6    2    1    2    0  503 -0.12924362295E+02 -0.77066406513E+02 -0.78491478589E+02  0.20330625756E+03  0.17048827526E+03 0.  0.
        -24    2    5    5    0    0 -0.50040923753E+02 -0.18357310639E+02  0.29520391219E+01  0.96163671959E+02  0.79985325940E+02 0.  0.
          5    1    3    3  501    0  0.14951135264E+02  0.61193397568E+02  0.17808527551E+03  0.18895667150E+03  0.47000000000E+01 0. -1.
        -11    1    4    4    0    0 -0.69856967124E+01  0.49010440301E+02  0.99995177925E+01  0.50505579624E+02  0.00000000000E+00 0.  1.
         12    1    4    4    0    0  0.49589237438E+01 -0.33137431355E+02  0.11967128705E+02  0.35579382386E+02  0.00000000000E+00 0. -1.
         -5    1    5    5    0  503  0.37116561458E+02 -0.58709095874E+02 -0.81443517711E+02  0.10714258560E+03  0.47000000000E+01 0.  1.
         13    1    6    6    0    0  0.77418779563E+01 -0.34905089586E+02  0.45180925466E+01  0.36037690181E+02  0.00000000000E+00 0. -1.
        -14    1    6    6    0    0 -0.57782801710E+02  0.16547778947E+02 -0.15660534247E+01  0.60125981779E+02  0.00000000000E+00 0.  1.
</event>
<event>
12    1  0.9028446E-003  0.1799904E+03  0.7818608E-02  0.1167951E+00
         21   -1    0    0  503  502  0.00000000000E+00  0.00000000000E+00  0.72717240166E+03  0.72717240166E+03  0.00000000000E+00 0. -1.
         21   -1    0    0  501  503 -0.00000000000E+00 -0.00000000000E+00 -0.49168025837E+02  0.49168025837E+02  0.00000000000E+00 0. -1.
          6    2    1    2  501    0 -0.27986596628E+01  0.53872496933E+02  0.21776604843E+03  0.28215842512E+03  0.17111763963E+03 0.  0.
         24    2    3    3    0    0  0.43711882701E+02  0.37068478864E+02  0.57829306011E+02  0.11468467449E+03  0.80768466087E+02 0.  0.
         -6    2    1    2    0  502  0.27986596628E+01 -0.53872496933E+02  0.46023832740E+03  0.49418200238E+03  0.17171620498E+03 0.  0.
        -24    2    5    5    0    0  0.93255640568E+01 -0.10216110536E+03  0.37362185531E+03  0.39468881959E+03  0.75247032842E+02 0.  0.
          5    1    3    3  501    0 -0.46510542364E+02  0.16804018069E+02  0.15993674242E+03  0.16747375063E+03  0.47000000000E+01 0. -1.
        -13    1    4    4    0    0  0.20355455073E+02 -0.24498982724E+02  0.27940429763E+02  0.42369945965E+02  0.00000000000E+00 0.  1.
         14    1    4    4    0    0  0.23356427628E+02  0.61567461588E+02  0.29888876248E+02  0.72314728523E+02  0.00000000000E+00 0. -1.
         -5    1    5    5    0  502 -0.65269043941E+01  0.48288608431E+02  0.86616472084E+02  0.99493182789E+02  0.47000000000E+01 0.  1.
         11    1    6    6    0    0 -0.29436894300E+02 -0.18770405272E+02  0.90155022600E+02  0.96678782368E+02  0.00000000000E+00 0. -1.
        -12    1    6    6    0    0  0.38762458357E+02 -0.83390700092E+02  0.28346683271E+03  0.29801003723E+03  0.00000000000E+00 0.  1.
</event>
<event>
12    1  0.9028446E-003  0.2294277E+03  0.7818608E-02  0.1127173E+00
         21   -1    0    0  503  502  0.00000000000E+00  0.00000000000E+00  0.73446012848E+02  0.73446012848E+02  0.00000000000E+00 0.  1.
         21   -1    0    0  501  503 -0.00000000000E+00 -0.00000000000E+00 -0.99933762397E+03  0.99933762397E+03  0.00000000000E+00 0.  1.
          6    2    1    2  501    0  0.13707520406E+03  0.64325772113E+02 -0.74883957237E+03  0.78298283577E+03  0.17138844603E+03 0.  0.
         24    2    3    3    0    0  0.10211763401E+03  0.55742995299E+02 -0.72470024768E+03  0.73938819438E+03  0.89270153423E+02 0.  0.
         -6    2    1    2    0  502 -0.13707520406E+03 -0.64325772113E+02 -0.17705203875E+03  0.28980080105E+03  0.17236491330E+03 0.  0.
        -24    2    5    5    0    0 -0.52375049951E+02 -0.97818264787E+02 -0.86441705961E+02  0.16123880985E+03  0.78830365282E+02 0.  0.
          5    1    3    3  501    0  0.34957570050E+02  0.85827768145E+01 -0.24139324689E+02  0.43594641392E+02  0.47000000000E+01 0. -1.
        -13    1    4    4    0    0  0.75360998478E+00 -0.19629280670E+02 -0.12448283251E+03  0.12602322079E+03  0.00000000000E+00 0.  1.
         14    1    4    4    0    0  0.10136402403E+03  0.75372275969E+02 -0.60021741517E+03  0.61336497358E+03  0.00000000000E+00 0. -1.
         -5    1    5    5    0  502 -0.84700154110E+02  0.33492492674E+02 -0.90610332788E+02  0.12856199119E+03  0.47000000000E+01 0.  1.
         13    1    6    6    0    0 -0.35492325545E+02 -0.33428857744E+02 -0.80882219035E+02  0.94441130121E+02  0.00000000000E+00 0. -1.
        -14    1    6    6    0    0 -0.16882724406E+02 -0.64389407044E+02 -0.55594869260E+01  0.66797679733E+02  0.00000000000E+00 0.  1.
</event>
<event>
12    1  0.9028446E-003  0.2292923E+03  0.7818608E-02  0.1127660E+00
         21   -1    0    0  503  502  0.00000000000E+00  0.00000000000E+00  0.19558221209E+03  0.19558221209E+03  0.00000000000E+00 0.  1.
         21   -1    0    0  501  503 -0.00000000000E+00 -0.00000000000E+00 -0.28694271790E+03  0.28694271790E+03  0.00000000000E+00 0. -1.
          6    2    1    2  501    0 -0.10926071885E+03  0.10106279451E+03 -0.11207527514E+03  0.25521721740E+03  0.17442295618E+03 0.  0.
         24    2    3    3    0    0 -0.52193377779E+02  0.84428486255E+00 -0.16086703271E+01  0.95450537921E+02  0.79895906455E+02 0.  0.
         -6    2    1    2    0  502  0.10926071885E+03 -0.10106279451E+03  0.20714769323E+02  0.22730771259E+03  0.17055234217E+03 0.  0.
        -24    2    5    5    0    0  0.72554490114E+02 -0.11785024080E+03 -0.29224235723E+02  0.16292479711E+03  0.80855428186E+02 0.  0.
          5    1    3    3  501    0 -0.57067341069E+02  0.10021850965E+03 -0.11046660481E+03  0.15976667948E+03  0.47000000000E+01 0. -1.
        -11    1    4    4    0    0 -0.52123290943E+02 -0.29699104855E+02 -0.15403123002E+02  0.61936503664E+02  0.00000000000E+00 0.  1.
         12    1    4    4    0    0 -0.70086836079E-01  0.30543389717E+02  0.13794452675E+02  0.33514034257E+02  0.00000000000E+00 0. -1.
         -5    1    5    5    0  502  0.36706228733E+02  0.16787446294E+02  0.49939005046E+02  0.64382915481E+02  0.47000000000E+01 0.  1.
         11    1    6    6    0    0  0.13103251039E+02 -0.36392139385E+02 -0.46634024788E+02  0.60587253319E+02  0.00000000000E+00 0. -1.
        -12    1    6    6    0    0  0.59451239076E+02 -0.81458101417E+02  0.17409789065E+02  0.10233754379E+03  0.00000000000E+00 0.  1.
</event>
<event>
12    1  0.9028446E-003  0.2218004E+03  0.7818608E-02  0.1132839E+00
         21   -1    0    0  501  502  0.00000000000E+00  0.00000000000E+00  0.50657978840E+03  0.50657978840E+03  0.00000000000E+00 0.  1.
         21   -1    0    0  502  503 -0.00000000000E+00 -0.00000000000E+00 -0.96470201191E+02  0.96470201191E+02  0.00000000000E+00 0.  1.
          6    2    1    2  501    0  0.11061666836E+02 -0.13684726354E+03  0.19930092646E+03  0.29818830080E+03  0.17420065854E+03 0.  0.
         24    2    3    3    0    0  0.20709270821E+01 -0.16036327936E+03  0.12013107385E+03  0.21497897462E+03  0.77870498380E+02 0.  0.
         -6    2    1    2    0  503 -0.11061666836E+02  0.13684726354E+03  0.21080866074E+03  0.30486168878E+03  0.17219414576E+03 0.  0.
        -24    2    5    5    0    0 -0.16535473750E+02  0.25680669960E+02  0.16168028365E+03  0.18310922874E+03  0.80346479874E+02 0.  0.
          5    1    3    3  501    0  0.89907397541E+01  0.23516015817E+02  0.79169852616E+02  0.83209326187E+02  0.47000000000E+01 0. -1.
        -11    1    4    4    0    0 -0.41690763354E+01 -0.59044897165E+02  0.92426644834E+02  0.10975593722E+03  0.00000000000E+00 0.  1.
         12    1    4    4    0    0  0.62400034175E+01 -0.10131838219E+03  0.27704429013E+02  0.10522303740E+03  0.00000000000E+00 0. -1.
         -5    1    5    5    0  503  0.54738069138E+01  0.11116659358E+03  0.49128377094E+02  0.12175246004E+03  0.47000000000E+01 0.  1.
         13    1    6    6    0    0  0.33796961708E+01  0.48764055544E+02  0.13115155935E+03  0.13996459187E+03  0.00000000000E+00 0. -1.
        -14    1    6    6    0    0 -0.19915169921E+02 -0.23083385584E+02  0.30528724302E+02  0.43144636868E+02  0.00000000000E+00 0.  1.
</event>
<event>
12    1  0.9028446E-003  0.2240297E+03  0.7818608E-02  0.1130936E+00
         21   -1    0    0  501  502  0.00000000000E+00  0.00000000000E+00  0.10184028744E+03  0.10184028744E+03  0.00000000000E+00 0.  1.
         21   -1    0    0  502  503 -0.00000000000E+00 -0.00000000000E+00 -0.72307640909E+03  0.72307640909E+03  0.00000000000E+00 0.  1.
          6    2    1    2  501    0  0.71150097334E+02  0.12645738396E+03 -0.54344685031E+03  0.58776597747E+03  0.17053022855E+03 0.  0.
         24    2    3    3    0    0  0.89821456842E+02  0.85941204388E+02 -0.51176910424E+03  0.53285013213E+03  0.81042350251E+02 0.  0.
         -6    2    1    2    0  503 -0.71150097334E+02 -0.12645738396E+03 -0.77789271336E+02  0.23715071906E+03  0.17069120220E+03 0.  0.
        -24    2    5    5    0    0 -0.43286275627E+02 -0.90942652660E+02 -0.11969782711E+03  0.17537608230E+03  0.79277567444E+02 0.  0.
          5    1    3    3  501    0 -0.18671359508E+02  0.40516179576E+02 -0.31677746071E+02  0.54915845341E+02  0.47000000000E+01 0. -1.
        -13    1    4    4    0    0  0.85392215166E+02  0.99571536942E+02 -0.48569943000E+03  0.50310064369E+03  0.00000000000E+00 0.  1.
         14    1    4    4    0    0  0.44292416762E+01 -0.13630332554E+02 -0.26069674244E+02  0.29749488441E+02  0.00000000000E+00 0. -1.
         -5    1    5    5    0  503 -0.27863821707E+02 -0.35514731304E+02  0.41908555771E+02  0.61774636758E+02  0.47000000000E+01 0.  1.
         13    1    6    6    0    0 -0.45317078299E+02 -0.33824813363E+02 -0.19120332721E+02  0.59693740945E+02  0.00000000000E+00 0. -1.
        -14    1    6    6    0    0  0.20308026723E+01 -0.57117839297E+02 -0.10057749439E+03  0.11568234136E+03  0.00000000000E+00 0.  1.
</event>
<event>
12    1  0.9028446E-003  0.1948624E+03  0.7818608E-02  0.1154600E+00
         21   -1    0    0  501  502  0.00000000000E+00  0.00000000000E+00  0.28925221366E+02  0.28925221366E+02  0.00000000000E+00 0. -1.
         21   -1    0    0  502  503 -0.00000000000E+00 -0.00000000000E+00 -0.13205831114E+04  0.13205831114E+04  0.00000000000E+00 0.  1.
          6    2    1    2  501    0  0.83786873438E+02  0.35230034110E+02 -0.56271843710E+03  0.59550265401E+03  0.17236582033E+03 0.  0.
         24    2    3    3    0    0  0.73408913792E+01  0.24675993660E+02 -0.45532145611E+03  0.46317133697E+03  0.80915175663E+02 0.  0.
         -6    2    1    2    0  503 -0.83786873438E+02 -0.35230034110E+02 -0.72893945296E+03  0.75400567878E+03  0.17003070925E+03 0.  0.
        -24    2    5    5    0    0 -0.79210730861E+02 -0.29440061815E+02 -0.24971115297E+03  0.27469751239E+03  0.77214028979E+02 0.  0.
          5    1    3    3  501    0  0.76445982059E+02  0.10554040450E+02 -0.10739698099E+03  0.13233131704E+03  0.47000000000E+01 0. -1.
        -13    1    4    4    0    0  0.11022006196E+02  0.40103525222E+02 -0.43684760498E+03  0.43882297950E+03  0.00000000000E+00 0.  1.
         14    1    4    4    0    0 -0.36811148171E+01 -0.15427531562E+02 -0.18473851125E+02  0.24348357476E+02  0.00000000000E+00 0. -1.
         -5    1    5    5    0  503 -0.45761425773E+01 -0.57899722953E+01 -0.47922829999E+03  0.47930816639E+03  0.47000000000E+01 0.  1.
         13    1    6    6    0    0 -0.35831302650E+02 -0.50773162971E+02 -0.17504476899E+03  0.18574839832E+03  0.00000000000E+00 0. -1.
        -14    1    6    6    0    0 -0.43379428211E+02  0.21333101156E+02 -0.74666383985E+02  0.88949114072E+02  0.00000000000E+00 0.  1.
</event>
<event>
12    1  0.9028446E-003  0.2661286E+03  0.7818608E-02  0.1103643E+00
         21   -1    0    0  503  502  0.00000000000E+00  0.00000000000E+00  0.35029142202E+03  0.35029142202E+03  0.00000000000E+00 0. -1.
         21   -1    0    0  501  503 -0.00000000000E+00 -0.00000000000E+00 -0.20223035444E+03  0.20223035444E+03  0.00000000000E+00 0. -1.
          6    2    1    2  501    0 -0.20176862056E+03 -0.18956450214E+02  0.57600519116E+02  0.27143896437E+03  0.17114721244E+03 0.  0.
         24    2    3    3    0    0 -0.18129355896E+03  0.66644349712E+01 -0.74659518178E+01  0.19842257206E+03  0.80025042666E+02 0.  0.
         -6    2    1    2    0  502  0.20176862056E+03  0.18956450214E+02  0.90460548470E+02  0.28108281209E+03  0.17249496566E+03 0.  0.
        -24    2    5    5    0    0  0.15860574079E+03  0.76634009257E+02  0.74982320771E+02  0.20724921175E+03  0.79380948318E+02 0.  0.
          5    1    3    3  501    0 -0.20475061604E+02 -0.25620885185E+02  0.65066470934E+02  0.73016392304E+02  0.47000000000E+01 0. -1.
        -11    1    4    4    0    0 -0.42744011552E+01  0.20277910808E+02  0.69772420904E-02  0.20723518540E+02  0.00000000000E+00 0.  1.
         12    1    4    4    0    0 -0.17701915780E+03 -0.13613475837E+02 -0.74729290599E+01  0.17769905352E+03  0.00000000000E+00 0. -1.
         -5    1    5    5    0  502  0.43162879771E+02 -0.57677559043E+02  0.15478227699E+02  0.73833600345E+02  0.47000000000E+01 0.  1.
         13    1    6    6    0    0  0.76594783809E+01  0.14342723637E+01  0.32388036357E+02  0.33312304714E+02  0.00000000000E+00 0. -1.
        -14    1    6    6    0    0  0.15094626241E+03  0.75199736893E+02  0.42594284414E+02  0.17393690704E+03  0.00000000000E+00 0.  1.
</event>
<event>
12    1  0.9028446E-003  0.2753031E+03  0.7818608E-02  0.1098425E+00
         21   -1    0    0  501  502  0.00000000000E+00  0.00000000000E+00  0.19315168707E+03  0.19315168707E+03  0.00000000000E+00 0. -1.
         21   -1    0    0  502  503 -0.00000000000E+00 -0.00000000000E+00 -0.83382377876E+03  0.83382377876E+03  0.00000000000E+00 0.  1.
          6    2    1    2  501    0  0.21362188666E+03 -0.73072847559E+00  0.54172100872E+02  0.27957981223E+03  0.17203316677E+03 0.  0.
         24    2    3    3    0    0  0.84371807843E+02 -0.29003543497E+02 -0.28943159244E+02  0.12326227832E+03  0.79975466833E+02 0.  0.
         -6    2    1    2    0  503 -0.21362188666E+03  0.73072847559E+00 -0.69484419257E+03  0.74739565360E+03  0.17365761329E+03 0.  0.
        -24    2    5    5    0    0 -0.16246168298E+03  0.40421172269E+02 -0.34729512483E+03  0.39383499084E+03  0.80401658396E+02 0.  0.
          5    1    3    3  501    0  0.12925007882E+03  0.28272815021E+02  0.83115260116E+02  0.15631753391E+03  0.47000000000E+01 0. -1.
        -11    1    4    4    0    0  0.20653969265E+02 -0.87104873344E+01  0.27694299150E+02  0.35629106660E+02  0.00000000000E+00 0.  1.
         12    1    4    4    0    0  0.63717838578E+02 -0.20293056162E+02 -0.56637458395E+02  0.87633171658E+02  0.00000000000E+00 0. -1.
         -5    1    5    5    0  503 -0.51160203680E+02 -0.39690443793E+02 -0.34754906774E+03  0.35356066277E+03  0.47000000000E+01 0.  1.
         13    1    6    6    0    0 -0.16807237769E+03  0.27533167146E+02 -0.30586662360E+03  0.35008683333E+03  0.00000000000E+00 0. -1.
        -14    1    6    6    0    0  0.56106947167E+01  0.12888005123E+02 -0.41428501227E+02  0.43748157506E+02  0.00000000000E+00 0.  1.
</event>
<event>
12    1  0.9028446E-003  0.1810964E+03  0.7818608E-02  0.1167130E+00
         21   -1    0    0  501  502  0.00000000000E+00  0.00000000000E+00  0.86076866062E+03  0.86076866062E+03  0.00000000000E+00 0.  1.
         21   -1    0    0  502  503 -0.00000000000E+00 -0.00000000000E+00 -0.76637981437E+02  0.76637981437E+02  0.00000000000E+00 0.  1.
          6    2    1    2  501    0  0.47810279938E+02  0.19432923680E+02  0.72672201070E+03  0.74894645136E+03  0.17358699485E+03 0.  0.
         24    2    3    3    0    0 -0.37237834619E+02  0.21211995211E+02  0.28501884239E+03  0.29910189401E+03  0.79934957399E+02 0.  0.
         -6    2    1    2    0  503 -0.47810279938E+02 -0.19432923680E+02  0.57408668480E+02  0.18846019069E+03  0.17192448013E+03 0.  0.
        -24    2    5    5    0    0 -0.29377405868E+02  0.51186660863E+02  0.55796289605E+02  0.11530565335E+03  0.81847794935E+02 0.  0.
          5    1    3    3  501    0  0.85048114557E+02 -0.17790715305E+01  0.44170316831E+03  0.44984455736E+03  0.47000000000E+01 0. -1.
        -13    1    4    4    0    0  0.19792183290E+02 -0.48017485579E+01  0.13479537226E+03  0.13632527165E+03  0.00000000000E+00 0.  1.
         14    1    4    4    0    0 -0.57030017910E+02  0.26013743768E+02  0.15022347013E+03  0.16277662236E+03  0.00000000000E+00 0. -1.
         -5    1    5    5    0  503 -0.18432874070E+02 -0.70619584543E+02  0.16123788747E+01  0.73154537338E+02  0.47000000000E+01 0.  1.
         13    1    6    6    0    0 -0.19189319237E+02  0.37548950555E+02 -0.13242900383E+02  0.44198733817E+02  0.00000000000E+00 0. -1.
        -14    1    6    6    0    0 -0.10188086631E+02  0.13637710309E+02  0.69039189988E+02  0.71106919536E+02  0.00000000000E+00 0.  1.
</event>
<event>
12    1  0.9028446E-003  0.1862467E+03  0.7818608E-02  0.1163607E+00
         21   -1    0    0  503  502  0.00000000000E+00  0.00000000000E+00  0.22469383611E+03  0.22469383611E+03  0.00000000000E+00 0. -1.
         21   -1    0    0  501  503 -0.00000000000E+00 -0.00000000000E+00 -0.20851329006E+03  0.20851329006E+03  0.00000000000E+00 0. -1.
          6    2    1    2  501    0  0.37880601171E+02  0.33703541004E+02 -0.10806220570E+03  0.21532597660E+03  0.17921207347E+03 0.  0.
         24    2    3    3    0    0  0.45321866133E+01  0.12421969518E+02  0.27888070635E+02  0.73658797357E+02  0.66880699025E+02 0.  0.
         -6    2    1    2    0  502 -0.37880601171E+02 -0.33703541004E+02  0.12424275175E+03  0.21788114957E+03  0.17165391156E+03 0.  0.
        -24    2    5    5    0    0 -0.66974933622E+02  0.10210460945E+02  0.12685223993E+03  0.16493004782E+03  0.80749827570E+02 0.  0.
          5    1    3    3  501    0  0.33348414558E+02  0.21281571486E+02 -0.13595027633E+03  0.14166717924E+03  0.47000000000E+01 0. -1.
        -13    1    4    4    0    0  0.34361364129E+02  0.31275527790E+00  0.22352150087E+02  0.40992923465E+02  0.00000000000E+00 0.  1.
         14    1    4    4    0    0 -0.29829177516E+02  0.12109214240E+02  0.55359205487E+01  0.32665873892E+02  0.00000000000E+00 0. -1.
         -5    1    5    5    0  502  0.29094332451E+02 -0.43914001949E+02 -0.26094881823E+01  0.52951101750E+02  0.47000000000E+01 0.  1.
         11    1    6    6    0    0 -0.79360663021E+02 -0.84714682929E+01  0.80060974661E+02  0.11304707105E+03  0.00000000000E+00 0. -1.
        -12    1    6    6    0    0  0.12385729399E+02  0.18681929238E+02  0.46791265268E+02  0.51882976767E+02  0.00000000000E+00 0.  1.
</event>
<event>
12    1  0.9028446E-003  0.2868546E+03  0.7818608E-02  0.1092052E+00
         21   -1    0    0  503  502  0.00000000000E+00  0.00000000000E+00  0.82646434769E+03  0.82646434769E+03  0.00000000000E+00 0.  1.
         21   -1    0    0  501  503 -0.00000000000E+00 -0.00000000000E+00 -0.21234834787E+03  0.21234834787E+03  0.00000000000E+00 0.  1.
          6    2    1    2  501    0  0.30256640020E+01  0.22943179376E+03 -0.71789042855E+02  0.29534023575E+03  0.17153450250E+03 0.  0.
         24    2    3    3    0    0  0.62913123245E+02  0.19014253381E+03 -0.35651852084E+02  0.21497768054E+03  0.69513339260E+02 0.  0.
         -6    2    1    2    0  502 -0.30256640020E+01 -0.22943179376E+03  0.68590504268E+03  0.74347245981E+03  0.17215536095E+03 0.  0.
        -24    2    5    5    0    0 -0.15028979827E+01 -0.16557966526E+03  0.63674157557E+03  0.66273492438E+03  0.79742471006E+02 0.  0.
          5    1    3    3  501    0 -0.59887459243E+02  0.39289259951E+02 -0.36137190771E+02  0.80362555204E+02  0.47000000000E+01 0. -1.
        -11    1    4    4    0    0  0.13348732606E+02  0.14290446409E+03 -0.23459064807E+02  0.14543109104E+03  0.00000000000E+00 0.  1.
         12    1    4    4    0    0  0.49564390638E+02  0.47238069718E+02 -0.12192787277E+02  0.69546589504E+02  0.00000000000E+00 0. -1.
         -5    1    5    5    0  502 -0.15227660193E+01 -0.63852128499E+02  0.49163467103E+02  0.80737535433E+02  0.47000000000E+01 0.  1.
         13    1    6    6    0    0  0.23271470848E+02 -0.42948900652E+02  0.96049909510E+02  0.10775785141E+03  0.00000000000E+00 0. -1.
        -14    1    6    6    0    0 -0.24774368831E+02 -0.12263076461E+03  0.54069166606E+03  0.55497707298E+03  0.00000000000E+00 0.  1.
</event>
<event>
12    1  0.9028446E-003  0.2119859E+03  0.7818608E-02  0.1140453E+00
         21   -1    0    0  501  502  0.00000000000E+00  0.00000000000E+00  0.79993110631E+03  0.79993110631E+03  0.00000000000E+00 0. -1.
         21   -1    0    0  502  503 -0.00000000000E+00 -0.00000000000E+00 -0.84151349109E+02  0.84151349109E+02  0.00000000000E+00 0.  1.
          6    2    1    2  501    0 -0.10025346779E+03  0.66183324567E+02  0.61420926826E+03  0.64901951958E+03  0.17187879835E+03 0.  0.
         24    2    3    3    0    0 -0.37581434367E+02 -0.63927986129E+01  0.13894576162E+03  0.16415606646E+03  0.78664206596E+02 0.  0.
         -6    2    1    2    0  503  0.10025346779E+03 -0.66183324567E+02  0.10157048894E+03  0.23506293584E+03  0.17466261571E+03 0.  0.
        -24    2    5    5    0    0 -0.59519065597E+00 -0.51616141159E+02  0.91715072249E+02  0.13258428449E+03  0.80637198219E+02 0.  0.
          5    1    3    3  501    0 -0.62672033425E+02  0.72576123180E+02  0.47526350664E+03  0.48486345312E+03  0.47000000000E+01 0. -1.
        -11    1    4    4    0    0 -0.53312934238E+02 -0.27789617957E+02  0.10573634296E+03  0.12163349064E+03  0.00000000000E+00 0.  1.
         12    1    4    4    0    0  0.15731499871E+02  0.21396819344E+02  0.33209418662E+02  0.42522575817E+02  0.00000000000E+00 0. -1.
         -5    1    5    5    0  503  0.10084865845E+03 -0.14567183408E+02  0.98554166877E+01  0.10247865134E+03  0.47000000000E+01 0.  1.
         11    1    6    6    0    0  0.22562550713E+02 -0.61086342340E+02  0.84233822503E+02  0.10647040325E+03  0.00000000000E+00 0. -1.
        -12    1    6    6    0    0 -0.23157741369E+02  0.94702011808E+01  0.74812497461E+01  0.26113881241E+02  0.00000000000E+00 0.  1.
</event>
<event>
12    1  0.9028446E-003  0.2916735E+03  0.7818608E-02  0.1089493E+00
         21   -1    0    0  503  502  0.00000000000E+00  0.00000000000E+00  0.80753380672E+03  0.80753380672E+03  0.00000000000E+00 0. -1.
         21   -1    0    0  501  503 -0.00000000000E+00 -0.00000000000E+00 -0.15759201831E+03  0.15759201831E+03  0.00000000000E+00 0.  1.
          6    2    1    2  501    0  0.22254626268E+03  0.77745329585E+02  0.47064572736E+02  0.29544624185E+03  0.17176213933E+03 0.  0.
         24    2    3    3    0    0  0.10936074489E+03  0.32340205249E+01  0.77889144151E+02  0.15639538490E+03  0.80140914822E+02 0.  0.
         -6    2    1    2    0  502 -0.22254626268E+03 -0.77745329585E+02  0.60287721567E+03  0.66967958319E+03  0.17157689723E+03 0.  0.
        -24    2    5    5    0    0 -0.16713457465E+03  0.11015017590E+02  0.39088190546E+03  0.43322037751E+03  0.82679712237E+02 0.  0.
          5    1    3    3  501    0  0.11318551779E+03  0.74511309060E+02 -0.30824571415E+02  0.13905085695E+03  0.47000000000E+01 0. -1.
        -11    1    4    4    0    0  0.10503056566E+03  0.24124173470E+02  0.81030978819E+02  0.13483106095E+03  0.00000000000E+00 0.  1.
         12    1    4    4    0    0  0.43301792328E+01 -0.20890152945E+02 -0.31418346679E+01  0.21564323948E+02  0.00000000000E+00 0. -1.
         -5    1    5    5    0  502 -0.55411688026E+02 -0.88760347175E+02  0.21199531020E+03  0.23645920567E+03  0.47000000000E+01 0.  1.
         13    1    6    6    0    0 -0.68562718796E+02 -0.19421086282E+02  0.24064051391E+03  0.25096988253E+03  0.00000000000E+00 0. -1.
        -14    1    6    6    0    0 -0.98571855859E+02  0.30436103871E+02  0.15024139156E+03  0.18225049499E+03  0.00000000000E+00 0.  1.
</event>
<event>
12    1  0.9028446E-003  0.1973424E+03  0.7818608E-02  0.1152235E+00
         21   -1    0    0  501  502  0.00000000000E+00  0.00000000000E+00  0.14289140536E+04  0.14289140536E+04  0.00000000000E+00 0.  1.
         21   -1    0    0  502  503 -0.00000000000E+00 -0.00000000000E+00 -0.28468192609E+02  0.28468192609E+02  0.00000000000E+00 0.  1.
          6    2    1    2  501    0  0.85392271551E+02 -0.44434290324E+02  0.53886042818E+03  0.57348549774E+03  0.17102283141E+03 0.  0.
         24    2    3    3    0    0  0.12462010691E+03 -0.49272115135E+02  0.43313645095E+03  0.46051701994E+03  0.80689702801E+02 0.  0.
         -6    2    1    2    0  503 -0.85392271551E+02  0.44434290324E+02  0.86158543279E+03  0.88389674844E+03  0.17227233591E+03 0.  0.
        -24    2    5    5    0    0 -0.88786029692E+02  0.16500767794E+02  0.36959277291E+03  0.39107764710E+03  0.90485766106E+02 0.  0.
          5    1    3    3  501    0 -0.39227835354E+02  0.48378248113E+01  0.10572397723E+03  0.11296847781E+03  0.47000000000E+01 0. -1.
        -13    1    4    4    0    0  0.48699803764E+02  0.12903962442E+02  0.84944941916E+02  0.98761461565E+02  0.00000000000E+00 0.  1.
         14    1    4    4    0    0  0.75920303141E+02 -0.62176077578E+02  0.34819150903E+03  0.36175555837E+03  0.00000000000E+00 0. -1.
         -5    1    5    5    0  503  0.33937581409E+01  0.27933522529E+02  0.49199265988E+03  0.49281910135E+03  0.47000000000E+01 0.  1.
         13    1    6    6    0    0 -0.65481202826E+02 -0.23083901102E+02  0.29825570106E+03  0.30623049755E+03  0.00000000000E+00 0. -1.
        -14    1    6    6    0    0 -0.23304826866E+02  0.39584668896E+02  0.71337071844E+02  0.84847149546E+02  0.00000000000E+00 0.  1.
</event>
<event>
12    1  0.9028446E-003  0.3865589E+03  0.7818608E-02  0.1048548E+00
         21   -1    0    0  503  502  0.00000000000E+00  0.00000000000E+00  0.12020573456E+03  0.12020573456E+03  0.00000000000E+00 0.  1.
         21   -1    0    0  501  503 -0.00000000000E+00 -0.00000000000E+00 -0.12950758519E+04  0.12950758519E+04  0.00000000000E+00 0. -1.
          6    2    1    2  501    0  0.10223489647E+03 -0.33030095281E+03 -0.72986993970E+03  0.82591640693E+03  0.17284990274E+03 0.  0.
         24    2    3    3    0    0  0.29341537958E+01 -0.22463184090E+03 -0.50253428812E+03  0.55623105845E+03  0.79901229273E+02 0.  0.
         -6    2    1    2    0  502 -0.10223489647E+03  0.33030095281E+03 -0.44500017764E+03  0.58936517952E+03  0.17255568159E+03 0.  0.
        -24    2    5    5    0    0 -0.11262734551E+03  0.16064671492E+03 -0.26621987251E+03  0.34263648047E+03  0.89635100618E+02 0.  0.
          5    1    3    3  501    0  0.99300742678E+02 -0.10566911191E+03 -0.22733565158E+03  0.26968534848E+03  0.47000000000E+01 0. -1.
        -11    1    4    4    0    0  0.40718011351E+02 -0.13503179974E+03 -0.30736876817E+03  0.33818205605E+03  0.00000000000E+00 0.  1.
         12    1    4    4    0    0 -0.37783857555E+02 -0.89600041161E+02 -0.19516551995E+03  0.21804900239E+03  0.00000000000E+00 0. -1.
         -5    1    5    5    0  502  0.10392449031E+02  0.16965423789E+03 -0.17878030513E+03  0.24672869905E+03  0.47000000000E+01 0.  1.
         13    1    6    6    0    0 -0.19324476332E+02  0.91192333348E+02 -0.15970399504E+03  0.18491847685E+03  0.00000000000E+00 0. -1.
        -14    1    6    6    0    0 -0.93302869174E+02  0.69454381570E+02 -0.10651587746E+03  0.15771800362E+03  0.00000000000E+00 0.  1.
</event>
<event>
12    1  0.9028446E-003  0.1998286E+03  0.7818608E-02  0.1150162E+00
         21   -1    0    0  503  502  0.00000000000E+00  0.00000000000E+00  0.19207369205E+03  0.19207369205E+03  0.00000000000E+00 0. -1.
         21   -1    0    0  501  503 -0.00000000000E+00 -0.00000000000E+00 -0.64621862715E+03  0.64621862715E+03  0.00000000000E+00 0. -1.
          6    2    1    2  501    0 -0.25481009343E+02  0.94860613379E+02 -0.57257096248E+03  0.60600762660E+03  0.17251063331E+03 0.  0.
         24    2    3    3    0    0  0.17073687150E+02  0.11042064474E+03 -0.29211400955E+03  0.32187524685E+03  0.76084495021E+02 0.  0.
         -6    2    1    2    0  502  0.25481009343E+02 -0.94860613379E+02  0.11842602739E+03  0.23228469260E+03  0.17402194301E+03 0.  0.
        -24    2    5    5    0    0  0.16882211050E+02 -0.15900359741E+02  0.12686037362E+03  0.15227288608E+03  0.80966949743E+02 0.  0.
          5    1    3    3  501    0 -0.42554696492E+02 -0.15560031366E+02 -0.28045695293E+03  0.28413237974E+03  0.47000000000E+01 0. -1.
        -11    1    4    4    0    0 -0.10406554728E+02  0.10038505620E+03 -0.18386030499E+03  0.20973809297E+03  0.00000000000E+00 0.  1.
         12    1    4    4    0    0  0.27480241877E+02  0.10035588544E+02 -0.10825370456E+03  0.11213715389E+03  0.00000000000E+00 0. -1.
         -5    1    5    5    0  502  0.85987982923E+01 -0.78960253638E+02 -0.84343462333E+01  0.80011806523E+02  0.47000000000E+01 0.  1.
         11    1    6    6    0    0  0.35910684464E+02 -0.17702454342E+02  0.21996877544E+02  0.45681689659E+02  0.00000000000E+00 0. -1.
        -12    1    6    6    0    0 -0.19028473414E+02  0.18020946010E+01  0.10486349608E+03  0.10659119642E+03  0.00000000000E+00 0.  1.
</event>
<event>
12    1  0.9028446E-003  0.2306576E+03  0.7818608E-02  0.1126334E+00
         21   -1    0    0  501  502  0.00000000000E+00  0.00000000000E+00  0.20709086678E+03  0.20709086678E+03  0.00000000000E+00 0.  1.
         21   -1    0    0  502  503 -0.00000000000E+00 -0.00000000000E+00 -0.39737807264E+03  0.39737807264E+03  0.00000000000E+00 0.  1.
          6    2    1    2  501    0 -0.15424567225E+03 -0.14259039053E+02  0.85302484261E+02  0.24509085709E+03  0.16969963702E+03 0.  0.
         24    2    3    3    0    0 -0.17717225123E+03 -0.25917006583E+02  0.94832859123E+02  0.21726183850E+03  0.78407508961E+02 0.  0.
         -6    2    1    2    0  503  0.15424567225E+03  0.14259039053E+02 -0.27558969012E+03  0.35937808234E+03  0.17090313386E+03 0.  0.
        -24    2    5    5    0    0  0.14875892100E+03 -0.27990131796E+02 -0.24280278981E+03  0.30541357819E+03  0.10682506702E+03 0.  0.
          5    1    3    3  501    0  0.22926578979E+02  0.11657967529E+02 -0.95303748615E+01  0.27829018589E+02  0.47000000000E+01 0. -1.
        -13    1    4    4    0    0 -0.74168212532E+02 -0.18127896040E+02 -0.99719584750E+00  0.76357964644E+02  0.00000000000E+00 0.  1.
         14    1    4    4    0    0 -0.10300403870E+03 -0.77891105426E+01  0.95830054970E+02  0.14090387386E+03  0.00000000000E+00 0. -1.
         -5    1    5    5    0  503  0.54867512544E+01  0.42249170850E+02 -0.32786900307E+02  0.53964504154E+02  0.47000000000E+01 0.  1.
         13    1    6    6    0    0  0.79207583303E+02  0.39363068747E+02 -0.11576612063E+03  0.14568832184E+03  0.00000000000E+00 0. -1.
        -14    1    6    6    0    0  0.69551337698E+02 -0.67353200543E+02 -0.12703666918E+03  0.15972525635E+03  0.00000000000E+00 0.  1.
</event>
<event>
12    1  0.9028446E-003  0.1780523E+03  0.7818608E-02  0.1171567E+00
         21   -1    0    0  501  502  0.00000000000E+00  0.00000000000E+00  0.19706009658E+04  0.19706009658E+04  0.00000000000E+00 0. -1.
         21   -1    0    0  502  503 -0.00000000000E+00 -0.00000000000E+00 -0.32319354168E+02  0.32319354168E+02  0.00000000000E+00 0. -1.
          6    2    1    2  501    0 -0.39250573001E+02  0.23751482597E+02  0.17030139749E+04  0.17122964777E+04  0.17204036911E+03 0.  0.
         24    2    3    3    0    0 -0.59365546757E+02  0.44930701614E+02  0.60500616152E+03  0.61389016872E+03  0.72702459907E+02 0.  0.
         -6    2    1    2    0  503  0.39250573001E+02 -0.23751482597E+02  0.23526763674E+03  0.29062384223E+03  0.16433689898E+03 0.  0.
        -24    2    5    5    0    0  0.80468362213E+02  0.11292461538E+02  0.13354562590E+03  0.17531364468E+03  0.79358445110E+02 0.  0.
          5    1    3    3  501    0  0.20114973757E+02 -0.21179219017E+02  0.10980078134E+04  0.10984063090E+04  0.47000000000E+01 0. -1.
        -13    1    4    4    0    0 -0.12267090316E+02 -0.15617533869E+02  0.24492464351E+03  0.24572844741E+03  0.00000000000E+00 0.  1.
         14    1    4    4    0    0 -0.47098456441E+02  0.60548235483E+02  0.36008151801E+03  0.36816172130E+03  0.00000000000E+00 0. -1.
         -5    1    5    5    0  503 -0.41217789212E+02 -0.35043944136E+02  0.10172201084E+03  0.11531019754E+03  0.47000000000E+01 0.  1.
         11    1    6    6    0    0 -0.15689429436E+02 -0.58043454944E+00  0.11376153621E+02  0.19388449435E+02  0.00000000000E+00 0. -1.
        -12    1    6    6    0    0  0.96157791649E+02  0.11872896088E+02  0.12216947228E+03  0.15592519525E+03  0.00000000000E+00 0.  1.
</event>
<event>
12    1  0.9028446E-003  0.1762728E+03  0.7818608E-02  0.1174398E+00
         21   -1    0    0  501  502  0.00000000000E+00  0.00000000000E+00  0.66623517593E+02  0.66623517593E+02  0.00000000000E+00 0. -1.
         21   -1    0    0  502  503 -0.00000000000E+00 -0.00000000000E+00 -0.44022437834E+03  0.44022437834E+03  0.00000000000E+00 0. -1.
          6    2    1    2  501    0 -0.26574052922E+02  0.13586281534E+02 -0.21562903139E+03  0.27851026090E+03  0.17372771486E+03 0.  0.
         24    2    3    3    0    0  0.37089780817E+02 -0.34612532376E+02 -0.96538970723E+02  0.13505036428E+03  0.79656442202E+02 0.  0.
         -6    2    1    2    0  503  0.26574052922E+02 -0.13586281534E+02 -0.15797182936E+03  0.22833763504E+03  0.16214872608E+03 0.  0.
        -24    2    5    5    0    0  0.25429562168E+02 -0.43710222221E-01 -0.13251678123E+02  0.82904752682E+02  0.77787701480E+02 0.  0.
          5    1    3    3  501    0 -0.63663833739E+02  0.48198813910E+02 -0.11909006067E+03  0.14345989662E+03  0.47000000000E+01 0. -1.
        -11    1    4    4    0    0  0.17057946369E+02  0.38976365994E+01 -0.89354057441E+02  0.91051154230E+02  0.00000000000E+00 0.  1.
         12    1    4    4    0    0  0.20031834448E+02 -0.38510168976E+02 -0.71849132825E+01  0.43999210047E+02  0.00000000000E+00 0. -1.
         -5    1    5    5    0  503  0.11444907544E+01 -0.13542571312E+02 -0.14472015124E+03  0.14543288236E+03  0.47000000000E+01 0.  1.
         11    1    6    6    0    0  0.81612071120E+01 -0.12511797742E+02 -0.43452663189E+02  0.45948714046E+02  0.00000000000E+00 0. -1.
        -12    1    6    6    0    0  0.17268355056E+02  0.12468087520E+02  0.30200985066E+02  0.36956038636E+02  0.00000000000E+00 0.  1.
</event>
<event>
12    1  0.9028446E-003  0.1926073E+03  0.7818608E-02  0.1156271E+00
         21   -1    0    0  501  502  0.00000000000E+00  0.00000000000E+00  0.55931859965E+03  0.55931859965E+03  0.00000000000E+00 0. -1.
         21   -1    0    0  502  503 -0.00000000000E+00 -0.00000000000E+00 -0.92225229709E+02  0.92225229709E+02  0.00000000000E+00 0. -1.
          6    2    1    2  501    0 -0.64953784837E+02 -0.57267372936E+02  0.40663186782E+03  0.44966973599E+03  0.17133256950E+03 0.  0.
         24    2    3    3    0    0 -0.68522940443E+02  0.26072049654E+02  0.16822525404E+03  0.19704748494E+03  0.71783215911E+02 0.  0.
         -6    2    1    2    0  503  0.64953784837E+02  0.57267372936E+02  0.60461502119E+02  0.20187409336E+03  0.17204362867E+03 0.  0.
        -24    2    5    5    0    0  0.63207893666E+02 -0.18746801224E+02  0.67619194223E+02  0.12535922314E+03  0.82437242924E+02 0.  0.
          5    1    3    3  501    0  0.35691556054E+01 -0.83339422591E+02  0.23840661378E+03  0.25262225105E+03  0.47000000000E+01 0. -1.
        -13    1    4    4    0    0 -0.60573744179E+02  0.43682157135E+02  0.15894000810E+03  0.17561103470E+03  0.00000000000E+00 0.  1.
         14    1    4    4    0    0 -0.79491962638E+01 -0.17610107480E+02  0.92852459401E+01  0.21436450240E+02  0.00000000000E+00 0. -1.
         -5    1    5    5    0  503  0.17458911713E+01  0.76014174161E+02 -0.71576921039E+01  0.76514870225E+02  0.47000000000E+01 0.  1.
         13    1    6    6    0    0  0.58488837742E+02  0.10458401176E+02  0.95373998603E+01  0.60177107705E+02  0.00000000000E+00 0. -1.
        -14    1    6    6    0    0  0.47190559236E+01 -0.29205202401E+02  0.58081794363E+02  0.65182115434E+02  0.00000000000E+00 0.  1.
</event>
<event>
12    1  0.9028446E-003  0.1900134E+03  0.7818608E-02  0.1161703E+00
         21   -1    0    0  501  502  0.00000000000E+00  0.00000000000E+00  0.67387533843E+03  0.67387533843E+03  0.00000000000E+00 0.  1.
         21   -1    0    0  502  503 -0.00000000000E+00 -0.00000000000E+00 -0.60695646749E+02  0.60695646749E+02  0.00000000000E+00 0. -1.
          6    2    1    2  501    0 -0.20453207747E+02  0.75930722170E+02  0.45301821971E+03  0.48606184734E+03  0.15762868957E+03 0.  0.
         24    2    3    3    0    0 -0.16882129974E+02  0.18384333069E+02  0.39794043869E+03  0.40618699862E+03  0.77513193039E+02 0.  0.
         -6    2    1    2    0  503  0.20453207747E+02 -0.75930722170E+02  0.16016147196E+03  0.24850913783E+03  0.17297770437E+03 0.  0.
        -24    2    5    5    0    0  0.65423803937E+02 -0.78971968373E+01  0.61282370702E+02  0.12025126573E+03  0.79763388282E+02 0.  0.
          5    1    3    3  501    0 -0.35710777731E+01  0.57546389101E+02  0.55077781027E+02  0.79874848719E+02  0.47000000000E+01 0. -1.
        -11    1    4    4    0    0  0.21288476398E+02  0.33213531232E+02  0.22758247027E+03  0.23097644611E+03  0.00000000000E+00 0.  1.
         12    1    4    4    0    0 -0.38170606372E+02 -0.14829198163E+02  0.17035796841E+03  0.17521055251E+03  0.00000000000E+00 0. -1.
         -5    1    5    5    0  503 -0.44970596190E+02 -0.68033525333E+02  0.98879101261E+02  0.12825787211E+03  0.47000000000E+01 0.  1.
         11    1    6    6    0    0  0.18801037973E+02 -0.26460113735E+02  0.62089709143E+02  0.70062462340E+02  0.00000000000E+00 0. -1.
        -12    1    6    6    0    0  0.46622765964E+02  0.18562916898E+02 -0.80733844019E+00  0.50188803385E+02  0.00000000000E+00 0.  1.
</event>
<event>
12    1  0.9028446E-003  0.2792540E+03  0.7818608E-02  0.1096320E+00
         21   -1    0    0  503  502  0.00000000000E+00  0.00000000000E+00  0.18919496673E+03  0.18919496673E+03  0.00000000000E+00 0. -1.
         21   -1    0    0  501  503 -0.00000000000E+00 -0.00000000000E+00 -0.51333199772E+03  0.51333199772E+03  0.00000000000E+00 0. -1.
          6    2    1    2  501    0  0.20234622501E+03  0.81761192286E+02 -0.31944700476E+03  0.42323359184E+03  0.17161409347E+03 0.  0.
         24    2    3    3    0    0  0.15756570144E+03  0.10707602675E+03 -0.30643468502E+03  0.36996496505E+03  0.81729024257E+02 0.  0.
         -6    2    1    2    0  502 -0.20234622501E+03 -0.81761192286E+02 -0.46900262348E+01  0.27929337261E+03  0.17422371910E+03 0.  0.
        -24    2    5    5    0    0 -0.70083428827E+02 -0.39261587936E+02  0.61905159545E+02  0.12516137595E+03  0.73348224031E+02 0.  0.
          5    1    3    3  501    0  0.44780523572E+02 -0.25314834467E+02 -0.13012319735E+02  0.53268626793E+02  0.47000000000E+01 0. -1.
        -13    1    4    4    0    0  0.57698788558E+02  0.22287658437E+02 -0.41724872395E+02  0.74611359028E+02  0.00000000000E+00 0.  1.
         14    1    4    4    0    0  0.99866912883E+02  0.84788368315E+02 -0.26470981263E+03  0.29535360602E+03  0.00000000000E+00 0. -1.
         -5    1    5    5    0  502 -0.13226279619E+03 -0.42499604350E+02 -0.66595185780E+02  0.15413199666E+03  0.47000000000E+01 0.  1.
         13    1    6    6    0    0 -0.34461664772E+02 -0.58639150176E+02  0.34963764425E+02  0.76476277988E+02  0.00000000000E+00 0. -1.
        -14    1    6    6    0    0 -0.35621764055E+02  0.19377562240E+02  0.26941395120E+02  0.48685097964E+02  0.00000000000E+00 0.  1.
</event>
<event>
12    1  0.9028446E-003  0.1837094E+03  0.7818608E-02  0.1164310E+00
         21   -1    0    0  503  502  0.00000000000E+00  0.00000000000E+00  0.55539535502E+03  0.55539535502E+03  0.00000000000E+00 0.  1.
         21   -1    0    0  501  503 -0.00000000000E+00 -0.00000000000E+00 -0.64957148801E+02  0.64957148801E+02  0.00000000000E+00 0.  1.
          6    2    1    2  501    0  0.62374631553E+02 -0.79191636329E+01  0.16565787617E+03  0.24721523479E+03  0.17239353978E+03 0.  0.
         24    2    3    3    0    0  0.24535419916E+02  0.54548522190E+02  0.49613524049E+02  0.11002048500E+03  0.77881173894E+02 0.  0.
         -6    2    1    2    0  502 -0.62374631553E+02  0.79191636329E+01  0.32478033005E+03  0.37313726904E+03  0.17261474718E+03 0.  0.
        -24    2    5    5    0    0 -0.10626361790E+03  0.28524537670E+02  0.24398515388E+03  0.27879335003E+03  0.78047235488E+02 0.  0.
          5    1    3    3  501    0  0.37839211638E+02 -0.62467685823E+02  0.11604435212E+03  0.13719474979E+03  0.47000000000E+01 0. -1.
        -11    1    4    4    0    0  0.42766284732E+02  0.30524996548E+02  0.68818540250E+00  0.52547160943E+02  0.00000000000E+00 0.  1.
         12    1    4    4    0    0 -0.18230864816E+02  0.24023525642E+02  0.48925338646E+02  0.57473324054E+02  0.00000000000E+00 0. -1.
         -5    1    5    5    0  502  0.43888986350E+02 -0.20605374037E+02  0.80795176166E+02  0.94343919008E+02  0.47000000000E+01 0.  1.
         11    1    6    6    0    0 -0.10066560303E+03  0.30536665377E+02  0.14243950952E+03  0.17707361588E+03  0.00000000000E+00 0. -1.
        -12    1    6    6    0    0 -0.55980148718E+01 -0.20121277074E+01  0.10154564436E+03  0.10171973415E+03  0.00000000000E+00 0.  1.
</event>
<event>
12    1  0.9028446E-003  0.1830370E+03  0.7818608E-02  0.1164997E+00
         21   -1    0    0  501  502  0.00000000000E+00  0.00000000000E+00  0.14070490679E+03  0.14070490679E+03  0.00000000000E+00 0.  1.
         21   -1    0    0  502  503 -0.00000000000E+00 -0.00000000000E+00 -0.27632864092E+03  0.27632864092E+03  0.00000000000E+00 0.  1.
          6    2    1    2  501    0  0.30391333168E+02  0.53960910636E+02  0.10233759755E+02  0.18332283412E+03  0.17224145454E+03 0.  0.
         24    2    3    3    0    0 -0.30605671661E+02  0.67405453650E+02 -0.24776212977E+02  0.11156505736E+03  0.79703820326E+02 0.  0.
         -6    2    1    2    0  503 -0.30391333168E+02 -0.53960910636E+02 -0.14585749389E+03  0.23371071359E+03  0.17178729905E+03 0.  0.
        -24    2    5    5    0    0  0.36710969455E+02 -0.58292189478E+02 -0.49305065555E+02  0.11595698579E+03  0.79179280312E+02 0.  0.
          5    1    3    3  501    0  0.60997004829E+02 -0.13444543013E+02  0.35009972732E+02  0.71757776761E+02  0.47000000000E+01 0. -1.
        -13    1    4    4    0    0 -0.16500747006E+02  0.31009415700E+02  0.28698721645E+02  0.45359399664E+02  0.00000000000E+00 0.  1.
         14    1    4    4    0    0 -0.14104924655E+02  0.36396037949E+02 -0.53474934622E+02  0.66205657695E+02  0.00000000000E+00 0. -1.
         -5    1    5    5    0  503 -0.67102302623E+02  0.43312788417E+01 -0.96552428338E+02  0.11775372780E+03  0.47000000000E+01 0.  1.
         11    1    6    6    0    0  0.13656461249E+02 -0.34246301041E+02  0.17873268945E+02  0.40972695928E+02  0.00000000000E+00 0. -1.
        -12    1    6    6    0    0  0.23054508205E+02 -0.24045888437E+02 -0.67178334500E+02  0.74984289858E+02  0.00000000000E+00 0.  1.
</event>
<event>
12    1  0.9028446E-003  0.2032345E+03  0.7818608E-02  0.1147308E+00
         21   -1    0    0  501  502  0.00000000000E+00  0.00000000000E+00  0.26211624621E+03  0.26211624621E+03  0.00000000000E+00 0. -1.
         21   -1    0    0  502  503 -0.00000000000E+00 -0.00000000000E+00 -0.17775948149E+03  0.17775948149E+03  0.00000000000E+00 0. -1.
          6    2    1    2  501    0  0.58001049690E+02  0.90341075655E+02  0.11822776994E+03  0.23512138672E+03  0.17256485503E+03 0.  0.
         24    2    3    3    0    0 -0.12593414550E+02 -0.37992230929E+01  0.33336173814E+02  0.89950290000E+02  0.82502884800E+02 0.  0.
         -6    2    1    2    0  503 -0.58001049690E+02 -0.90341075655E+02 -0.33871005210E+02  0.20475434098E+03  0.17103059212E+03 0.  0.
        -24    2    5    5    0    0 -0.34293903902E+02 -0.99548096809E+02 -0.76744690286E+02  0.15468398177E+03  0.83375603777E+02 0.  0.
          5    1    3    3  501    0  0.70594464240E+02  0.94140298748E+02  0.84891596125E+02  0.14517109672E+03  0.47000000000E+01 0. -1.
        -13    1    4    4    0    0  0.15501120159E+02 -0.17784158967E+02 -0.18073418448E+02  0.29718840669E+02  0.00000000000E+00 0.  1.
         14    1    4    4    0    0 -0.28094534709E+02  0.13984935874E+02  0.51409592262E+02  0.60231449331E+02  0.00000000000E+00 0. -1.
         -5    1    5    5    0  503 -0.23707145788E+02  0.92070211539E+01  0.42873685076E+02  0.50070359215E+02  0.47000000000E+01 0.  1.
         13    1    6    6    0    0  0.41871992355E+01 -0.93375810609E+02 -0.42001027296E+02  0.10247273266E+03  0.00000000000E+00 0. -1.
        -14    1    6    6    0    0 -0.38481103138E+02 -0.61722861996E+01 -0.34743662990E+02  0.52211249110E+02  0.00000000000E+00 0.  1.
</event>
<event>
12    1  0.9028446E-003  0.1814810E+03  0.7818608E-02  0.1167050E+00
         21   -1    0    0  501  502  0.00000000000E+00  0.00000000000E+00  0.13143265829E+03  0.13143265829E+03  0.00000000000E+00 0. -1.
         21   -1    0    0  502  503 -0.00000000000E+00 -0.00000000000E+00 -0.24750726541E+03  0.24750726541E+03  0.00000000000E+00 0.  1.
          6    2    1    2  501    0 -0.29846435909E+01 -0.49259263954E+02 -0.47145118275E+02  0.18480945709E+03  0.17174542227E+03 0.  0.
         24    2    3    3    0    0 -0.56536064637E+02  0.25950955370E+01 -0.49342836006E+02  0.11008630634E+03  0.80506013775E+02 0.  0.
         -6    2    1    2    0  503  0.29846435909E+01  0.49259263954E+02 -0.68929488842E+02  0.19413046661E+03  0.17464243599E+03 0.  0.
        -24    2    5    5    0    0 -0.29706743865E+02  0.46989660076E+02 -0.10580311465E+03  0.14457613081E+03  0.81347647454E+02 0.  0.
          5    1    3    3  501    0  0.53551421046E+02 -0.51854359491E+02  0.21977177310E+01  0.74723150747E+02  0.47000000000E+01 0. -1.
        -11    1    4    4    0    0  0.67217006359E+01 -0.12040361587E+02 -0.42637886290E+02  0.44812285300E+02  0.00000000000E+00 0.  1.
         12    1    4    4    0    0 -0.63257765273E+02  0.14635457124E+02 -0.67049497163E+01  0.65274021044E+02  0.00000000000E+00 0. -1.
         -5    1    5    5    0  503  0.32691387456E+02  0.22696038784E+01  0.36873625808E+02  0.49554335792E+02  0.47000000000E+01 0.  1.
         11    1    6    6    0    0 -0.28820946019E+02  0.69226021931E+02 -0.70998377117E+02  0.10326499211E+03  0.00000000000E+00 0. -1.
        -12    1    6    6    0    0 -0.88579784518E+00 -0.22236361855E+02 -0.34804737533E+02  0.41311138705E+02  0.00000000000E+00 0.  1.
</event>
<event>
12    1  0.9028446E-003  0.2054876E+03  0.7818608E-02  0.1145418E+00
         21   -1    0    0  501  502  0.00000000000E+00  0.00000000000E+00  0.55639252364E+03  0.55639252364E+03  0.00000000000E+00 0. -1.
         21   -1    0    0  502  503 -0.00000000000E+00 -0.00000000000E+00 -0.79651373667E+02  0.79651373667E+02  0.00000000000E+00 0.  1.
          6    2    1    2  501    0  0.43743027205E+02 -0.10004636909E+03  0.31054041150E+03  0.37175647826E+03  0.17275648630E+03 0.  0.
         24    2    3    3    0    0  0.78663543367E+02 -0.16668410817E+02  0.15444151739E+03  0.19131180220E+03  0.79260547529E+02 0.  0.
         -6    2    1    2    0  503 -0.43743027205E+02  0.10004636909E+03  0.16620073847E+03  0.26428741904E+03  0.17407592022E+03 0.  0.
        -24    2    5    5    0    0 -0.26675454118E+02  0.10488774038E+03  0.19082027574E+03  0.23357988670E+03  0.80213265138E+02 0.  0.
          5    1    3    3  501    0 -0.34920516162E+02 -0.83377958271E+02  0.15609889411E+03  0.18044467606E+03  0.47000000000E+01 0. -1.
        -13    1    4    4    0    0 -0.97729028736E+01 -0.90857945388E+01  0.18987020790E+00  0.13345311674E+02  0.00000000000E+00 0.  1.
         14    1    4    4    0    0  0.88436446241E+02 -0.75826162778E+01  0.15425164718E+03  0.17796649053E+03  0.00000000000E+00 0. -1.
         -5    1    5    5    0  503 -0.17067573087E+02 -0.48413712914E+01 -0.24619537270E+02  0.30707532341E+02  0.47000000000E+01 0.  1.
         11    1    6    6    0    0  0.17515564284E+02  0.13930113404E+02  0.82119733380E+02  0.85114591358E+02  0.00000000000E+00 0. -1.
        -12    1    6    6    0    0 -0.44191018402E+02  0.90957626975E+02  0.10870054236E+03  0.14846529535E+03  0.00000000000E+00 0.  1.
</event>
<event>
12    1  0.9028446E-003  0.2218090E+03  0.7818608E-02  0.1132608E+00
         21   -1    0    0  503  502  0.00000000000E+00  0.00000000000E+00  0.82119677005E+03  0.82119677005E+03  0.00000000000E+00 0.  1.
         21   -1    0    0  501  503 -0.00000000000E+00 -0.00000000000E+00 -0.69960758325E+02  0.69960758325E+02  0.00000000000E+00 0.  1.
          6    2    1    2  501    0 -0.13723515268E+03 -0.30385010898E+02  0.20566596771E+03  0.30222127018E+03  0.17112121392E+03 0.  0.
         24    2    3    3    0    0 -0.25956845266E+02  0.40518446031E+02  0.89601462096E+02  0.12642814924E+03  0.75100949564E+02 0.  0.
         -6    2    1    2    0  502  0.13723515268E+03  0.30385010898E+02  0.54557004401E+03  0.58893625820E+03  0.17158819097E+03 0.  0.
        -24    2    5    5    0    0  0.60949661257E+02 -0.45295538001E+02  0.21865687812E+03  0.24478319674E+03  0.79633134328E+02 0.  0.
          5    1    3    3  501    0 -0.11127830741E+03 -0.70903456930E+02  0.11606450562E+03  0.17579312094E+03  0.47000000000E+01 0. -1.
        -13    1    4    4    0    0 -0.51573525180E+02  0.36060421177E+02  0.58880583639E+02  0.86180656789E+02  0.00000000000E+00 0.  1.
         14    1    4    4    0    0  0.25616679913E+02  0.44580248546E+01  0.30720878457E+02  0.40247492450E+02  0.00000000000E+00 0. -1.
         -5    1    5    5    0  502  0.76285491422E+02  0.75680548899E+02  0.32691316589E+03  0.34415306146E+03  0.47000000000E+01 0.  1.
         11    1    6    6    0    0  0.22741158363E+02 -0.13346531980E+01  0.49906600681E+01  0.23320554684E+02  0.00000000000E+00 0. -1.
        -12    1    6    6    0    0  0.38208502894E+02 -0.43960884803E+02  0.21366621806E+03  0.22146264205E+03  0.00000000000E+00 0.  1.
</event>
<event>
12    1  0.9028446E-003  0.2160261E+03  0.7818608E-02  0.1137891E+00
         21   -1    0    0  501  502  0.00000000000E+00  0.00000000000E+00  0.66108595476E+03  0.66108595476E+03  0.00000000000E+00 0.  1.
         21   -1    0    0  502  503 -0.00000000000E+00 -0.00000000000E+00 -0.72812763085E+02  0.72812763085E+02  0.00000000000E+00 0.  1.
          6    2    1    2  501    0  0.93068944712E+02  0.90008440433E+02  0.38265613499E+03  0.43942347943E+03  0.17292752475E+03 0.  0.
         24    2    3    3    0    0  0.12266896440E+03  0.67630813639E+02  0.22496584006E+03  0.27735794189E+03  0.81830293628E+02 0.  0.
         -6    2    1    2    0  503 -0.93068944712E+02 -0.90008440433E+02  0.20561705669E+03  0.29447523841E+03  0.16635487434E+03 0.  0.
        -24    2    5    5    0    0 -0.53522994791E+02 -0.97236440808E+02  0.21292466891E+03  0.25334596245E+03  0.80793722950E+02 0.  0.
          5    1    3    3  501    0 -0.29600019683E+02  0.22377626793E+02  0.15769029492E+03  0.16206553754E+03  0.47000000000E+01 0. -1.
        -13    1    4    4    0    0  0.91359725349E+02  0.72944776206E+02  0.11934074252E+03  0.16706212203E+03  0.00000000000E+00 0.  1.
         14    1    4    4    0    0  0.31309239046E+02 -0.53139625669E+01  0.10562509755E+03  0.11029581986E+03  0.00000000000E+00 0. -1.
         -5    1    5    5    0  503 -0.39545949921E+02  0.72280003750E+01 -0.73076122205E+01  0.41129275959E+02  0.47000000000E+01 0.  1.
         13    1    6    6    0    0 -0.25265287717E+02 -0.17589122428E+02  0.81918905772E+01  0.31856224861E+02  0.00000000000E+00 0. -1.
        -14    1    6    6    0    0 -0.28257707075E+02 -0.79647318380E+02  0.20473277834E+03  0.22148973759E+03  0.00000000000E+00 0.  1.
</event>
<event>
12    1  0.9028446E-003  0.1769840E+03  0.7818608E-02  0.1170831E+00
         21   -1    0    0  501  502  0.00000000000E+00  0.00000000000E+00  0.12235652873E+03  0.12235652873E+03  0.00000000000E+00 0.  1.
         21   -1    0    0  502  503 -0.00000000000E+00 -0.00000000000E+00 -0.32755375260E+03  0.32755375260E+03  0.00000000000E+00 0.  1.
          6    2    1    2  501    0 -0.39831792112E+02  0.10497658520E+02  0.28015430512E+01  0.17700621645E+03  0.17212373317E+03 0.  0.
         24    2    3    3    0    0 -0.60564853448E+02 -0.31700587720E+02 -0.39306486942E+02  0.11371539557E+03  0.81933891272E+02 0.  0.
         -6    2    1    2    0  503  0.39831792112E+02 -0.10497658520E+02 -0.20799876692E+03  0.27290406488E+03  0.17180328603E+03 0.  0.
        -24    2    5    5    0    0 -0.22126232070E+02 -0.22004347782E+02 -0.43581734029E+02  0.96761363177E+02  0.80558254673E+02 0.  0.
          5    1    3    3  501    0  0.20733061336E+02  0.42198246240E+02  0.42108029993E+02  0.63290820883E+02  0.47000000000E+01 0. -1.
        -11    1    4    4    0    0  0.11181694142E+02 -0.29115881842E+02  0.13337033745E+01  0.31217681272E+02  0.00000000000E+00 0.  1.
         12    1    4    4    0    0 -0.71746547589E+02 -0.25847058786E+01 -0.40640190316E+02  0.82497714298E+02  0.00000000000E+00 0. -1.
         -5    1    5    5    0  503  0.61958024182E+02  0.11506689262E+02 -0.16441703290E+03  0.17614270171E+03  0.47000000000E+01 0.  1.
         13    1    6    6    0    0 -0.39332336905E+02 -0.10121069042E+02  0.77386574417E+01  0.41344353713E+02  0.00000000000E+00 0. -1.
        -14    1    6    6    0    0  0.17206104835E+02 -0.11883278740E+02 -0.51320391471E+02  0.55417009464E+02  0.00000000000E+00 0.  1.
</event>
<event>
12    1  0.9028446E-003  0.1801800E+03  0.7818608E-02  0.1167758E+00
         21   -1    0    0  503  502  0.00000000000E+00  0.00000000000E+00  0.14245570265E+03  0.14245570265E+03  0.00000000000E+00 0.  1.
         21   -1    0    0  501  503 -0.00000000000E+00 -0.00000000000E+00 -0.28288023507E+03  0.28288023507E+03  0.00000000000E+00 0.  1.
          6    2    1    2  501    0 -0.53613333502E+02 -0.80898413576E+01 -0.16446257702E+03  0.24355958338E+03  0.17127024363E+03 0.  0.
         24    2    3    3    0    0 -0.29549050463E+01 -0.52112578447E+02 -0.14531524912E+03  0.17360968760E+03  0.79368442752E+02 0.  0.
         -6    2    1    2    0  502  0.53613333502E+02  0.80898413576E+01  0.24038044598E+02  0.18177635434E+03  0.17182834558E+03 0.  0.
        -24    2    5    5    0    0  0.82019174748E+02 -0.14082470482E+01 -0.34180184593E+02  0.11613674960E+03  0.74768518791E+02 0.  0.
          5    1    3    3  501    0 -0.50658428456E+02  0.44022737090E+02 -0.19147327908E+02  0.69949895786E+02  0.47000000000E+01 0. -1.
        -11    1    4    4    0    0 -0.64353598991E+01  0.19642109036E+02 -0.51162885202E+02  0.55180314666E+02  0.00000000000E+00 0.  1.
         12    1    4    4    0    0  0.34804548528E+01 -0.71754687483E+02 -0.94152363915E+02  0.11842937293E+03  0.00000000000E+00 0. -1.
         -5    1    5    5    0  502 -0.28405841246E+02  0.94980884059E+01  0.58218229190E+02  0.65639604739E+02  0.47000000000E+01 0.  1.
         13    1    6    6    0    0  0.39368403522E+02  0.36615380288E+02 -0.18907572815E+02  0.56991697459E+02  0.00000000000E+00 0. -1.
        -14    1    6    6    0    0  0.42650771226E+02 -0.38023627336E+02 -0.15272611778E+02  0.59145052138E+02  0.00000000000E+00 0.  1.
</event>
<event>
12    1  0.9028446E-003  0.2782654E+03  0.7818608E-02  0.1097128E+00
         21   -1    0    0  503  502  0.00000000000E+00  0.00000000000E+00  0.38572120259E+03  0.38572120259E+03  0.00000000000E+00 0.  1.
         21   -1    0    0  501  503 -0.00000000000E+00 -0.00000000000E+00 -0.28567945961E+03  0.28567945961E+03  0.00000000000E+00 0.  1.
          6    2    1    2  501    0  0.16662711144E+03 -0.13856262587E+03 -0.13550566864E+03  0.30950515000E+03  0.17454929416E+03 0.  0.
         24    2    3    3    0    0  0.43467290542E+02 -0.50610943123E+02 -0.11760450866E+03  0.15703750914E+03  0.79869179979E+02 0.  0.
         -6    2    1    2    0  502 -0.16662711144E+03  0.13856262587E+03  0.23554741161E+03  0.36189551220E+03  0.16888334162E+03 0.  0.
        -24    2    5    5    0    0 -0.16807407061E+03  0.62458237773E+02  0.19102478532E+03  0.27358738216E+03  0.78801411119E+02 0.  0.
          5    1    3    3  501    0  0.12315982090E+03 -0.87951682744E+02 -0.17901159981E+02  0.15246764086E+03  0.47000000000E+01 0. -1.
        -13    1    4    4    0    0  0.41383566026E+02 -0.28994399804E+01 -0.96080784362E+02  0.10465430432E+03  0.00000000000E+00 0.  1.
         14    1    4    4    0    0  0.20837245164E+01 -0.47711503142E+02 -0.21523724297E+02  0.52383204823E+02  0.00000000000E+00 0. -1.
         -5    1    5    5    0  502  0.14469591710E+01  0.76104388094E+02  0.44522626296E+02  0.88308130035E+02  0.47000000000E+01 0.  1.
         11    1    6    6    0    0 -0.32864874004E+01  0.16171747602E+02 -0.77214368493E+00  0.16520370027E+02  0.00000000000E+00 0. -1.
        -12    1    6    6    0    0 -0.16478758321E+03  0.46286490171E+02  0.19179692900E+03  0.25706701213E+03  0.00000000000E+00 0.  1.
</event>
<event>
12    1  0.9028446E-003  0.4687709E+03  0.7818608E-02  0.1022376E+00
         21   -1    0    0  501  502  0.00000000000E+00  0.00000000000E+00  0.59326361742E+03  0.59326361742E+03  0.00000000000E+00 0.  1.
         21   -1    0    0  502  503 -0.00000000000E+00 -0.00000000000E+00 -0.37986543334E+03  0.37986543334E+03  0.00000000000E+00 0. -1.
          6    2    1    2  501    0  0.36436050439E+03 -0.23662060530E+03  0.24978958326E+02  0.46790838600E+03  0.17194889159E+03 0.  0.
         24    2    3    3    0    0  0.86095670265E+02 -0.11841436898E+03 -0.64636555137E+01  0.16391042519E+03  0.73419489395E+02 0.  0.
         -6    2    1    2    0  503 -0.36436050439E+03  0.23662060530E+03  0.18841922575E+03  0.50522066476E+03  0.17606313487E+03 0.  0.
        -24    2    5    5    0    0 -0.30318985267E+03  0.24429745854E+03  0.19326425291E+03  0.44320174027E+03  0.86437122312E+02 0.  0.
          5    1    3    3  501    0  0.27826483412E+03 -0.11820623632E+03  0.31442613839E+02  0.30399796081E+03  0.47000000000E+01 0. -1.
        -11    1    4    4    0    0  0.78012807967E+02 -0.12855879231E+03 -0.26886077498E+01  0.15040142917E+03  0.00000000000E+00 0.  1.
         12    1    4    4    0    0  0.80828622983E+01  0.10144423328E+02 -0.37750477640E+01  0.13508996011E+02  0.00000000000E+00 0. -1.
         -5    1    5    5    0  503 -0.61170651717E+02 -0.76768532421E+01 -0.48450271545E+01  0.62018924493E+02  0.47000000000E+01 0.  1.
         13    1    6    6    0    0 -0.37759226349E+02  0.13036562646E+02 -0.31529211757E+01  0.40070588366E+02  0.00000000000E+00 0. -1.
        -14    1    6    6    0    0 -0.26543062632E+03  0.23126089589E+03  0.19641717408E+03  0.40313115190E+03  0.00000000000E+00 0.  1.
</event>
<event>
12    1  0.9028446E-003  0.2260426E+03  0.7818608E-02  0.1129804E+00
         21   -1    0    0  503  502  0.00000000000E+00  0.00000000000E+00  0.36898507624E+03  0.36898507624E+03  0.00000000000E+00 0.  1.
         21   -1    0    0  501  503 -0.00000000000E+00 -0.00000000000E+00 -0.14425518389E+03  0.14425518389E+03  0.00000000000E+00 0.  1.
          6    2    1    2  501    0  0.14314377162E+03 -0.67404024877E+01  0.55566212560E+02  0.23090785786E+03  0.17232313386E+03 0.  0.
         24    2    3    3    0    0  0.23303218481E+01 -0.20891395746E+02  0.15719844050E+02  0.83807547425E+02  0.79590895788E+02 0.  0.
         -6    2    1    2    0  502 -0.14314377162E+03  0.67404024877E+01  0.16916367979E+03  0.28233240226E+03  0.17481322155E+03 0.  0.
        -24    2    5    5    0    0 -0.32589580913E+02  0.57867312872E+02  0.76902769015E+02  0.12945874297E+03  0.80217352032E+02 0.  0.
          5    1    3    3  501    0  0.14081344977E+03  0.14150993258E+02  0.39846368510E+02  0.14710031044E+03  0.47000000000E+01 0. -1.
        -11    1    4    4    0    0 -0.52677374100E+01 -0.17928844007E+02  0.47475869675E+02  0.51021080998E+02  0.00000000000E+00 0.  1.
         12    1    4    4    0    0  0.75980592581E+01 -0.29625517393E+01 -0.31756025624E+02  0.32786466427E+02  0.00000000000E+00 0. -1.
         -5    1    5    5    0  502 -0.11055419071E+03 -0.51126910385E+02  0.92260910771E+02  0.15287365929E+03  0.47000000000E+01 0.  1.
         13    1    6    6    0    0  0.25168111985E+02  0.15362740738E+02  0.93328986957E+01  0.30928153225E+02  0.00000000000E+00 0. -1.
        -14    1    6    6    0    0 -0.57757692898E+02  0.42504572134E+02  0.67569870320E+02  0.98530589749E+02  0.00000000000E+00 0.  1.
</event>
<event>
12    1  0.9028446E-003  0.1898167E+03  0.7818608E-02  0.1159328E+00
         21   -1    0    0  501  502  0.00000000000E+00  0.00000000000E+00  0.10878106785E+04  0.10878106785E+04  0.00000000000E+00 0.  1.
         21   -1    0    0  502  503 -0.00000000000E+00 -0.00000000000E+00 -0.34824718118E+02  0.34824718118E+02  0.00000000000E+00 0.  1.
          6    2    1    2  501    0  0.39722440801E+02 -0.68706519033E+02  0.66475851998E+03  0.69048849564E+03  0.16903258465E+03 0.  0.
         24    2    3    3    0    0 -0.16108239315E+02 -0.24826642382E+02  0.54240381880E+03  0.54894249140E+03  0.79120911707E+02 0.  0.
         -6    2    1    2    0  503 -0.39722440801E+02  0.68706519033E+02  0.38822744041E+03  0.43214690098E+03  0.17242952322E+03 0.  0.
        -24    2    5    5    0    0  0.28737243815E+02  0.81129514556E+02  0.21356384022E+03  0.24407637574E+03  0.80968734876E+02 0.  0.
          5    1    3    3  501    0  0.55830680117E+02 -0.43879876652E+02  0.12235470118E+03  0.14154600425E+03  0.47000000000E+01 0. -1.
        -13    1    4    4    0    0  0.29224035748E+02 -0.14115497702E+02  0.32430741327E+03  0.32592727693E+03  0.00000000000E+00 0.  1.
         14    1    4    4    0    0 -0.45332275063E+02 -0.10711144679E+02  0.21809640552E+03  0.22301521447E+03  0.00000000000E+00 0. -1.
         -5    1    5    5    0  503 -0.68459684617E+02 -0.12422995523E+02  0.17466360019E+03  0.18807052525E+03  0.47000000000E+01 0.  1.
         11    1    6    6    0    0  0.47304437356E+02  0.44255866155E+02  0.17856896422E+03  0.18995569606E+03  0.00000000000E+00 0. -1.
        -12    1    6    6    0    0 -0.18567193541E+02  0.36873648401E+02  0.34994876009E+02  0.54120679682E+02  0.00000000000E+00 0.  1.
</event>
<event>
12    1  0.9028446E-003  0.1715488E+03  0.7818608E-02  0.1176406E+00
         21   -1    0    0  503  502  0.00000000000E+00  0.00000000000E+00  0.63544648046E+03  0.63544648046E+03  0.00000000000E+00 0.  1.
         21   -1    0    0  501  503 -0.00000000000E+00 -0.00000000000E+00 -0.60516251603E+02  0.60516251603E+02  0.00000000000E+00 0.  1.
          6    2    1    2  501    0 -0.10916687535E+02 -0.36179236989E+01  0.11827119672E+03  0.20836765324E+03  0.17116290342E+03 0.  0.
         24    2    3    3    0    0 -0.62774523131E+02 -0.18253258909E+02  0.45746947873E+02  0.11789508934E+03  0.86790821146E+02 0.  0.
         -6    2    1    2    0  502  0.10916687535E+02  0.36179236989E+01  0.45665903214E+03  0.48759507882E+03  0.17052632000E+03 0.  0.
        -24    2    5    5    0    0 -0.73253332395E+01  0.23223122545E+02  0.10210146341E+03  0.13199657673E+03  0.80033827285E+02 0.  0.
          5    1    3    3  501    0  0.51857835596E+02  0.14635335210E+02  0.72524248842E+02  0.90472563905E+02  0.47000000000E+01 0. -1.
        -11    1    4    4    0    0 -0.42337564750E+02 -0.46349755797E+02  0.30513173947E+01  0.62849660216E+02  0.00000000000E+00 0.  1.
         12    1    4    4    0    0 -0.20436958381E+02  0.28096496889E+02  0.42695630478E+02  0.55045429122E+02  0.00000000000E+00 0. -1.
         -5    1    5    5    0  502  0.18242020774E+02 -0.19605198846E+02  0.35455756873E+03  0.35559850209E+03  0.47000000000E+01 0.  1.
         11    1    6    6    0    0  0.21855770905E+02  0.43115646306E+02  0.58646924927E+02  0.76000628166E+02  0.00000000000E+00 0. -1.
        -12    1    6    6    0    0 -0.29181104145E+02 -0.19892523761E+02  0.43454538482E+02  0.55995948562E+02  0.00000000000E+00 0.  1.
</event>
<event>
12    1  0.9028446E-003  0.4021581E+03  0.7818608E-02  0.1043596E+00
         21   -1    0    0  501  502  0.00000000000E+00  0.00000000000E+00  0.16172578885E+03  0.16172578885E+03  0.00000000000E+00 0.  1.
         21   -1    0    0  502  503 -0.00000000000E+00 -0.00000000000E+00 -0.98427689480E+03  0.98427689480E+03  0.00000000000E+00 0.  1.
          6    2    1    2  501    0 -0.34360549482E+03  0.95711527195E+02 -0.39876228273E+03  0.56176976661E+03  0.17131398088E+03 0.  0.
         24    2    3    3    0    0 -0.35790045078E+03  0.98810780554E+02 -0.38428665669E+03  0.54066088491E+03  0.82350804120E+02 0.  0.
         -6    2    1    2    0  503  0.34360549482E+03 -0.95711527195E+02 -0.42378882322E+03  0.58423291703E+03  0.18575710523E+03 0.  0.
        -24    2    5    5    0    0  0.72093248675E+02 -0.60676108563E+02 -0.16136161480E+03  0.20497507587E+03  0.84250723080E+02 0.  0.
          5    1    3    3  501    0  0.14294955966E+02 -0.30992533592E+01 -0.14475626039E+02  0.21108881701E+02  0.47000000000E+01 0. -1.
        -11    1    4    4    0    0 -0.24583707194E+03  0.98972924926E+02 -0.30098366657E+03  0.40102702322E+03  0.00000000000E+00 0.  1.
         12    1    4    4    0    0 -0.11206337885E+03 -0.16214437251E+00 -0.83302990116E+02  0.13963386169E+03  0.00000000000E+00 0. -1.
         -5    1    5    5    0  503  0.27151224614E+03 -0.35035418632E+02 -0.26242720842E+03  0.37925784116E+03  0.47000000000E+01 0.  1.
         11    1    6    6    0    0  0.48503233312E+02 -0.17253012204E+02 -0.14345697138E+03  0.15241434548E+03  0.00000000000E+00 0. -1.
        -12    1    6    6    0    0  0.23590015363E+02 -0.43423096358E+02 -0.17904643424E+02  0.52560730382E+02  0.00000000000E+00 0.  1.
</event>
<event>
12    1  0.9028446E-003  0.1818304E+03  0.7818608E-02  0.1166075E+00
         21   -1    0    0  501  502  0.00000000000E+00  0.00000000000E+00  0.13226185169E+03  0.13226185169E+03  0.00000000000E+00 0. -1.
         21   -1    0    0  502  503 -0.00000000000E+00 -0.00000000000E+00 -0.28638366126E+03  0.28638366126E+03  0.00000000000E+00 0.  1.
          6    2    1    2  501    0 -0.76757448486E+01 -0.56376241421E+02 -0.22627102652E+01  0.18184446605E+03  0.17269942767E+03 0.  0.
         24    2    3    3    0    0  0.54837545689E+02 -0.52126680245E+00 -0.14325368320E+02  0.97019426094E+02  0.78740870746E+02 0.  0.
         -6    2    1    2    0  503  0.76757448486E+01  0.56376241421E+02 -0.15185909930E+03  0.23680104691E+03  0.17255825718E+03 0.  0.
        -24    2    5    5    0    0 -0.15862207347E+02  0.77653156653E+02 -0.16684520029E+03  0.20139743780E+03  0.80261975624E+02 0.  0.
          5    1    3    3  501    0 -0.62513290538E+02 -0.55854974618E+02  0.12062658055E+02  0.84825039952E+02  0.47000000000E+01 0. -1.
        -11    1    4    4    0    0 -0.35114668945E+01  0.24829956472E+02 -0.21455262841E+02  0.33002809604E+02  0.00000000000E+00 0.  1.
         12    1    4    4    0    0  0.58349012584E+02 -0.25351223275E+02  0.71298945215E+01  0.64016616491E+02  0.00000000000E+00 0. -1.
         -5    1    5    5    0  503  0.23537952196E+02 -0.21276915232E+02  0.14986100989E+02  0.35403609113E+02  0.47000000000E+01 0.  1.
         13    1    6    6    0    0 -0.46413876221E+02  0.27804748808E+02 -0.86598453098E+02  0.10211093987E+03  0.00000000000E+00 0. -1.
        -14    1    6    6    0    0  0.30551668874E+02  0.49848407845E+02 -0.80246747191E+02  0.99286497926E+02  0.00000000000E+00 0.  1.
</event>
<event>
12    1  0.9028446E-003  0.2231724E+03  0.7818608E-02  0.1131677E+00
         21   -1    0    0  501  502  0.00000000000E+00  0.00000000000E+00  0.11987778923E+03  0.11987778923E+03  0.00000000000E+00 0. -1.
         21   -1    0    0  502  503 -0.00000000000E+00 -0.00000000000E+00 -0.44812110937E+03  0.44812110937E+03  0.00000000000E+00 0.  1.
          6    2    1    2  501    0  0.72679403594E+02  0.12044959913E+03 -0.24214001383E+03  0.32879245727E+03  0.17228549568E+03 0.  0.
         24    2    3    3    0    0 -0.16564749159E+02  0.19017718026E+02 -0.59546668513E+02  0.10160230551E+03  0.78365542425E+02 0.  0.
         -6    2    1    2    0  503 -0.72679403594E+02 -0.12044959913E+03 -0.86103306318E+02  0.23920644133E+03  0.17324993673E+03 0.  0.
        -24    2    5    5    0    0 -0.75726809100E+02 -0.10460283945E+03 -0.12440578783E+03  0.19737850135E+03  0.82493448896E+02 0.  0.
          5    1    3    3  501    0  0.89244152752E+02  0.10143188111E+03 -0.18259334532E+03  0.22719015176E+03  0.47000000000E+01 0. -1.
        -11    1    4    4    0    0  0.20065117514E+02 -0.11718749503E+02 -0.46586498594E+02  0.52059964292E+02  0.00000000000E+00 0.  1.
         12    1    4    4    0    0 -0.36629866673E+02  0.30736467530E+02 -0.12960169919E+02  0.49542341214E+02  0.00000000000E+00 0. -1.
         -5    1    5    5    0  503  0.30474055061E+01 -0.15846759682E+02  0.38302481515E+02  0.41827939979E+02  0.47000000000E+01 0.  1.
         11    1    6    6    0    0 -0.84906717095E+02 -0.51412335449E+02 -0.80859840958E+02  0.12802614078E+03  0.00000000000E+00 0. -1.
        -12    1    6    6    0    0  0.91799079951E+01 -0.53190504001E+02 -0.43545946874E+02  0.69352360565E+02  0.00000000000E+00 0.  1.
</event>
<event>
12    1  0.9028446E-003  0.2059228E+03  0.7818608E-02  0.1145169E+00
         21   -1    0    0  501  502  0.00000000000E+00  0.00000000000E+00  0.17996031107E+04  0.17996031107E+04  0.00000000000E+00 0. -1.
         21   -1    0    0  502  503 -0.00000000000E+00 -0.00000000000E+00 -0.23658954225E+02  0.23658954225E+02  0.00000000000E+00 0.  1.
          6    2    1    2  501    0 -0.10937897309E+03  0.92282080880E+01  0.98405956729E+03  0.10050411890E+04  0.17229521197E+03 0.  0.
         24    2    3    3    0    0  0.23777922087E+02 -0.15516752643E+02  0.31514623895E+03  0.32253829331E+03  0.62511115307E+02 0.  0.
         -6    2    1    2    0  503  0.10937897309E+03 -0.92282080880E+01  0.79188458915E+03  0.81822087588E+03  0.17422766602E+03 0.  0.
        -24    2    5    5    0    0  0.58868392147E+02 -0.31430921021E+02  0.71917927976E+03  0.72682923916E+03  0.81292779939E+02 0.  0.
          5    1    3    3  501    0 -0.13315689517E+03  0.24744960731E+02  0.66891332834E+03  0.68250289570E+03  0.47000000000E+01 0. -1.
        -11    1    4    4    0    0  0.14567517398E+02  0.23546350737E+02  0.15400894239E+03  0.15647810560E+03  0.00000000000E+00 0.  1.
         12    1    4    4    0    0  0.92104046892E+01 -0.39063103380E+02  0.16113729656E+03  0.16606018771E+03  0.00000000000E+00 0. -1.
         -5    1    5    5    0  503  0.50510580938E+02  0.22202712933E+02  0.72705309396E+02  0.91391636721E+02  0.47000000000E+01 0.  1.
         13    1    6    6    0    0 -0.72341336348E+01  0.14840507455E+02  0.26680197131E+03  0.26731229909E+03  0.00000000000E+00 0. -1.
        -14    1    6    6    0    0  0.66102525782E+02 -0.46271428476E+02  0.45237730844E+03  0.45951694006E+03  0.00000000000E+00 0.  1.
</event>
<event>
12    1  0.9028446E-003  0.1889107E+03  0.7818608E-02  0.1160642E+00
         21   -1    0    0  501  502  0.00000000000E+00  0.00000000000E+00  0.40749862921E+03  0.40749862921E+03  0.00000000000E+00 0.  1.
         21   -1    0    0  502  503 -0.00000000000E+00 -0.00000000000E+00 -0.14227646414E+03  0.14227646414E+03  0.00000000000E+00 0.  1.
          6    2    1    2  501    0 -0.64798756280E+02 -0.42148353947E+02  0.30561840297E+03  0.35659350924E+03  0.16667621319E+03 0.  0.
         24    2    3    3    0    0  0.12105872706E+01  0.31431726125E+02  0.11743576392E+03  0.14397634799E+03  0.77127240351E+02 0.  0.
         -6    2    1    2    0  503  0.64798756280E+02  0.42148353947E+02 -0.40396237904E+02  0.19318158411E+03  0.17237141830E+03 0.  0.
        -24    2    5    5    0    0  0.76407765288E+02  0.83481002246E+02 -0.71567763934E+01  0.13868288039E+03  0.79840450485E+02 0.  0.
          5    1    3    3  501    0 -0.66009343551E+02 -0.73580080072E+02  0.18818263905E+03  0.21261716125E+03  0.47000000000E+01 0. -1.
        -11    1    4    4    0    0 -0.51521017779E+01  0.40268092045E+02  0.12453023985E+03  0.13098031923E+03  0.00000000000E+00 0.  1.
         12    1    4    4    0    0  0.63626890485E+01 -0.88363659198E+01 -0.70944759324E+01  0.12996028753E+02  0.00000000000E+00 0. -1.
         -5    1    5    5    0  503 -0.11609009008E+02 -0.41332648299E+02 -0.33239461511E+02  0.54498703719E+02  0.47000000000E+01 0.  1.
         13    1    6    6    0    0  0.80923562255E+02  0.71800645579E+02  0.18853127684E+02  0.10981528153E+03  0.00000000000E+00 0. -1.
        -14    1    6    6    0    0 -0.45157969676E+01  0.11680356667E+02 -0.26009904077E+02  0.28867598865E+02  0.00000000000E+00 0.  1.
</event>
<event>
12    1  0.9028446E-003  0.2146896E+03  0.7818608E-02  0.1138164E+00
         21   -1    0    0  503  502  0.00000000000E+00  0.00000000000E+00  0.11086631585E+03  0.11086631585E+03  0.00000000000E+00 0. -1.
         21   -1    0    0  501  503 -0.00000000000E+00 -0.00000000000E+00 -0.42011077103E+03  0.42011077103E+03  0.00000000000E+00 0.  1.
          6    2    1    2  501    0 -0.45595976229E+02  0.11995822566E+03 -0.12093156597E+03  0.24640628436E+03  0.17211230163E+03 0.  0.
         24    2    3    3    0    0  0.23335788981E+02  0.11850549296E+03 -0.91152117166E+02  0.17115600690E+03  0.79984744313E+02 0.  0.
         -6    2    1    2    0  502  0.45595976229E+02 -0.11995822566E+03 -0.18831288921E+03  0.28457080252E+03  0.17044010224E+03 0.  0.
        -24    2    5    5    0    0 -0.26458834670E+02 -0.11180982131E+03 -0.13363176744E+03  0.19362902254E+03  0.80207499823E+02 0.  0.
          5    1    3    3  501    0 -0.68931765210E+02  0.14527326997E+01 -0.29779448805E+02  0.75250277464E+02  0.47000000000E+01 0. -1.
        -13    1    4    4    0    0  0.88279676959E+01  0.66702440625E+02 -0.95901520033E+02  0.11715054479E+03  0.00000000000E+00 0.  1.
         14    1    4    4    0    0  0.14507821285E+02  0.51803052340E+02  0.47494028674E+01  0.54005462111E+02  0.00000000000E+00 0. -1.
         -5    1    5    5    0  502  0.72054810899E+02 -0.81484043548E+01 -0.54681121762E+02  0.90941779972E+02  0.47000000000E+01 0.  1.
         13    1    6    6    0    0 -0.43762986162E+02 -0.97882049913E+02 -0.13374329533E+03  0.17141576269E+03  0.00000000000E+00 0. -1.
        -14    1    6    6    0    0  0.17304151492E+02 -0.13927771396E+02  0.11152788389E+00  0.22213259855E+02  0.00000000000E+00 0.  1.
</event>
<event>
12    1  0.9028446E-003  0.2109038E+03  0.7818608E-02  0.1141215E+00
         21   -1    0    0  501  502  0.00000000000E+00  0.00000000000E+00  0.68656504015E+03  0.68656504015E+03  0.00000000000E+00 0. -1.
         21   -1    0    0  502  503 -0.00000000000E+00 -0.00000000000E+00 -0.65144541569E+02  0.65144541569E+02  0.00000000000E+00 0. -1.
          6    2    1    2  501    0  0.11336649322E+03 -0.41521062356E+02  0.35401836231E+03  0.41114490262E+03  0.17069027416E+03 0.  0.
         24    2    3    3    0    0  0.40860429728E+02  0.36295840963E+02  0.11935904482E+03  0.15346353936E+03  0.79482787725E+02 0.  0.
         -6    2    1    2    0  503 -0.11336649322E+03  0.41521062356E+02  0.26740213626E+03  0.34056467909E+03  0.17292899630E+03 0.  0.
        -24    2    5    5    0    0 -0.13910977883E+03  0.23434529523E+02  0.26047573420E+03  0.30800850503E+03  0.84385563494E+02 0.  0.
          5    1    3    3  501    0  0.72506063493E+02 -0.77816903318E+02  0.23465931749E+03  0.25768136326E+03  0.47000000000E+01 0. -1.
        -13    1    4    4    0    0  0.27980443644E+02  0.11618715238E+02  0.12180850565E+03  0.12551976664E+03  0.00000000000E+00 0.  1.
         14    1    4    4    0    0  0.12879986084E+02  0.24677125725E+02 -0.24494608236E+01  0.27943772721E+02  0.00000000000E+00 0. -1.
         -5    1    5    5    0  503  0.25743285606E+02  0.18086532833E+02  0.69264020616E+01  0.32556174057E+02  0.47000000000E+01 0.  1.
         13    1    6    6    0    0 -0.10142137342E+03  0.50891204882E+02  0.14992194615E+03  0.18802340189E+03  0.00000000000E+00 0. -1.
        -14    1    6    6    0    0 -0.37688405407E+02 -0.27456675360E+02  0.11055378805E+03  0.11998510315E+03  0.00000000000E+00 0.  1.
</event>
<event>
12    1  0.9028446E-003  0.2301998E+03  0.7818608E-02  0.1127670E+00
         21   -1    0    0  503  502  0.00000000000E+00  0.00000000000E+00  0.42872238253E+03  0.42872238253E+03  0.00000000000E+00 0.  1.
         21   -1    0    0  501  503 -0.00000000000E+00 -0.00000000000E+00 -0.12040836211E+03  0.12040836211E+03  0.00000000000E+00 0.  1.
          6    2    1    2  501    0  0.43601098806E+02 -0.13619054509E+03  0.17009761293E+03  0.28622569596E+03  0.18039687002E+03 0.  0.
         24    2    3    3    0    0  0.36287638020E+02 -0.17253933080E+03  0.14453256050E+03  0.24094454274E+03  0.77961517965E+02 0.  0.
         -6    2    1    2    0  502 -0.43601098806E+02  0.13619054509E+03  0.13821640749E+03  0.26290504869E+03  0.17194873927E+03 0.  0.
        -24    2    5    5    0    0  0.14881900751E+02  0.99781100948E+02  0.30128422938E+02  0.13464355305E+03  0.83925118001E+02 0.  0.
          5    1    3    3  501    0  0.73134607863E+01  0.36348785712E+02  0.25565052428E+02  0.45281153221E+02  0.47000000000E+01 0. -1.
        -11    1    4    4    0    0  0.17820231949E+01 -0.69931691422E+02  0.10402722469E+03  0.12536060206E+03  0.00000000000E+00 0.  1.
         12    1    4    4    0    0  0.34505614825E+02 -0.10260763938E+03  0.40505335809E+02  0.11558394068E+03  0.00000000000E+00 0. -1.
         -5    1    5    5    0  502 -0.58482999558E+02  0.36409444142E+02  0.10808798455E+03  0.12826149564E+03  0.47000000000E+01 0.  1.
         13    1    6    6    0    0  0.17397192538E+02  0.27443769793E+02  0.49957883786E+02  0.59595410570E+02  0.00000000000E+00 0. -1.
        -14    1    6    6    0    0 -0.25152917867E+01  0.72337331156E+02 -0.19829460848E+02  0.75048142476E+02  0.00000000000E+00 0.  1.
</event>
<event>
12    1  0.9028446E-003  0.1902499E+03  0.7818608E-02  0.1158876E+00
         21   -1    0    0  501  502  0.00000000000E+00  0.00000000000E+00  0.10980104585E+03  0.10980104585E+03  0.00000000000E+00 0.  1.
         21   -1    0    0  502  503 -0.00000000000E+00 -0.00000000000E+00 -0.32744156890E+03  0.32744156890E+03  0.00000000000E+00 0.  1.
          6    2    1    2  501    0  0.12386785955E+01 -0.73633037714E+02 -0.12775193604E+03  0.22682644319E+03  0.17235521345E+03 0.  0.
         24    2    3    3    0    0 -0.42169666684E+02  0.74088176576E+01 -0.38465370682E+02  0.98583519352E+02  0.80037204966E+02 0.  0.
         -6    2    1    2    0  503 -0.12386785955E+01  0.73633037714E+02 -0.89888587010E+02  0.21041617155E+03  0.17541849563E+03 0.  0.
        -24    2    5    5    0    0 -0.34307124299E+02  0.90351199649E+02 -0.14402741832E+02  0.12619490428E+03  0.79858605281E+02 0.  0.
          5    1    3    3  501    0  0.43408345279E+02 -0.81041855372E+02 -0.89286565356E+02  0.12824292384E+03  0.47000000000E+01 0. -1.
        -13    1    4    4    0    0 -0.36265169356E+00 -0.23802348186E+02  0.11417317878E+02  0.26401485620E+02  0.00000000000E+00 0.  1.
         14    1    4    4    0    0 -0.41807014990E+02  0.31211165843E+02 -0.49882688560E+02  0.72182033732E+02  0.00000000000E+00 0. -1.
         -5    1    5    5    0  503  0.33068445703E+02 -0.16718161934E+02 -0.75485845178E+02  0.84221267278E+02  0.47000000000E+01 0.  1.
         13    1    6    6    0    0  0.17719430883E+02  0.32385872143E+02  0.18913481465E+02  0.41479425338E+02  0.00000000000E+00 0. -1.
        -14    1    6    6    0    0 -0.52026555182E+02  0.57965327505E+02 -0.33316223296E+02  0.84715478938E+02  0.00000000000E+00 0.  1.
</event>
<event>
12    1  0.9028446E-003  0.2600850E+03  0.7818608E-02  0.1107400E+00
         21   -1    0    0  501  502  0.00000000000E+00  0.00000000000E+00  0.27070257905E+03  0.27070257905E+03  0.00000000000E+00 0.  1.
         21   -1    0    0  502  503 -0.00000000000E+00 -0.00000000000E+00 -0.25541958976E+03  0.25541958976E+03  0.00000000000E+00 0.  1.
          6    2    1    2  501    0  0.11056795426E+03 -0.16068283683E+03  0.52669540971E+02  0.26336379218E+03  0.16894425093E+03 0.  0.
         24    2    3    3    0    0  0.11580501226E+03 -0.53752848252E+02  0.14912450060E+02  0.14974540833E+03  0.76818855686E+02 0.  0.
         -6    2    1    2    0  503 -0.11056795426E+03  0.16068283683E+03 -0.37386551678E+02  0.26275837663E+03  0.17204639979E+03 0.  0.
        -24    2    5    5    0    0 -0.16299418107E+02  0.12423381919E+03  0.13817344706E+02  0.14936077172E+03  0.80112472507E+02 0.  0.
          5    1    3    3  501    0 -0.52370580042E+01 -0.10692998858E+03  0.37757090911E+02  0.11361838385E+03  0.47000000000E+01 0. -1.
        -13    1    4    4    0    0  0.82431356387E+02 -0.10254810058E+02  0.36617283027E+02  0.90779485906E+02  0.00000000000E+00 0.  1.
         14    1    4    4    0    0  0.33373655876E+02 -0.43498038194E+02 -0.21704832967E+02  0.58965922424E+02  0.00000000000E+00 0. -1.
         -5    1    5    5    0  503 -0.94268536151E+02  0.36449017642E+02 -0.51203896384E+02  0.11339760491E+03  0.47000000000E+01 0.  1.
         11    1    6    6    0    0 -0.46706320969E+02  0.87175007402E+02 -0.18881332918E+01  0.98916769970E+02  0.00000000000E+00 0. -1.
        -12    1    6    6    0    0  0.30406902862E+02  0.37058811790E+02  0.15705477998E+02  0.50444001746E+02  0.00000000000E+00 0.  1.
</event>
<event>
12    1  0.9028446E-003  0.1894571E+03  0.7818608E-02  0.1159641E+00
         21   -1    0    0  501  502  0.00000000000E+00  0.00000000000E+00  0.92404032767E+02  0.92404032767E+02  0.00000000000E+00 0. -1.
         21   -1    0    0  502  503 -0.00000000000E+00 -0.00000000000E+00 -0.60547423015E+03  0.60547423015E+03  0.00000000000E+00 0. -1.
          6    2    1    2  501    0 -0.25282731023E+02  0.74710005346E+02 -0.45983038049E+02  0.19495749240E+03  0.17225905686E+03 0.  0.
         24    2    3    3    0    0 -0.68484795582E+02 -0.56907676937E+00 -0.29686557930E+02  0.10652093972E+03  0.75992945741E+02 0.  0.
         -6    2    1    2    0  503  0.25282731023E+02 -0.74710005346E+02 -0.46708715933E+03  0.50292077051E+03  0.16893219236E+03 0.  0.
        -24    2    5    5    0    0  0.10709856101E+01 -0.48543828562E+02 -0.45629774304E+03  0.46537907466E+03  0.77539683583E+02 0.  0.
          5    1    3    3  501    0  0.43202064560E+02  0.75279082115E+02 -0.16296480119E+02  0.88436552684E+02  0.47000000000E+01 0. -1.
        -11    1    4    4    0    0 -0.54624915735E+02  0.31197362091E+02 -0.34147606460E+02  0.71576643169E+02  0.00000000000E+00 0.  1.
         12    1    4    4    0    0 -0.13859879848E+02 -0.31766438861E+02  0.44610485298E+01  0.34944296549E+02  0.00000000000E+00 0. -1.
         -5    1    5    5    0  503  0.24211745413E+02 -0.26166176784E+02 -0.10789416294E+02  0.37541695851E+02  0.47000000000E+01 0.  1.
         11    1    6    6    0    0  0.38312340124E+02 -0.32207026598E+02 -0.28131469276E+03  0.28573253986E+03  0.00000000000E+00 0. -1.
        -12    1    6    6    0    0 -0.37241354514E+02 -0.16336801964E+02 -0.17498305027E+03  0.17964653480E+03  0.00000000000E+00 0.  1.
</event>
<event>
12    1  0.9028446E-003  0.1761119E+03  0.7818608E-02  0.1172077E+00
         21   -1    0    0  503  502  0.00000000000E+00  0.00000000000E+00  0.72859271727E+03  0.72859271727E+03  0.00000000000E+00 0. -1.
         21   -1    0    0  501  503 -0.00000000000E+00 -0.00000000000E+00 -0.42253582121E+02  0.42253582121E+02  0.00000000000E+00 0. -1.
          6    2    1    2  501    0  0.42037007343E+01  0.34405467200E+02  0.36587991359E+03  0.40605852858E+03  0.17266733968E+03 0.  0.
         24    2    3    3    0    0  0.44205792753E+02 -0.33915998824E+02  0.19227040668E+03  0.21519118990E+03  0.78961331274E+02 0.  0.
         -6    2    1    2    0  502 -0.42037007343E+01 -0.34405467200E+02  0.32045922156E+03  0.36478777081E+03  0.17080573110E+03 0.  0.
        -24    2    5    5    0    0  0.98868204444E+01 -0.26937294323E+02  0.33299527304E+03  0.34396569167E+03  0.81259941763E+02 0.  0.
          5    1    3    3  501    0 -0.40002092019E+02  0.68321466024E+02  0.17360950691E+03  0.19086733868E+03  0.47000000000E+01 0. -1.
        -13    1    4    4    0    0  0.24424234243E+02 -0.59396364799E+02  0.13372950108E+03  0.14835110660E+03  0.00000000000E+00 0.  1.
         14    1    4    4    0    0  0.19781558510E+02  0.25480365976E+02  0.58540905592E+02  0.66840083295E+02  0.00000000000E+00 0. -1.
         -5    1    5    5    0  502 -0.14090521179E+02 -0.74681728776E+01 -0.12536051477E+02  0.20822079143E+02  0.47000000000E+01 0.  1.
         13    1    6    6    0    0 -0.32409288894E+02 -0.27793344808E+02  0.13890175002E+03  0.14531527167E+03  0.00000000000E+00 0. -1.
        -14    1    6    6    0    0  0.42296109338E+02  0.85605048546E+00  0.19409352302E+03  0.19865042000E+03  0.00000000000E+00 0.  1.
</event>
<event>
12    1  0.9028446E-003  0.1763610E+03  0.7818608E-02  0.1171706E+00
         21   -1    0    0  503  502  0.00000000000E+00  0.00000000000E+00  0.65361936988E+03  0.65361936988E+03  0.00000000000E+00 0.  1.
         21   -1    0    0  501  503 -0.00000000000E+00 -0.00000000000E+00 -0.51794795730E+02  0.51794795730E+02  0.00000000000E+00 0.  1.
          6    2    1    2  501    0  0.48898570757E+01 -0.32045384718E+02  0.19719762412E+03  0.26455643138E+03  0.17335623739E+03 0.  0.
         24    2    3    3    0    0  0.25306231920E+01  0.45370687828E+02  0.69265768108E+02  0.11493202142E+03  0.79666301213E+02 0.  0.
         -6    2    1    2    0  502 -0.48898570757E+01  0.32045384718E+02  0.40462695003E+03  0.44085773423E+03  0.17199347590E+03 0.  0.
        -24    2    5    5    0    0 -0.67458156085E+01  0.67761447638E+02  0.10837196440E+03  0.14241479455E+03  0.62452952092E+02 0.  0.
          5    1    3    3  501    0  0.23592338836E+01 -0.77416072546E+02  0.12793185601E+03  0.14962440996E+03  0.47000000000E+01 0. -1.
        -11    1    4    4    0    0  0.24164313837E+02  0.58238888472E+01 -0.74537118765E+01  0.25949750775E+02  0.00000000000E+00 0.  1.
         12    1    4    4    0    0 -0.21633690645E+02  0.39546798981E+02  0.76719479984E+02  0.88982270648E+02  0.00000000000E+00 0. -1.
         -5    1    5    5    0  502  0.18559585329E+01 -0.35716062920E+02  0.29625498563E+03  0.29844293967E+03  0.47000000000E+01 0.  1.
         11    1    6    6    0    0 -0.11022015628E+02 -0.63255654455E+01  0.22288862338E+01  0.12902152555E+02  0.00000000000E+00 0. -1.
        -12    1    6    6    0    0  0.42762000192E+01  0.74087013083E+02  0.10614307817E+03  0.12951264200E+03  0.00000000000E+00 0.  1.
</event>
<event>
12    1  0.9028446E-003  0.1851732E+03  0.7818608E-02  0.1163541E+00
         21   -1    0    0  501  502  0.00000000000E+00  0.00000000000E+00  0.47025742071E+03  0.47025742071E+03  0.00000000000E+00 0.  1.
         21   -1    0    0  502  503 -0.00000000000E+00 -0.00000000000E+00 -0.71848974063E+02  0.71848974063E+02  0.00000000000E+00 0. -1.
          6    2    1    2  501    0  0.56730867374E+02 -0.29772189857E+02  0.19290245037E+03  0.26548061151E+03  0.17077419338E+03 0.  0.
         24    2    3    3    0    0  0.40387267820E+02  0.10876965867E+02  0.20293702185E+03  0.22028935425E+03  0.74796557221E+02 0.  0.
         -6    2    1    2    0  503 -0.56730867374E+02  0.29772189857E+02  0.20550599627E+03  0.27662578326E+03  0.17373639475E+03 0.  0.
        -24    2    5    5    0    0 -0.41542110970E+02 -0.43773081530E+02  0.76441112630E+02  0.12722886411E+03  0.81866418704E+02 0.  0.
          5    1    3    3  501    0  0.16343599553E+02 -0.40649155724E+02 -0.10034571476E+02  0.45191257253E+02  0.47000000000E+01 0. -1.
        -11    1    4    4    0    0  0.44927914389E+02 -0.23256864587E+02  0.13396675901E+03  0.14320087906E+03  0.00000000000E+00 0.  1.
         12    1    4    4    0    0 -0.45406465690E+01  0.34133830454E+02  0.68970262836E+02  0.77088475198E+02  0.00000000000E+00 0. -1.
         -5    1    5    5    0  503 -0.15188756404E+02  0.73545271387E+02  0.12906488364E+03  0.14939691916E+03  0.47000000000E+01 0.  1.
         13    1    6    6    0    0 -0.31089337257E+02  0.13203603438E+02  0.56758864340E+02  0.66048850981E+02  0.00000000000E+00 0. -1.
        -14    1    6    6    0    0 -0.10452773713E+02 -0.56976684968E+02  0.19682248290E+02  0.61180013125E+02  0.00000000000E+00 0.  1.
</event>
<event>
12    1  0.9028446E-003  0.1773645E+03  0.7818608E-02  0.1171247E+00
         21   -1    0    0  501  502  0.00000000000E+00  0.00000000000E+00  0.11824205360E+03  0.11824205360E+03  0.00000000000E+00 0. -1.
         21   -1    0    0  502  503 -0.00000000000E+00 -0.00000000000E+00 -0.26149839134E+03  0.26149839134E+03  0.00000000000E+00 0. -1.
          6    2    1    2  501    0 -0.22039404259E+02 -0.28549055891E+02 -0.80381708518E+02  0.19156130091E+03  0.17009917404E+03 0.  0.
         24    2    3    3    0    0  0.36502763109E+02 -0.61810853611E+02 -0.53578748956E+02  0.11893884440E+03  0.78247894729E+02 0.  0.
         -6    2    1    2    0  503  0.22039404259E+02  0.28549055891E+02 -0.62874629225E+02  0.18817914403E+03  0.17365882446E+03 0.  0.
        -24    2    5    5    0    0  0.64260107267E+02 -0.69403735052E+01 -0.80813478364E+02  0.12998997261E+03  0.78670480639E+02 0.  0.
          5    1    3    3  501    0 -0.58542167367E+02  0.33261797720E+02 -0.26802959561E+02  0.72622456505E+02  0.47000000000E+01 0. -1.
        -11    1    4    4    0    0  0.28129765640E+02 -0.42776058072E+02 -0.73874900133E+02  0.89880897463E+02  0.00000000000E+00 0.  1.
         12    1    4    4    0    0  0.83729974688E+01 -0.19034795539E+02  0.20296151176E+02  0.29057946941E+02  0.00000000000E+00 0. -1.
         -5    1    5    5    0  503 -0.42220703009E+02  0.35489429396E+02  0.17938849140E+02  0.58189171414E+02  0.47000000000E+01 0.  1.
         11    1    6    6    0    0 -0.63460159817E+01  0.11212485733E+02 -0.48615850337E+02  0.50294061868E+02  0.00000000000E+00 0. -1.
        -12    1    6    6    0    0  0.70606123249E+02 -0.18152859238E+02 -0.32197628027E+02  0.79695910744E+02  0.00000000000E+00 0.  1.
</event>
<event>
12    1  0.9028446E-003  0.2403618E+03  0.7818608E-02  0.1120236E+00
         21   -1    0    0  503  502  0.00000000000E+00  0.00000000000E+00  0.47665304089E+03  0.47665304089E+03  0.00000000000E+00 0. -1.
         21   -1    0    0  501  503 -0.00000000000E+00 -0.00000000000E+00 -0.17718152387E+03  0.17718152387E+03  0.00000000000E+00 0.  1.
          6    2    1    2  501    0  0.19388725730E+02 -0.16193063496E+03  0.33594910848E+03  0.41072058698E+03  0.17097410289E+03 0.  0.
         24    2    3    3    0    0 -0.22164286142E+02 -0.16817379295E+03  0.23119459972E+03  0.29775498637E+03  0.80208532898E+02 0.  0.
         -6    2    1    2    0  502 -0.19388725730E+02  0.16193063496E+03 -0.36477591462E+02  0.24311397777E+03  0.17656822559E+03 0.  0.
        -24    2    5    5    0    0 -0.14284404611E+02  0.39525393100E+02 -0.72346656991E+02  0.11537292255E+03  0.79439106014E+02 0.  0.
          5    1    3    3  501    0  0.41553011872E+02  0.62431579933E+01  0.10475450876E+03  0.11296560062E+03  0.47000000000E+01 0. -1.
        -13    1    4    4    0    0 -0.44033456577E+02 -0.11367518199E+03  0.19102059552E+03  0.22660507543E+03  0.00000000000E+00 0.  1.
         14    1    4    4    0    0  0.21869170434E+02 -0.54498610965E+02  0.40174004199E+02  0.71149910935E+02  0.00000000000E+00 0. -1.
         -5    1    5    5    0  502 -0.51043211186E+01  0.12240524186E+03  0.35869065529E+02  0.12774105523E+03  0.47000000000E+01 0.  1.
         11    1    6    6    0    0  0.17896978518E+02 -0.73263002880E+01  0.44365124549E+01  0.19840845716E+02  0.00000000000E+00 0. -1.
        -12    1    6    6    0    0 -0.32181383129E+02  0.46851693388E+02 -0.76783169446E+02  0.95532076830E+02  0.00000000000E+00 0.  1.
</event>
<event>
12    1  0.9028446E-003  0.2243328E+03  0.7818608E-02  0.1130812E+00
         21   -1    0    0  503  502  0.00000000000E+00  0.00000000000E+00  0.56211427374E+03  0.56211427374E+03  0.00000000000E+00 0. -1.
         21   -1    0    0  501  503 -0.00000000000E+00 -0.00000000000E+00 -0.89943837393E+02  0.89943837393E+02  0.00000000000E+00 0.  1.
          6    2    1    2  501    0  0.10613211661E+03 -0.98247241312E+02  0.20819104560E+03  0.30605343870E+03  0.17148950192E+03 0.  0.
         24    2    3    3    0    0  0.66654600433E+02 -0.31927952056E+02  0.28500452159E+02  0.11043257636E+03  0.76947048461E+02 0.  0.
         -6    2    1    2    0  502 -0.10613211661E+03  0.98247241312E+02  0.26397939074E+03  0.34600467243E+03  0.17063870605E+03 0.  0.
        -24    2    5    5    0    0 -0.27807322788E+02  0.26196442050E+02  0.20759342617E+03  0.22547435258E+03  0.79272645373E+02 0.  0.
          5    1    3    3  501    0  0.39477516180E+02 -0.66319289256E+02  0.17969059344E+03  0.19562086234E+03  0.47000000000E+01 0. -1.
        -11    1    4    4    0    0  0.58810333429E+02  0.86225767829E+00  0.43873565648E+02  0.73377711664E+02  0.00000000000E+00 0.  1.
         12    1    4    4    0    0  0.78442670032E+01 -0.32790209734E+02 -0.15373113490E+02  0.37054864695E+02  0.00000000000E+00 0. -1.
         -5    1    5    5    0  502 -0.78324793824E+02  0.72050799263E+02  0.56385964567E+02  0.12053031985E+03  0.47000000000E+01 0.  1.
         11    1    6    6    0    0 -0.38630842150E+02  0.48839029745E+02  0.15954687190E+03  0.17126820231E+03  0.00000000000E+00 0. -1.
        -12    1    6    6    0    0  0.10823519362E+02 -0.22642587695E+02  0.48046554276E+02  0.54206150267E+02  0.00000000000E+00 0.  1.
</event>
<event>
12    1  0.9028446E-003  0.1912850E+03  0.7818608E-02  0.1159359E+00
         21   -1    0    0  501  502  0.00000000000E+00  0.00000000000E+00  0.10104499211E+04  0.10104499211E+04  0.00000000000E+00 0.  1.
         21   -1    0    0  502  503 -0.00000000000E+00 -0.00000000000E+00 -0.39409725250E+02  0.39409725250E+02  0.00000000000E+00 0.  1.
          6    2    1    2  501    0  0.54420659163E+02  0.69310630120E+02  0.65985211660E+03  0.68458170658E+03  0.15962996462E+03 0.  0.
         24    2    3    3    0    0  0.37330413306E+02  0.53824548262E+02  0.20876946848E+03  0.23288541406E+03  0.79751384692E+02 0.  0.
         -6    2    1    2    0  503 -0.54420659163E+02 -0.69310630120E+02  0.31118807924E+03  0.36527793976E+03  0.16977744558E+03 0.  0.
        -24    2    5    5    0    0 -0.11132540771E+02 -0.50415481564E+01  0.26377960982E+03  0.27431624968E+03  0.74299203289E+02 0.  0.
          5    1    3    3  501    0  0.17090245857E+02  0.15486081858E+02  0.45108264812E+03  0.45169629252E+03  0.47000000000E+01 0. -1.
        -11    1    4    4    0    0 -0.58880821880E+00 -0.11865565885E+02  0.97511584019E+02  0.98232618650E+02  0.00000000000E+00 0.  1.
         12    1    4    4    0    0  0.37919221524E+02  0.65690114147E+02  0.11125788446E+03  0.13465279541E+03  0.00000000000E+00 0. -1.
         -5    1    5    5    0  503 -0.43288118392E+02 -0.64269081963E+02  0.47408469417E+02  0.90961690084E+02  0.47000000000E+01 0.  1.
         13    1    6    6    0    0 -0.25036650677E+02 -0.41921163387E+01  0.25798196117E+03  0.25922789203E+03  0.00000000000E+00 0. -1.
        -14    1    6    6    0    0  0.13904109906E+02 -0.84943181776E+00  0.57976486487E+01  0.15088357649E+02  0.00000000000E+00 0.  1.
</event>
<event>
12    1  0.9028446E-003  0.1870633E+03  0.7818608E-02  0.1161157E+00
         21   -1    0    0  503  502  0.00000000000E+00  0.00000000000E+00  0.85359615113E+03  0.85359615113E+03  0.00000000000E+00 0.  1.
         21   -1    0    0  501  503 -0.00000000000E+00 -0.00000000000E+00 -0.46131808483E+02  0.46131808483E+02  0.00000000000E+00 0.  1.
          6    2    1    2  501    0  0.49538119578E+02  0.55893233220E+02  0.25341196342E+03  0.31497669711E+03  0.17150690280E+03 0.  0.
         24    2    3    3    0    0  0.57208889666E+02 -0.61735842158E+01  0.95008838049E+02  0.14461011979E+03  0.92598257219E+02 0.  0.
         -6    2    1    2    0  502 -0.49538119578E+02 -0.55893233220E+02  0.55405237923E+03  0.58475126250E+03  0.17141155521E+03 0.  0.
        -24    2    5    5    0    0 -0.63792945315E+02 -0.83715472293E+01  0.17563322973E+03  0.20306467195E+03  0.79048130505E+02 0.  0.
          5    1    3    3  501    0 -0.76707700879E+01  0.62066817436E+02  0.15840312537E+03  0.17036657732E+03  0.47000000000E+01 0. -1.
        -13    1    4    4    0    0  0.26917930400E+02  0.43181654257E+02  0.49098356307E+02  0.70709821337E+02  0.00000000000E+00 0.  1.
         14    1    4    4    0    0  0.30290959266E+02 -0.49355238473E+02  0.45910481742E+02  0.73900298455E+02  0.00000000000E+00 0. -1.
         -5    1    5    5    0  502  0.14254825736E+02 -0.47521685991E+02  0.37841914950E+03  0.38168659055E+03  0.47000000000E+01 0.  1.
         11    1    6    6    0    0 -0.61673104145E+02 -0.87049193108E+01  0.18408935187E+03  0.19434051782E+03  0.00000000000E+00 0. -1.
        -12    1    6    6    0    0 -0.21198411697E+01  0.33337208156E+00 -0.84561221459E+01  0.87241541295E+01  0.00000000000E+00 0.  1.
</event>
<event>
12    1  0.9028446E-003  0.1718135E+03  0.7818608E-02  0.1176429E+00
         21   -1    0    0  503  502  0.00000000000E+00  0.00000000000E+00  0.41847507611E+03  0.41847507611E+03  0.00000000000E+00 0.  1.
         21   -1    0    0  501  503 -0.00000000000E+00 -0.00000000000E+00 -0.69819400872E+02  0.69819400872E+02  0.00000000000E+00 0.  1.
          6    2    1    2  501    0  0.66669845181E+01 -0.24860250157E+02  0.17552258330E+03  0.24437859106E+03  0.16807807055E+03 0.  0.
         24    2    3    3    0    0  0.38025382020E+02 -0.70683716354E+02  0.11885740234E+03  0.16490424374E+03  0.81389250391E+02 0.  0.
         -6    2    1    2    0  502 -0.66669845181E+01  0.24860250157E+02  0.17313309194E+03  0.24391588592E+03  0.16987469252E+03 0.  0.
        -24    2    5    5    0    0 -0.32941194890E+02  0.73527551824E+02  0.13775949131E+03  0.17809626876E+03  0.79051757101E+02 0.  0.
          5    1    3    3  501    0 -0.31358397502E+02  0.45823466197E+02  0.56665180962E+02  0.79474347318E+02  0.47000000000E+01 0. -1.
        -13    1    4    4    0    0 -0.20556362867E+02 -0.10376477339E+02  0.54047017445E+02  0.58747897247E+02  0.00000000000E+00 0.  1.
         14    1    4    4    0    0  0.58581744888E+02 -0.60307239015E+02  0.64810384893E+02  0.10615634650E+03  0.00000000000E+00 0. -1.
         -5    1    5    5    0  502  0.26274210372E+02 -0.48667301667E+02  0.35373600632E+02  0.65819617166E+02  0.47000000000E+01 0.  1.
         11    1    6    6    0    0 -0.50375420734E+02  0.46424133862E+02  0.12668367899E+03  0.14401957416E+03  0.00000000000E+00 0. -1.
        -12    1    6    6    0    0  0.17434225844E+02  0.27103417962E+02  0.11075812320E+02  0.34076694595E+02  0.00000000000E+00 0.  1.
</event>
<event>
12    1  0.9028446E-003  0.1818789E+03  0.7818608E-02  0.1166277E+00
         21   -1    0    0  501  502  0.00000000000E+00  0.00000000000E+00  0.29490753829E+03  0.29490753829E+03  0.00000000000E+00 0.  1.
         21   -1    0    0  502  503 -0.00000000000E+00 -0.00000000000E+00 -0.11533936983E+03  0.11533936983E+03  0.00000000000E+00 0.  1.
          6    2    1    2  501    0 -0.42777831001E+02 -0.39350633996E+02  0.52394732978E+02  0.18927529535E+03  0.17234127238E+03 0.  0.
         24    2    3    3    0    0 -0.99050853601E+01 -0.11031745439E+02 -0.37977983076E+02  0.88916465832E+02  0.79018988693E+02 0.  0.
         -6    2    1    2    0  503  0.42777831001E+02  0.39350633996E+02  0.12717343548E+03  0.22097161278E+03  0.17110510144E+03 0.  0.
        -24    2    5    5    0    0  0.74409633237E+02 -0.14017521470E+02  0.61500610755E+02  0.13050758215E+03  0.86698439707E+02 0.  0.
          5    1    3    3  501    0 -0.32872745641E+02 -0.28318888557E+02  0.90372716054E+02  0.10035882952E+03  0.47000000000E+01 0. -1.
        -13    1    4    4    0    0  0.11635453360E+02 -0.39813177719E+02 -0.83032583934E+01  0.42301501095E+02  0.00000000000E+00 0.  1.
         14    1    4    4    0    0 -0.21540538720E+02  0.28781432280E+02 -0.29674724682E+02  0.46614964737E+02  0.00000000000E+00 0. -1.
         -5    1    5    5    0  503 -0.31631802236E+02  0.53368155466E+02  0.65672824726E+02  0.90464030631E+02  0.47000000000E+01 0.  1.
         11    1    6    6    0    0 -0.16734265078E+02 -0.34467186620E+01 -0.42748628344E+01  0.17612210239E+02  0.00000000000E+00 0. -1.
        -12    1    6    6    0    0  0.91143898315E+02 -0.10570802808E+02  0.65775473590E+02  0.11289537191E+03  0.00000000000E+00 0.  1.
</event>
<event>
12    1  0.9028446E-003  0.2648047E+03  0.7818608E-02  0.1105513E+00
         21   -1    0    0  501  502  0.00000000000E+00  0.00000000000E+00  0.63354279837E+03  0.63354279837E+03  0.00000000000E+00 0.  1.
         21   -1    0    0  502  503 -0.00000000000E+00 -0.00000000000E+00 -0.10757584350E+03  0.10757584350E+03  0.00000000000E+00 0.  1.
          6    2    1    2  501    0  0.19294874115E+03 -0.58013003561E+02  0.23955268683E+03  0.35104855814E+03  0.15891782502E+03 0.  0.
         24    2    3    3    0    0  0.17230026806E+03  0.25019012756E+01  0.19759019480E+03  0.27442379787E+03  0.81073385719E+02 0.  0.
         -6    2    1    2    0  503 -0.19294874115E+03  0.58013003561E+02  0.28641426803E+03  0.39007008374E+03  0.17183367540E+03 0.  0.
        -24    2    5    5    0    0 -0.86672071414E+02  0.59644921085E+02  0.24062828321E+03  0.27424331614E+03  0.78980131638E+02 0.  0.
          5    1    3    3  501    0  0.20648473085E+02 -0.60514904837E+02  0.41962492032E+02  0.76624760265E+02  0.47000000000E+01 0. -1.
        -13    1    4    4    0    0  0.48068367280E+02 -0.21653836626E+02  0.10539232029E+03  0.11784310650E+03  0.00000000000E+00 0.  1.
         14    1    4    4    0    0  0.12423190079E+03  0.24155737902E+02  0.92197874511E+02  0.15658069137E+03  0.00000000000E+00 0. -1.
         -5    1    5    5    0  503 -0.10627666974E+03 -0.16319175242E+01  0.45785984819E+02  0.11582676759E+03  0.47000000000E+01 0.  1.
         13    1    6    6    0    0 -0.61963528795E+02  0.56782927474E+01  0.17511553033E+03  0.18584178990E+03  0.00000000000E+00 0. -1.
        -14    1    6    6    0    0 -0.24708542619E+02  0.53966628338E+02  0.65512752879E+02  0.88401526244E+02  0.00000000000E+00 0.  1.
</event>
<event>
12    1  0.9028446E-003  0.2343029E+03  0.7818608E-02  0.1123673E+00
         21   -1    0    0  501  502  0.00000000000E+00  0.00000000000E+00  0.36219679322E+03  0.36219679322E+03  0.00000000000E+00 0. -1.
         21   -1    0    0  502  503 -0.00000000000E+00 -0.00000000000E+00 -0.17297081939E+03  0.17297081939E+03  0.00000000000E+00 0. -1.
          6    2    1    2  501    0  0.64804681531E+02  0.15013590872E+03  0.18892401652E+03  0.30086455460E+03  0.16759104500E+03 0.  0.
         24    2    3    3    0    0  0.45870072267E+02  0.17178166519E+03  0.18932722238E+03  0.27172161761E+03  0.79842572090E+02 0.  0.
         -6    2    1    2    0  503 -0.64804681531E+02 -0.15013590872E+03  0.30195731154E+00  0.23430305800E+03  0.16780165069E+03 0.  0.
        -24    2    5    5    0    0 -0.63505801923E+02 -0.15383786645E+03 -0.44604033894E+02  0.18898165439E+03  0.77623899826E+02 0.  0.
          5    1    3    3  501    0  0.18934609264E+02 -0.21645756477E+02 -0.40320585889E+00  0.29142936990E+02  0.47000000000E+01 0. -1.
        -11    1    4    4    0    0  0.29472918780E+02  0.49094893542E+02  0.17351246687E+02  0.59833329131E+02  0.00000000000E+00 0.  1.
         12    1    4    4    0    0  0.16397153488E+02  0.12268677165E+03  0.17197597569E+03  0.21188828848E+03  0.00000000000E+00 0. -1.
         -5    1    5    5    0  503 -0.12988796081E+01  0.37019577304E+01  0.44905991205E+02  0.45321403612E+02  0.47000000000E+01 0.  1.
         11    1    6    6    0    0 -0.59064630527E+02 -0.48059335099E+02 -0.31097121919E+02  0.82251816157E+02  0.00000000000E+00 0. -1.
        -12    1    6    6    0    0 -0.44411713965E+01 -0.10577853135E+03 -0.13506911975E+02  0.10672983823E+03  0.00000000000E+00 0.  1.
</event>
<event>
12    1  0.9028446E-003  0.2073055E+03  0.7818608E-02  0.1145230E+00
         21   -1    0    0  501  502  0.00000000000E+00  0.00000000000E+00  0.66627684477E+03  0.66627684477E+03  0.00000000000E+00 0.  1.
         21   -1    0    0  502  503 -0.00000000000E+00 -0.00000000000E+00 -0.62300041917E+02  0.62300041917E+02  0.00000000000E+00 0. -1.
          6    2    1    2  501    0 -0.97176148075E+02 -0.24257796643E+02  0.28424026846E+03  0.34751651437E+03  0.17304205585E+03 0.  0.
         24    2    3    3    0    0 -0.94665434943E+02  0.38879962265E+02  0.23257463442E+03  0.26576012000E+03  0.77873517751E+02 0.  0.
         -6    2    1    2    0  503  0.97176148075E+02  0.24257796643E+02  0.31973653439E+03  0.38106037231E+03  0.18150457699E+03 0.  0.
        -24    2    5    5    0    0  0.55381337973E+02 -0.62912403863E+02  0.14539583256E+03  0.18165570757E+03  0.69525425637E+02 0.  0.
          5    1    3    3  501    0 -0.25107131321E+01 -0.63137758908E+02  0.51665634039E+02  0.81756394374E+02  0.47000000000E+01 0. -1.
        -13    1    4    4    0    0 -0.65579182974E+02 -0.11726546985E+02  0.92342691716E+02  0.11386533211E+03  0.00000000000E+00 0.  1.
         14    1    4    4    0    0 -0.29086251969E+02  0.50606509250E+02  0.14023194271E+03  0.15189478789E+03  0.00000000000E+00 0. -1.
         -5    1    5    5    0  503  0.41794810102E+02  0.87170200506E+02  0.17434070183E+03  0.19940466474E+03  0.47000000000E+01 0.  1.
         13    1    6    6    0    0  0.62385769424E+02 -0.28569571964E+02  0.67568611132E+02  0.96300165520E+02  0.00000000000E+00 0. -1.
        -14    1    6    6    0    0 -0.70044314506E+01 -0.34342831900E+02  0.77827221429E+02  0.85355542047E+02  0.00000000000E+00 0.  1.
</event>
<event>
12    1  0.9028446E-003  0.1735536E+03  0.7818608E-02  0.1174325E+00
         21   -1    0    0  501  502  0.00000000000E+00  0.00000000000E+00  0.32368718380E+03  0.32368718380E+03  0.00000000000E+00 0. -1.
         21   -1    0    0  502  503 -0.00000000000E+00 -0.00000000000E+00 -0.95242113804E+02  0.95242113804E+02  0.00000000000E+00 0. -1.
          6    2    1    2  501    0  0.16482404514E+02  0.29729433483E+01  0.14776174251E+03  0.22753793060E+03  0.17221924765E+03 0.  0.
         24    2    3    3    0    0 -0.77022924192E+01 -0.41480661339E+02  0.23747556018E+02  0.93513190397E+02  0.80004998517E+02 0.  0.
         -6    2    1    2    0  503 -0.16482404514E+02 -0.29729433483E+01  0.80683327485E+02  0.19139136700E+03  0.17274359027E+03 0.  0.
        -24    2    5    5    0    0 -0.55157136627E+01 -0.52971243945E+02  0.97876327084E+02  0.13719000534E+03  0.80030908900E+02 0.  0.
          5    1    3    3  501    0  0.24184696933E+02  0.44453604688E+02  0.12401418649E+03  0.13402474020E+03  0.47000000000E+01 0. -1.
        -13    1    4    4    0    0  0.14799539090E+02 -0.16005943985E+02 -0.25580167376E+02  0.33608950640E+02  0.00000000000E+00 0.  1.
         14    1    4    4    0    0 -0.22501831510E+02 -0.25474717354E+02  0.49327723394E+02  0.59904239756E+02  0.00000000000E+00 0. -1.
         -5    1    5    5    0  503 -0.10966690851E+02  0.49998300597E+02 -0.17192999599E+02  0.54201361662E+02  0.47000000000E+01 0.  1.
         13    1    6    6    0    0  0.22938672707E+02  0.19423477905E+01  0.20151302628E+01  0.23108789896E+02  0.00000000000E+00 0. -1.
        -14    1    6    6    0    0 -0.28454386370E+02 -0.54913591735E+02  0.95861196821E+02  0.11408121544E+03  0.00000000000E+00 0.  1.
</event>
<event>
12    1  0.9028446E-003  0.2137359E+03  0.7818608E-02  0.1139103E+00
         21   -1    0    0  503  502  0.00000000000E+00  0.00000000000E+00  0.17203126353E+03  0.17203126353E+03  0.00000000000E+00 0. -1.
         21   -1    0    0  501  503 -0.00000000000E+00 -0.00000000000E+00 -0.29125516853E+03  0.29125516853E+03  0.00000000000E+00 0.  1.
          6    2    1    2  501    0  0.17922287999E+02 -0.12500919235E+03 -0.13195553498E+03  0.24917165777E+03  0.16948671112E+03 0.  0.
         24    2    3    3    0    0  0.50556301963E+02 -0.14435801735E+03 -0.99571199123E+02  0.19906985037E+03  0.79493426070E+02 0.  0.
         -6    2    1    2    0  502 -0.17922287999E+02  0.12500919235E+03  0.12731629978E+02  0.21411477429E+03  0.17243704819E+03 0.  0.
        -24    2    5    5    0    0 -0.12609510793E+02  0.12147696242E+03  0.65914886084E+02  0.16034442019E+03  0.80311323714E+02 0.  0.
          5    1    3    3  501    0 -0.32634013964E+02  0.19348825006E+02 -0.32384335854E+02  0.50101807405E+02  0.47000000000E+01 0. -1.
        -11    1    4    4    0    0 -0.62570629346E+01 -0.97884038560E+02 -0.66900564432E+02  0.11872708774E+03  0.00000000000E+00 0.  1.
         12    1    4    4    0    0  0.56813364898E+02 -0.46473978792E+02 -0.32670634691E+02  0.80342762629E+02  0.00000000000E+00 0. -1.
         -5    1    5    5    0  502 -0.53127772061E+01  0.35322299208E+01 -0.53183256106E+02  0.53770354099E+02  0.47000000000E+01 0.  1.
         13    1    6    6    0    0  0.31352279775E+02  0.32141664841E+02  0.32092116307E+02  0.55190180240E+02  0.00000000000E+00 0. -1.
        -14    1    6    6    0    0 -0.43961790568E+02  0.89335297584E+02  0.33822769776E+02  0.10515423995E+03  0.00000000000E+00 0.  1.
</event>
<event>
12    1  0.9028446E-003  0.1961844E+03  0.7818608E-02  0.1153173E+00
         21   -1    0    0  501  502  0.00000000000E+00  0.00000000000E+00  0.50881926763E+03  0.50881926763E+03  0.00000000000E+00 0. -1.
         21   -1    0    0  502  503 -0.00000000000E+00 -0.00000000000E+00 -0.87398095934E+02  0.87398095934E+02  0.00000000000E+00 0. -1.
          6    2    1    2  501    0  0.32344703000E+02  0.88591248390E+02  0.32184972941E+03  0.37692911825E+03  0.17202826150E+03 0.  0.
         24    2    3    3    0    0  0.86707418832E+02  0.47571003735E+02  0.22036877414E+03  0.25462441830E+03  0.80560665992E+02 0.  0.
         -6    2    1    2    0  503 -0.32344703000E+02 -0.88591248390E+02  0.99571442283E+02  0.21928824532E+03  0.17110895159E+03 0.  0.
        -24    2    5    5    0    0  0.34153156982E+02 -0.22557054957E+02  0.88188619880E+02  0.12476767227E+03  0.78195143749E+02 0.  0.
          5    1    3    3  501    0 -0.54362715832E+02  0.41020244654E+02  0.10148095528E+03  0.12230469994E+03  0.47000000000E+01 0. -1.
        -13    1    4    4    0    0 -0.99092711714E+01  0.88451920250E+01  0.29976567342E+01  0.13616791950E+02  0.00000000000E+00 0.  1.
         14    1    4    4    0    0  0.96616690004E+02  0.38725811710E+02  0.21737111740E+03  0.24100762635E+03  0.00000000000E+00 0. -1.
         -5    1    5    5    0  503 -0.66497859982E+02 -0.66034193433E+02  0.11382822402E+02  0.94520573054E+02  0.47000000000E+01 0.  1.
         13    1    6    6    0    0  0.30842516825E+01 -0.46798810052E+02  0.34755097972E+02  0.58374292850E+02  0.00000000000E+00 0. -1.
        -14    1    6    6    0    0  0.31068905300E+02  0.24241755095E+02  0.53433521909E+02  0.66393379415E+02  0.00000000000E+00 0.  1.
</event>
<event>
12    1  0.9028446E-003  0.1793196E+03  0.7818608E-02  0.1173196E+00
         21   -1    0    0  501  502  0.00000000000E+00  0.00000000000E+00  0.26678482447E+02  0.26678482447E+02  0.00000000000E+00 0.  1.
         21   -1    0    0  502  503 -0.00000000000E+00 -0.00000000000E+00 -0.11412487652E+04  0.11412487652E+04  0.00000000000E+00 0.  1.
          6    2    1    2  501    0 -0.22922245269E+02  0.48391837798E+02 -0.65818291269E+03  0.67757538456E+03  0.15177765290E+03 0.  0.
         24    2    3    3    0    0 -0.42453732361E+01  0.76615062863E+02 -0.34731600579E+03  0.36483635632E+03  0.81174306062E+02 0.  0.
         -6    2    1    2    0  503  0.22922245269E+02 -0.48391837798E+02 -0.45638737010E+03  0.49035186312E+03  0.17113830308E+03 0.  0.
        -24    2    5    5    0    0 -0.28113951414E+02 -0.46858730779E+02 -0.40968100827E+03  0.42099324415E+03  0.80066523434E+02 0.  0.
          5    1    3    3  501    0 -0.18676872033E+02 -0.28223225065E+02 -0.31086690689E+03  0.31273902824E+03  0.47000000000E+01 0. -1.
        -11    1    4    4    0    0 -0.34998781516E+02  0.91529663152E+01 -0.14229099511E+03  0.14681763787E+03  0.00000000000E+00 0.  1.
         12    1    4    4    0    0  0.30753408280E+02  0.67462096548E+02 -0.20502501068E+03  0.21801871845E+03  0.00000000000E+00 0. -1.
         -5    1    5    5    0  503  0.51036196682E+02 -0.15331070186E+01 -0.46706361836E+02  0.69358618966E+02  0.47000000000E+01 0.  1.
         11    1    6    6    0    0 -0.15290945090E+01 -0.14257018064E+02 -0.33478493676E+03  0.33509185991E+03  0.00000000000E+00 0. -1.
        -12    1    6    6    0    0 -0.26584856905E+02 -0.32601712715E+02 -0.74896071508E+02  0.85901384249E+02  0.00000000000E+00 0.  1.
</event>
<event>
12    1  0.9028446E-003  0.1826523E+03  0.7818608E-02  0.1165610E+00
         21   -1    0    0  501  502  0.00000000000E+00  0.00000000000E+00  0.12718476565E+03  0.12718476565E+03  0.00000000000E+00 0.  1.
         21   -1    0    0  502  503 -0.00000000000E+00 -0.00000000000E+00 -0.29046655720E+03  0.29046655720E+03  0.00000000000E+00 0. -1.
          6    2    1    2  501    0 -0.13845478437E+02  0.55054233731E+02 -0.13948865132E+02  0.18172300725E+03  0.17206398403E+03 0.  0.
         24    2    3    3    0    0  0.39116494265E+02 -0.91326312221E+01  0.21485888836E+02  0.91154602307E+02  0.78955766262E+02 0.  0.
         -6    2    1    2    0  503  0.13845478437E+02 -0.55054233731E+02 -0.14933292642E+03  0.23592831560E+03  0.17360639754E+03 0.  0.
        -24    2    5    5    0    0  0.31808476287E+02 -0.10107945003E+03 -0.10437464367E+03  0.16896319771E+03  0.80160224288E+02 0.  0.
          5    1    3    3  501    0 -0.52961972701E+02  0.64186864954E+02 -0.35434753968E+02  0.90568404942E+02  0.47000000000E+01 0. -1.
        -13    1    4    4    0    0  0.59974044846E+02 -0.74172150928E+01 -0.99648824757E+00  0.60439177060E+02  0.00000000000E+00 0.  1.
         14    1    4    4    0    0 -0.20857550581E+02 -0.17154161293E+01  0.22482377083E+02  0.30715425246E+02  0.00000000000E+00 0. -1.
         -5    1    5    5    0  503 -0.17962997850E+02  0.46025216295E+02 -0.44958282753E+02  0.66965117896E+02  0.47000000000E+01 0.  1.
         11    1    6    6    0    0  0.12074987690E+02  0.12168433128E+02 -0.78343110863E+01  0.18848143747E+02  0.00000000000E+00 0. -1.
        -12    1    6    6    0    0  0.19733488597E+02 -0.11324788315E+03 -0.96540332581E+02  0.15011505396E+03  0.00000000000E+00 0.  1.
</event>
<event>
12    1  0.9028446E-003  0.1942748E+03  0.7818608E-02  0.1154863E+00
         21   -1    0    0  503  502  0.00000000000E+00  0.00000000000E+00  0.69835818367E+02  0.69835818367E+02  0.00000000000E+00 0.  1.
         21   -1    0    0  501  503 -0.00000000000E+00 -0.00000000000E+00 -0.54333021447E+03  0.54333021447E+03  0.00000000000E+00 0.  1.
          6    2    1    2  501    0 -0.84412727925E+02  0.31472916332E+02 -0.20551942734E+03  0.28217767486E+03  0.17108463425E+03 0.  0.
         24    2    3    3    0    0  0.55234947672E+01 -0.22661055017E+02 -0.57251437723E+02  0.10045123828E+03  0.79175070209E+02 0.  0.
         -6    2    1    2    0  502  0.84412727925E+02 -0.31472916332E+02 -0.26797496876E+03  0.33098835797E+03  0.17212395572E+03 0.  0.
        -24    2    5    5    0    0  0.51290816986E+02 -0.47127855904E+02 -0.63615890246E+02  0.12331828047E+03  0.79426910411E+02 0.  0.
          5    1    3    3  501    0 -0.89936222692E+02  0.54133971350E+02 -0.14826798961E+03  0.18172643657E+03  0.47000000000E+01 0. -1.
        -13    1    4    4    0    0 -0.17615953210E+01  0.25008906621E+02  0.67383277870E+00  0.25079925818E+02  0.00000000000E+00 0.  1.
         14    1    4    4    0    0  0.72850900882E+01 -0.47669961638E+02 -0.57925270502E+02  0.75371312466E+02  0.00000000000E+00 0. -1.
         -5    1    5    5    0  502  0.33121910939E+02  0.15654939572E+02 -0.20435907852E+03  0.20767007750E+03  0.47000000000E+01 0.  1.
         13    1    6    6    0    0  0.16429634862E+02 -0.18586572919E+02  0.17617938620E+02  0.30426721082E+02  0.00000000000E+00 0. -1.
        -14    1    6    6    0    0  0.34861182124E+02 -0.28541282985E+02 -0.81233828866E+02  0.92891559389E+02  0.00000000000E+00 0.  1.
</event>
<event>
12    1  0.9028446E-003  0.1728687E+03  0.7818608E-02  0.1174951E+00
         21   -1    0    0  501  502  0.00000000000E+00  0.00000000000E+00  0.79372761245E+03  0.79372761245E+03  0.00000000000E+00 0. -1.
         21   -1    0    0  502  503 -0.00000000000E+00 -0.00000000000E+00 -0.37666139823E+02  0.37666139823E+02  0.00000000000E+00 0. -1.
          6    2    1    2  501    0  0.12897511814E+02 -0.10114744055E+02  0.35986408672E+03  0.39912534810E+03  0.17184361707E+03 0.  0.
         24    2    3    3    0    0 -0.46533191117E+02 -0.44559542798E+02  0.18392634354E+03  0.21019511736E+03  0.78754027102E+02 0.  0.
         -6    2    1    2    0  503 -0.12897511814E+02  0.10114744055E+02  0.39619738590E+03  0.43226840417E+03  0.17208994970E+03 0.  0.
        -24    2    5    5    0    0 -0.35054264973E+02  0.18590722723E+02  0.39854058230E+03  0.40797139829E+03  0.77663695645E+02 0.  0.
          5    1    3    3  501    0  0.59430702930E+02  0.34444798743E+02  0.17593774318E+03  0.18893023074E+03  0.47000000000E+01 0. -1.
        -11    1    4    4    0    0 -0.38081557074E+02  0.29645515099E+01  0.13935311159E+03  0.14449319453E+03  0.00000000000E+00 0.  1.
         12    1    4    4    0    0 -0.84516340429E+01 -0.47524094307E+02  0.44573231951E+02  0.65701922836E+02  0.00000000000E+00 0. -1.
         -5    1    5    5    0  503  0.22156753159E+02 -0.84759786679E+01 -0.23431964028E+01  0.24297005871E+02  0.47000000000E+01 0.  1.
         13    1    6    6    0    0 -0.18194952844E+01 -0.29041973400E+02  0.12780879576E+03  0.13107949900E+03  0.00000000000E+00 0. -1.
        -14    1    6    6    0    0 -0.33234769689E+02  0.47632696123E+02  0.27073178654E+03  0.27689189930E+03  0.00000000000E+00 0.  1.
</event>
<event>
12    1  0.9028446E-003  0.1937585E+03  0.7818608E-02  0.1155213E+00
         21   -1    0    0  503  502  0.00000000000E+00  0.00000000000E+00  0.93104581173E+03  0.93104581173E+03  0.00000000000E+00 0. -1.
         21   -1    0    0  501  503 -0.00000000000E+00 -0.00000000000E+00 -0.57130596924E+02  0.57130596924E+02  0.00000000000E+00 0. -1.
          6    2    1    2  501    0  0.22255245556E+02  0.85608548656E+02  0.16857966813E+03  0.25682967039E+03  0.17238983592E+03 0.  0.
         24    2    3    3    0    0  0.10264773821E+02  0.92396411466E+02  0.19279931625E+03  0.22857143533E+03  0.80192657211E+02 0.  0.
         -6    2    1    2    0  502 -0.22255245556E+02 -0.85608548656E+02  0.70533554668E+03  0.73134673826E+03  0.17188862268E+03 0.  0.
        -24    2    5    5    0    0 -0.66667531893E+02 -0.87465454774E+02  0.38556318520E+03  0.40846540953E+03  0.78040088527E+02 0.  0.
          5    1    3    3  501    0  0.11990471735E+02 -0.67878628103E+01 -0.24219648115E+02  0.28258235061E+02  0.47000000000E+01 0. -1.
        -13    1    4    4    0    0  0.28249551224E+02  0.53603302853E+01  0.22627728772E+02  0.36589402762E+02  0.00000000000E+00 0.  1.
         14    1    4    4    0    0 -0.17984777402E+02  0.87036081181E+02  0.17017158748E+03  0.19198203257E+03  0.00000000000E+00 0. -1.
         -5    1    5    5    0  502  0.44412286337E+02  0.18569061184E+01  0.31977236148E+03  0.32288132873E+03  0.47000000000E+01 0.  1.
         11    1    6    6    0    0 -0.36650583188E+02 -0.24674656685E+02  0.26978676588E+03  0.27338069239E+03  0.00000000000E+00 0. -1.
        -12    1    6    6    0    0 -0.30016948705E+02 -0.62790798089E+02  0.11577641932E+03  0.13508471714E+03  0.00000000000E+00 0.  1.
</event>
<event>
12    1  0.9028446E-003  0.2127405E+03  0.7818608E-02  0.1139481E+00
         21   -1    0    0  501  502  0.00000000000E+00  0.00000000000E+00  0.13212361514E+03  0.13212361514E+03  0.00000000000E+00 0.  1.
         21   -1    0    0  502  503 -0.00000000000E+00 -0.00000000000E+00 -0.38011933042E+03  0.38011933042E+03  0.00000000000E+00 0.  1.
          6    2    1    2  501    0  0.10605381938E+03 -0.64822017657E+02 -0.42972869044E+02  0.21703727292E+03  0.17265342100E+03 0.  0.
         24    2    3    3    0    0  0.37376393752E+02 -0.10048859939E+03 -0.13226494682E+02  0.13399733896E+03  0.79280472195E+02 0.  0.
         -6    2    1    2    0  503 -0.10605381938E+03  0.64822017657E+02 -0.20502284624E+03  0.29520567265E+03  0.17222867097E+03 0.  0.
        -24    2    5    5    0    0 -0.11620879452E+03  0.70057554565E+01 -0.18605468910E+03  0.23333706445E+03  0.79222937193E+02 0.  0.
          5    1    3    3  501    0  0.68677425631E+02  0.35666581729E+02 -0.29746374362E+02  0.83039933955E+02  0.47000000000E+01 0. -1.
        -11    1    4    4    0    0  0.31022217655E+02 -0.10278218680E+03 -0.33629093568E+02  0.11250543029E+03  0.00000000000E+00 0.  1.
         12    1    4    4    0    0  0.63541760975E+01  0.22935874116E+01  0.20402598885E+02  0.21491908672E+02  0.00000000000E+00 0. -1.
         -5    1    5    5    0  503  0.10154975136E+02  0.57816262200E+02 -0.18968157140E+02  0.61868608196E+02  0.47000000000E+01 0.  1.
         11    1    6    6    0    0 -0.57072019698E+02 -0.27625515282E+02 -0.13060542241E+03  0.14518319769E+03  0.00000000000E+00 0. -1.
        -12    1    6    6    0    0 -0.59136774821E+02  0.34631270739E+02 -0.55449266685E+02  0.88153866762E+02  0.00000000000E+00 0.  1.
</event>
<event>
12    1  0.9028446E-003  0.2398197E+03  0.7818608E-02  0.1119946E+00
         21   -1    0    0  501  502  0.00000000000E+00  0.00000000000E+00  0.29499592022E+03  0.29499592022E+03  0.00000000000E+00 0.  1.
         21   -1    0    0  502  503 -0.00000000000E+00 -0.00000000000E+00 -0.21684834378E+03  0.21684834378E+03  0.00000000000E+00 0. -1.
          6    2    1    2  501    0  0.16412824899E+03 -0.30283751439E+02  0.12065913307E+03  0.26828583851E+03  0.17194032987E+03 0.  0.
         24    2    3    3    0    0  0.54368854824E+02 -0.41140453089E+02  0.11663409364E+03  0.15781736554E+03  0.81573891740E+02 0.  0.
         -6    2    1    2    0  503 -0.16412824899E+03  0.30283751439E+02 -0.42511556635E+02  0.24355842549E+03  0.17221581362E+03 0.  0.
        -24    2    5    5    0    0 -0.17920978254E+03 -0.10084140519E+02 -0.36418122889E+02  0.19978355496E+03  0.79808227067E+02 0.  0.
          5    1    3    3  501    0  0.10975939416E+03  0.10856701649E+02  0.40250394387E+01  0.11046847297E+03  0.47000000000E+01 0. -1.
        -13    1    4    4    0    0  0.55410031843E+02  0.22287383506E+01  0.93357050685E+02  0.10858534807E+03  0.00000000000E+00 0.  1.
         14    1    4    4    0    0 -0.10411770191E+01 -0.43369191439E+02  0.23277042951E+02  0.49232017470E+02  0.00000000000E+00 0. -1.
         -5    1    5    5    0  503  0.15081533553E+02  0.40367891958E+02 -0.60934337461E+01  0.43774870534E+02  0.47000000000E+01 0.  1.
         13    1    6    6    0    0 -0.14200765628E+03  0.16716833869E+02 -0.50778030088E+02  0.15173673029E+03  0.00000000000E+00 0. -1.
        -14    1    6    6    0    0 -0.37202126256E+02 -0.26800974388E+02  0.14359907199E+02  0.48046824670E+02  0.00000000000E+00 0.  1.
</event>
<event>
12    1  0.9028446E-003  0.2108662E+03  0.7818608E-02  0.1141389E+00
         21   -1    0    0  501  502  0.00000000000E+00  0.00000000000E+00  0.78133949606E+02  0.78133949606E+02  0.00000000000E+00 0.  1.
         21   -1    0    0  502  503 -0.00000000000E+00 -0.00000000000E+00 -0.80826774659E+03  0.80826774659E+03  0.00000000000E+00 0.  1.
          6    2    1    2  501    0 -0.27899739174E+02  0.11696710183E+03 -0.12207933482E+03  0.24365529703E+03  0.17321905618E+03 0.  0.
         24    2    3    3    0    0  0.42666045669E+02  0.90136740792E+02 -0.41700052757E+02  0.13328176194E+03  0.77975061213E+02 0.  0.
         -6    2    1    2    0  503  0.27899739174E+02 -0.11696710183E+03 -0.60805446217E+03  0.64274639917E+03  0.17009704974E+03 0.  0.
        -24    2    5    5    0    0  0.51686392047E+02 -0.48626213403E+02 -0.50955848993E+03  0.52043602172E+03  0.78535382397E+02 0.  0.
          5    1    3    3  501    0 -0.70565784843E+02  0.26830361038E+02 -0.80379282065E+02  0.11037353509E+03  0.47000000000E+01 0. -1.
        -11    1    4    4    0    0  0.26978718344E+02  0.75684229106E+02 -0.63776986721E+02  0.10258390621E+03  0.00000000000E+00 0.  1.
         12    1    4    4    0    0  0.15687327325E+02  0.14452511686E+02  0.22076933964E+02  0.30697855722E+02  0.00000000000E+00 0. -1.
         -5    1    5    5    0  503 -0.23786652873E+02 -0.68340888427E+02 -0.98495972238E+02  0.12231037745E+03  0.47000000000E+01 0.  1.
         11    1    6    6    0    0  0.57854646107E+01 -0.57650496842E+02 -0.24367416624E+03  0.25046786357E+03  0.00000000000E+00 0. -1.
        -12    1    6    6    0    0  0.45900927436E+02  0.90242834393E+01 -0.26588432369E+03  0.26996815815E+03  0.00000000000E+00 0.  1.
</event>
<event>
12    1  0.9028446E-003  0.2281663E+03  0.7818608E-02  0.1128128E+00
         21   -1    0    0  501  502  0.00000000000E+00  0.00000000000E+00  0.21193866875E+03  0.21193866875E+03  0.00000000000E+00 0.  1.
         21   -1    0    0  502  503 -0.00000000000E+00 -0.00000000000E+00 -0.24865686187E+03  0.24865686187E+03  0.00000000000E+00 0. -1.
          6    2    1    2  501    0  0.29222481468E+02  0.14691213444E+03  0.11506081529E+02  0.22738867240E+03  0.17069296926E+03 0.  0.
         24    2    3    3    0    0 -0.35617773695E+02  0.28307314559E+02  0.12551633744E+02  0.92131342958E+02  0.79124654723E+02 0.  0.
         -6    2    1    2    0  503 -0.29222481468E+02 -0.14691213444E+03 -0.48224274644E+02  0.23320685822E+03  0.17211254860E+03 0.  0.
        -24    2    5    5    0    0 -0.49432591815E+02 -0.12358279975E+03 -0.91402965840E+02  0.17992275373E+03  0.79381393406E+02 0.  0.
          5    1    3    3  501    0  0.64840255163E+02  0.11860481988E+03 -0.10455522153E+01  0.13525732944E+03  0.47000000000E+01 0. -1.
        -13    1    4    4    0    0 -0.34709655848E+02  0.50865679139E+02 -0.73733770186E+01  0.62019708255E+02  0.00000000000E+00 0.  1.
         14    1    4    4    0    0 -0.90811784646E+00 -0.22558364580E+02  0.19925010762E+02  0.30111634702E+02  0.00000000000E+00 0. -1.
         -5    1    5    5    0  503  0.20210110348E+02 -0.23329334687E+02  0.43178691197E+02  0.53284104484E+02  0.47000000000E+01 0.  1.
         11    1    6    6    0    0  0.12296606932E+01 -0.95488395762E+02 -0.68979599055E+02  0.11780378125E+03  0.00000000000E+00 0. -1.
        -12    1    6    6    0    0 -0.50662252509E+02 -0.28094403990E+02 -0.22423366785E+02  0.62118972487E+02  0.00000000000E+00 0.  1.
</event>
<event>
12    1  0.9028446E-003  0.1744967E+03  0.7818608E-02  0.1173430E+00
         21   -1    0    0  501  502  0.00000000000E+00  0.00000000000E+00  0.75103702412E+02  0.75103702412E+02  0.00000000000E+00 0. -1.
         21   -1    0    0  502  503 -0.00000000000E+00 -0.00000000000E+00 -0.40528288252E+03  0.40528288252E+03  0.00000000000E+00 0. -1.
          6    2    1    2  501    0  0.15545904722E+02 -0.19244866011E+02 -0.17992403839E+03  0.25011349247E+03  0.17196528574E+03 0.  0.
         24    2    3    3    0    0  0.48183421840E+02 -0.19585621722E+02 -0.19315788858E+03  0.21458113497E+03  0.77652139994E+02 0.  0.
         -6    2    1    2    0  503 -0.15545904722E+02  0.19244866011E+02 -0.15025514171E+03  0.23027309247E+03  0.17273404262E+03 0.  0.
        -24    2    5    5    0    0 -0.64495730701E+02  0.34019984868E+02 -0.14208316882E+03  0.17828020121E+03  0.79241053954E+02 0.  0.
          5    1    3    3  501    0 -0.32637517118E+02  0.34075571172E+00  0.13233850190E+02  0.35532357492E+02  0.47000000000E+01 0. -1.
        -13    1    4    4    0    0  0.52660767730E+02 -0.12395069269E+02 -0.58590288203E+02  0.79747201028E+02  0.00000000000E+00 0.  1.
         14    1    4    4    0    0 -0.44773458898E+01 -0.71905524530E+01 -0.13456760038E+03  0.13483393395E+03  0.00000000000E+00 0. -1.
         -5    1    5    5    0  503  0.48949825978E+02 -0.14775118858E+02 -0.81719728957E+01  0.51992891260E+02  0.47000000000E+01 0.  1.
         13    1    6    6    0    0  0.68073157931E+01 -0.24188270833E+01 -0.70515120719E+02  0.70884219138E+02  0.00000000000E+00 0. -1.
        -14    1    6    6    0    0 -0.71303046494E+02  0.36438811952E+02 -0.71568048097E+02  0.10739598207E+03  0.00000000000E+00 0.  1.
</event>
<event>
12    1  0.9028446E-003  0.2474004E+03  0.7818608E-02  0.1115192E+00
         21   -1    0    0  503  502  0.00000000000E+00  0.00000000000E+00  0.10285480065E+03  0.10285480065E+03  0.00000000000E+00 0. -1.
         21   -1    0    0  501  503 -0.00000000000E+00 -0.00000000000E+00 -0.69564369861E+03  0.69564369861E+03  0.00000000000E+00 0. -1.
          6    2    1    2  501    0  0.93832962234E+02  0.15162804418E+03 -0.45154167355E+03  0.51487553620E+03  0.17149707356E+03 0.  0.
         24    2    3    3    0    0  0.32902980412E+02  0.24055346195E+02 -0.91300466054E+02  0.12785735377E+03  0.79689786107E+02 0.  0.
         -6    2    1    2    0  502 -0.93832962234E+02 -0.15162804418E+03 -0.14124722441E+03  0.28362296306E+03  0.16939751529E+03 0.  0.
        -24    2    5    5    0    0 -0.33230659789E+02 -0.13323408551E+03 -0.15426487865E+03  0.21879606973E+03  0.72238971831E+02 0.  0.
          5    1    3    3  501    0  0.60929981823E+02  0.12757269799E+03 -0.36024120750E+03  0.38701818244E+03  0.47000000000E+01 0. -1.
        -13    1    4    4    0    0 -0.17592069300E+02  0.18333231834E+02 -0.66744548920E+02  0.71417246532E+02  0.00000000000E+00 0.  1.
         14    1    4    4    0    0  0.50495049712E+02  0.57221143604E+01 -0.24555917134E+02  0.56440107233E+02  0.00000000000E+00 0. -1.
         -5    1    5    5    0  502 -0.60602302445E+02 -0.18393958676E+02  0.13017654241E+02  0.64826893334E+02  0.47000000000E+01 0.  1.
         13    1    6    6    0    0 -0.10136917276E+02 -0.53181829356E+02 -0.14442644107E+02  0.56032615808E+02  0.00000000000E+00 0. -1.
        -14    1    6    6    0    0 -0.23093742513E+02 -0.80052256152E+02 -0.13982223455E+03  0.16276345392E+03  0.00000000000E+00 0.  1.
</event>
<event>
12    1  0.9028446E-003  0.1778876E+03  0.7818608E-02  0.1170607E+00
         21   -1    0    0  501  502  0.00000000000E+00  0.00000000000E+00  0.46721287452E+03  0.46721287452E+03  0.00000000000E+00 0.  1.
         21   -1    0    0  502  503 -0.00000000000E+00 -0.00000000000E+00 -0.12932748291E+03  0.12932748291E+03  0.00000000000E+00 0.  1.
          6    2    1    2  501    0 -0.24947283386E+02  0.28050294023E+02  0.37593886284E+03  0.41462813576E+03  0.17081357214E+03 0.  0.
         24    2    3    3    0    0 -0.72168022877E+02 -0.18867947983E+02  0.25161625121E+03  0.27352774088E+03  0.77087380126E+02 0.  0.
         -6    2    1    2    0  503  0.24947283386E+02 -0.28050294023E+02 -0.38053471228E+02  0.18191222167E+03  0.17388157975E+03 0.  0.
        -24    2    5    5    0    0  0.11538703831E+02  0.26455679006E+02  0.33397303947E+02  0.90928737590E+02  0.79495979590E+02 0.  0.
          5    1    3    3  501    0  0.47220739491E+02  0.46918242006E+02  0.12432261163E+03  0.14110039488E+03  0.47000000000E+01 0. -1.
        -13    1    4    4    0    0 -0.46636989863E+02  0.26185049655E+02  0.15404765028E+03  0.16306852610E+03  0.00000000000E+00 0.  1.
         14    1    4    4    0    0 -0.25531033014E+02 -0.45052997639E+02  0.97568600926E+02  0.11045921478E+03  0.00000000000E+00 0. -1.
         -5    1    5    5    0  503  0.13408579555E+02 -0.54505973029E+02 -0.71450775176E+02  0.90983484077E+02  0.47000000000E+01 0.  1.
         11    1    6    6    0    0  0.41268146448E+02 -0.46575143373E+01  0.17096319481E+02  0.44911429401E+02  0.00000000000E+00 0. -1.
        -12    1    6    6    0    0 -0.29729442617E+02  0.31113193344E+02  0.16300984467E+02  0.46017308189E+02  0.00000000000E+00 0.  1.
</event>
<event>
12    1  0.9028446E-003  0.2274687E+03  0.7818608E-02  0.1128727E+00
         21   -1    0    0  501  502  0.00000000000E+00  0.00000000000E+00  0.32642041239E+03  0.32642041239E+03  0.00000000000E+00 0. -1.
         21   -1    0    0  502  503 -0.00000000000E+00 -0.00000000000E+00 -0.17145787943E+03  0.17145787943E+03  0.00000000000E+00 0.  1.
          6    2    1    2  501    0  0.70257026195E+02  0.13046117096E+03  0.63948968991E+01  0.22755860421E+03  0.17258579544E+03 0.  0.
         24    2    3    3    0    0  0.11441028364E+03  0.11073962017E+03  0.13103207501E+02  0.17851228794E+03  0.79636464158E+02 0.  0.
         -6    2    1    2    0  503 -0.70257026195E+02 -0.13046117096E+03  0.14856763606E+03  0.27031968761E+03  0.17042366081E+03 0.  0.
        -24    2    5    5    0    0 -0.67674166130E+02 -0.15799027745E+02  0.94195287543E+02  0.14330582798E+03  0.82670466910E+02 0.  0.
          5    1    3    3  501    0 -0.44153257441E+02  0.19721550794E+02 -0.67083106022E+01  0.49046316269E+02  0.47000000000E+01 0. -1.
        -13    1    4    4    0    0  0.93974895087E+02  0.42117863395E+02  0.24894899768E+02  0.10594787095E+03  0.00000000000E+00 0.  1.
         14    1    4    4    0    0  0.20435388549E+02  0.68621756773E+02 -0.11791692266E+02  0.72564416997E+02  0.00000000000E+00 0. -1.
         -5    1    5    5    0  503 -0.25828600652E+01 -0.11466214322E+03  0.54372348518E+02  0.12701385962E+03  0.47000000000E+01 0.  1.
         13    1    6    6    0    0 -0.70914875078E+02 -0.40135758539E+02  0.83029720120E+02  0.11633457373E+03  0.00000000000E+00 0. -1.
        -14    1    6    6    0    0  0.32407089483E+01  0.24336730794E+02  0.11165567423E+02  0.26971254255E+02  0.00000000000E+00 0.  1.
</event>
<event>
12    1  0.9028446E-003  0.2000527E+03  0.7818608E-02  0.1149771E+00
         21   -1    0    0  503  502  0.00000000000E+00  0.00000000000E+00  0.65885624628E+03  0.65885624628E+03  0.00000000000E+00 0.  1.
         21   -1    0    0  501  503 -0.00000000000E+00 -0.00000000000E+00 -0.86220783182E+02  0.86220783182E+02  0.00000000000E+00 0.  1.
          6    2    1    2  501    0 -0.92759693365E+02 -0.45978605536E+02  0.83554084163E+02  0.21680027000E+03  0.17118025357E+03 0.  0.
         24    2    3    3    0    0  0.46660036013E+01  0.20196419511E+02  0.47872593028E+01  0.75035665575E+02  0.71956697436E+02 0.  0.
         -6    2    1    2    0  502  0.92759693365E+02  0.45978605536E+02  0.48908137894E+03  0.52827675947E+03  0.17075522389E+03 0.  0.
        -24    2    5    5    0    0  0.13571561894E+02  0.39055283254E+02  0.11184603940E+03  0.14272872880E+03  0.78437561487E+02 0.  0.
          5    1    3    3  501    0 -0.97425696966E+02 -0.66175025047E+02  0.78766824861E+02  0.14176460443E+03  0.47000000000E+01 0. -1.
        -13    1    4    4    0    0 -0.18220012788E+02 -0.12842803850E+01 -0.25533984552E+02  0.31394308548E+02  0.00000000000E+00 0.  1.
         14    1    4    4    0    0  0.22886016390E+02  0.21480699896E+02  0.30321243855E+02  0.43641357027E+02  0.00000000000E+00 0. -1.
         -5    1    5    5    0  502  0.79188131471E+02  0.69233222821E+01  0.37723533953E+03  0.38554803067E+03  0.47000000000E+01 0.  1.
         11    1    6    6    0    0 -0.14281408669E+02  0.50455619692E+02  0.43798884377E+02  0.68323279084E+02  0.00000000000E+00 0. -1.
        -12    1    6    6    0    0  0.27852970563E+02 -0.11400336439E+02  0.68047155027E+02  0.74405449716E+02  0.00000000000E+00 0.  1.
</event>
<event>
12    1  0.9028446E-003  0.1864654E+03  0.7818608E-02  0.1162169E+00
         21   -1    0    0  503  502  0.00000000000E+00  0.00000000000E+00  0.14116523318E+03  0.14116523318E+03  0.00000000000E+00 0. -1.
         21   -1    0    0  501  503 -0.00000000000E+00 -0.00000000000E+00 -0.25031948201E+03  0.25031948201E+03  0.00000000000E+00 0.  1.
          6    2    1    2  501    0 -0.61181753768E+02  0.30509258295E+02 -0.86996151337E+02  0.20576116999E+03  0.17347998989E+03 0.  0.
         24    2    3    3    0    0 -0.28630758365E+02  0.49947288043E+02 -0.11997511044E+03  0.15529230785E+03  0.80045123790E+02 0.  0.
         -6    2    1    2    0  502  0.61181753768E+02 -0.30509258295E+02 -0.22158097489E+02  0.18572354520E+03  0.17125487473E+03 0.  0.
        -24    2    5    5    0    0  0.97391056893E+02 -0.50304614859E+02  0.60479376363E+01  0.13551756755E+03  0.79453516757E+02 0.  0.
          5    1    3    3  501    0 -0.32550995403E+02 -0.19438029749E+02  0.32978959108E+02  0.50468862143E+02  0.47000000000E+01 0. -1.
        -11    1    4    4    0    0 -0.28289133823E+02  0.45841528059E+02 -0.23568854596E+02  0.58798058591E+02  0.00000000000E+00 0.  1.
         12    1    4    4    0    0 -0.34162454261E+00  0.41057599847E+01 -0.96406255849E+02  0.96494249255E+02  0.00000000000E+00 0. -1.
         -5    1    5    5    0  502 -0.36209303125E+02  0.19795356564E+02 -0.28206035126E+02  0.50205977650E+02  0.47000000000E+01 0.  1.
         11    1    6    6    0    0  0.73946379972E+02 -0.61410271262E+02  0.29500130095E+02  0.10054623913E+03  0.00000000000E+00 0. -1.
        -12    1    6    6    0    0  0.23444676921E+02  0.11105656403E+02 -0.23452192459E+02  0.34971328416E+02  0.00000000000E+00 0.  1.
</event>
<event>
12    1  0.9028446E-003  0.2913354E+03  0.7818608E-02  0.1089696E+00
         21   -1    0    0  503  502  0.00000000000E+00  0.00000000000E+00  0.44502060525E+03  0.44502060525E+03  0.00000000000E+00 0.  1.
         21   -1    0    0  501  503 -0.00000000000E+00 -0.00000000000E+00 -0.19789754955E+03  0.19789754955E+03  0.00000000000E+00 0. -1.
          6    2    1    2  501    0 -0.22379257454E+03  0.70467264680E+02  0.18559606714E+03  0.34515665842E+03  0.17215826123E+03 0.  0.
         24    2    3    3    0    0 -0.92002320090E+02  0.31521208781E+02  0.16319134688E+03  0.20583857659E+03  0.79247021457E+02 0.  0.
         -6    2    1    2    0  502  0.22379257454E+03 -0.70467264680E+02  0.61526988554E+02  0.29776149638E+03  0.17270664896E+03 0.  0.
        -24    2    5    5    0    0  0.19072977237E+03 -0.57018625083E+02  0.10696575621E+03  0.23978920644E+03  0.80176186315E+02 0.  0.
          5    1    3    3  501    0 -0.13179025445E+03  0.38946055900E+02  0.22404720259E+02  0.13931808184E+03  0.47000000000E+01 0. -1.
        -11    1    4    4    0    0 -0.66204729777E+02  0.55876219107E+02  0.92437994527E+02  0.12668859830E+03  0.00000000000E+00 0.  1.
         12    1    4    4    0    0 -0.25797590313E+02 -0.24355010326E+02  0.70753352351E+02  0.79149978288E+02  0.00000000000E+00 0. -1.
         -5    1    5    5    0  502  0.33062802170E+02 -0.13448639598E+02 -0.45438767652E+02  0.57972289933E+02  0.47000000000E+01 0.  1.
         11    1    6    6    0    0  0.52918861198E+02 -0.20538346939E+02 -0.71095488672E+01  0.57208174683E+02  0.00000000000E+00 0. -1.
        -12    1    6    6    0    0  0.13781091117E+03 -0.36480278144E+02  0.11407530507E+03  0.18258103176E+03  0.00000000000E+00 0.  1.
</event>
<event>
12    1  0.9028446E-003  0.1791925E+03  0.7818608E-02  0.1168644E+00
         21   -1    0    0  501  502  0.00000000000E+00  0.00000000000E+00  0.43653113045E+02  0.43653113045E+02  0.00000000000E+00 0. -1.
         21   -1    0    0  502  503 -0.00000000000E+00 -0.00000000000E+00 -0.84271716273E+03  0.84271716273E+03  0.00000000000E+00 0. -1.
          6    2    1    2  501    0  0.66903566026E+01 -0.48924553107E+02 -0.24057460399E+03  0.29983774445E+03  0.17201209301E+03 0.  0.
         24    2    3    3    0    0  0.34166884873E+02 -0.61842964659E+02 -0.24669590483E+03  0.26851035568E+03  0.79038050006E+02 0.  0.
         -6    2    1    2    0  503 -0.66903566026E+01  0.48924553107E+02 -0.55848944569E+03  0.58653253133E+03  0.17225439497E+03 0.  0.
        -24    2    5    5    0    0  0.36259242888E+02  0.68417124248E+02 -0.23933359734E+03  0.26387609800E+03  0.79714419636E+02 0.  0.
          5    1    3    3  501    0 -0.27476528270E+02  0.12918411552E+02  0.61213008390E+01  0.31327388764E+02  0.47000000000E+01 0. -1.
        -11    1    4    4    0    0 -0.15233253468E+00 -0.39675988709E+02 -0.20961287960E+03  0.21333486958E+03  0.00000000000E+00 0.  1.
         12    1    4    4    0    0  0.34319217407E+02 -0.22166975950E+02 -0.37083025231E+02  0.55175486101E+02  0.00000000000E+00 0. -1.
         -5    1    5    5    0  503 -0.42949599491E+02 -0.19492571142E+02 -0.31915584836E+03  0.32265643333E+03  0.47000000000E+01 0.  1.
         11    1    6    6    0    0  0.39434745398E+00  0.30646354257E+01 -0.13821141022E+03  0.13824594538E+03  0.00000000000E+00 0. -1.
        -12    1    6    6    0    0  0.35864895434E+02  0.65352488823E+02 -0.10112218712E+03  0.12563015262E+03  0.00000000000E+00 0.  1.
</event>
<event>
12    1  0.9028446E-003  0.1967374E+03  0.7818608E-02  0.1152741E+00
         21   -1    0    0  501  502  0.00000000000E+00  0.00000000000E+00  0.26999093701E+02  0.26999093701E+02  0.00000000000E+00 0.  1.
         21   -1    0    0  502  503 -0.00000000000E+00 -0.00000000000E+00 -0.14339490396E+04  0.14339490396E+04  0.00000000000E+00 0.  1.
          6    2    1    2  501    0  0.20561243922E+02  0.91878363613E+02 -0.64792691502E+03  0.67684255733E+03  0.17158718413E+03 0.  0.
         24    2    3    3    0    0 -0.46201351058E+02  0.38169814951E+02 -0.38515069736E+03  0.40040941378E+03  0.91624993052E+02 0.  0.
         -6    2    1    2    0  503 -0.20561243922E+02 -0.91878363613E+02 -0.75902303085E+03  0.78410557594E+03  0.17274604021E+03 0.  0.
        -24    2    5    5    0    0 -0.38480669792E+02 -0.51285026842E+02 -0.71204605238E+03  0.71931474850E+03  0.79329759748E+02 0.  0.
          5    1    3    3  501    0  0.66762594980E+02  0.53708548661E+02 -0.26277621766E+03  0.27643314356E+03  0.47000000000E+01 0. -1.
        -13    1    4    4    0    0  0.65933425053E+01  0.49717527680E+02 -0.24749224988E+03  0.25252270883E+03  0.00000000000E+00 0.  1.
         14    1    4    4    0    0 -0.52794693563E+02 -0.11547712729E+02 -0.13765844748E+03  0.14788670495E+03  0.00000000000E+00 0. -1.
         -5    1    5    5    0  503  0.17919425869E+02 -0.40593336770E+02 -0.46976978475E+02  0.64790827439E+02  0.47000000000E+01 0.  1.
         11    1    6    6    0    0 -0.54434867790E+02 -0.24517678087E+02 -0.28786780659E+03  0.29399344456E+03  0.00000000000E+00 0. -1.
        -12    1    6    6    0    0  0.15954197998E+02 -0.26767348755E+02 -0.42417824579E+03  0.42532130395E+03  0.00000000000E+00 0.  1.
</event>
<event>
12    1  0.9028446E-003  0.1932143E+03  0.7818608E-02  0.1155677E+00
         21   -1    0    0  503  502  0.00000000000E+00  0.00000000000E+00  0.93588831121E+02  0.93588831121E+02  0.00000000000E+00 0. -1.
         21   -1    0    0  501  503 -0.00000000000E+00 -0.00000000000E+00 -0.40690134666E+03  0.40690134666E+03  0.00000000000E+00 0. -1.
          6    2    1    2  501    0 -0.39812759780E+02 -0.79141725052E+02 -0.19358036671E+03  0.27350524466E+03  0.17170699461E+03 0.  0.
         24    2    3    3    0    0 -0.40047074902E+02  0.20343529899E+02 -0.72871270868E+02  0.11701196469E+03  0.79774371492E+02 0.  0.
         -6    2    1    2    0  502  0.39812759780E+02  0.79141725052E+02 -0.11973214883E+03  0.22698493312E+03  0.17128311041E+03 0.  0.
        -24    2    5    5    0    0  0.10465692012E+01  0.10728657190E+03 -0.11895949957E+03  0.17884309141E+03  0.79510911123E+02 0.  0.
          5    1    3    3  501    0  0.23431512143E+00 -0.99485254952E+02 -0.12070909584E+03  0.15649327997E+03  0.47000000000E+01 0. -1.
        -13    1    4    4    0    0  0.24484837720E+02  0.36925852471E+01 -0.22707053092E+02  0.33596915396E+02  0.00000000000E+00 0.  1.
         14    1    4    4    0    0 -0.64531912622E+02  0.16650944652E+02 -0.50164217776E+02  0.83415049299E+02  0.00000000000E+00 0. -1.
         -5    1    5    5    0  502  0.38766190579E+02 -0.28144846852E+02 -0.77264925822E+00  0.48141841710E+02  0.47000000000E+01 0.  1.
         11    1    6    6    0    0  0.42179907082E+01  0.23617910852E+02  0.92517421469E+01  0.25713651848E+02  0.00000000000E+00 0. -1.
        -12    1    6    6    0    0 -0.31714215070E+01  0.83668661053E+02 -0.12821124172E+03  0.15312943956E+03  0.00000000000E+00 0.  1.
</event>
<event>
12    1  0.9028446E-003  0.2125067E+03  0.7818608E-02  0.1139629E+00
         21   -1    0    0  501  502  0.00000000000E+00  0.00000000000E+00  0.24441418446E+02  0.24441418446E+02  0.00000000000E+00 0. -1.
         21   -1    0    0  502  503 -0.00000000000E+00 -0.00000000000E+00 -0.18680155364E+04  0.18680155364E+04  0.00000000000E+00 0. -1.
          6    2    1    2  501    0  0.92355413735E+02 -0.81598050383E+02 -0.81918744016E+03  0.84626042763E+03  0.17291872363E+03 0.  0.
         24    2    3    3    0    0  0.33064852859E+02  0.20916379312E+02 -0.41734691307E+03  0.42730639899E+03  0.82955007959E+02 0.  0.
         -6    2    1    2    0  503 -0.92355413735E+02  0.81598050383E+02 -0.10243866778E+04  0.10461965273E+04  0.17312233724E+03 0.  0.
        -24    2    5    5    0    0  0.18989331012E+02  0.39306038825E+02 -0.51998887983E+03  0.52790559057E+03  0.79939464755E+02 0.  0.
          5    1    3    3  501    0  0.59290560876E+02 -0.10251442970E+03 -0.40184052709E+03  0.41895402864E+03  0.47000000000E+01 0. -1.
        -11    1    4    4    0    0 -0.14590189263E+02  0.16160034735E+02 -0.30317949063E+02  0.37325572745E+02  0.00000000000E+00 0.  1.
         12    1    4    4    0    0  0.47655042123E+02  0.47563445774E+01 -0.38702896401E+03  0.38998082624E+03  0.00000000000E+00 0. -1.
         -5    1    5    5    0  503 -0.11134474475E+03  0.42292011558E+02 -0.50439779800E+03  0.51829093668E+03  0.47000000000E+01 0.  1.
         11    1    6    6    0    0 -0.17201662076E+02  0.41979174216E+02 -0.39957506811E+03  0.40214224262E+03  0.00000000000E+00 0. -1.
        -12    1    6    6    0    0  0.36190993088E+02 -0.26731353915E+01 -0.12041381172E+03  0.12576334795E+03  0.00000000000E+00 0.  1.
</event>
<event>
12    1  0.9028446E-003  0.2254590E+03  0.7818608E-02  0.1130017E+00
         21   -1    0    0  503  502  0.00000000000E+00  0.00000000000E+00  0.87012893956E+03  0.87012893956E+03  0.00000000000E+00 0.  1.
         21   -1    0    0  501  503 -0.00000000000E+00 -0.00000000000E+00 -0.58418159436E+02  0.58418159436E+02  0.00000000000E+00 0.  1.
          6    2    1    2  501    0 -0.13020141897E+03 -0.62254928255E+02  0.37940346313E+03  0.44133743910E+03  0.17321565093E+03 0.  0.
         24    2    3    3    0    0 -0.69827193258E+01 -0.54109390666E+02  0.21088085941E+03  0.23236099141E+03  0.80896903143E+02 0.  0.
         -6    2    1    2    0  502  0.13020141897E+03  0.62254928255E+02  0.43230731700E+03  0.48720965990E+03  0.17220787082E+03 0.  0.
        -24    2    5    5    0    0  0.31732247823E+02  0.34856858725E+02  0.32746500056E+03  0.34071449549E+03  0.81431595150E+02 0.  0.
          5    1    3    3  501    0 -0.12321869964E+03 -0.81455375885E+01  0.16852260372E+03  0.20897644769E+03  0.47000000000E+01 0. -1.
        -11    1    4    4    0    0 -0.20948585233E+02 -0.11687642392E+02  0.17041094538E+03  0.17209106460E+03  0.00000000000E+00 0.  1.
         12    1    4    4    0    0  0.13965865907E+02 -0.42421748274E+02  0.40469914027E+02  0.60269926817E+02  0.00000000000E+00 0. -1.
         -5    1    5    5    0  502  0.98469171146E+02  0.27398069530E+02  0.10484231644E+03  0.14649516441E+03  0.47000000000E+01 0.  1.
         13    1    6    6    0    0 -0.18579659198E+02  0.39206354036E+02  0.14017158262E+03  0.14673245894E+03  0.00000000000E+00 0. -1.
        -14    1    6    6    0    0  0.50311907021E+02 -0.43494953107E+01  0.18729341794E+03  0.19398203654E+03  0.00000000000E+00 0.  1.
</event>
<event>
12    1  0.9028446E-003  0.1877644E+03  0.7818608E-02  0.1160705E+00
         21   -1    0    0  501  502  0.00000000000E+00  0.00000000000E+00  0.36712337451E+02  0.36712337451E+02  0.00000000000E+00 0. -1.
         21   -1    0    0  502  503 -0.00000000000E+00 -0.00000000000E+00 -0.96827373625E+03  0.96827373625E+03  0.00000000000E+00 0. -1.
          6    2    1    2  501    0 -0.37353668475E+02  0.63272125188E+02 -0.40944555283E+03  0.45044547682E+03  0.17279122804E+03 0.  0.
         24    2    3    3    0    0 -0.11487802757E+02  0.14401387813E+02 -0.37966762606E+03  0.38746764816E+03  0.75128573176E+02 0.  0.
         -6    2    1    2    0  503  0.37353668475E+02 -0.63272125188E+02 -0.52211584598E+03  0.55454059688E+03  0.17178957651E+03 0.  0.
        -24    2    5    5    0    0  0.81053982345E+02 -0.80423789258E+02 -0.37554066102E+03  0.40055919587E+03  0.79869564817E+02 0.  0.
          5    1    3    3  501    0 -0.25865865717E+02  0.48870737376E+02 -0.29777926766E+02  0.62977828666E+02  0.47000000000E+01 0. -1.
        -13    1    4    4    0    0 -0.37432543908E+02 -0.65242498504E+01 -0.12556356509E+03  0.13118677547E+03  0.00000000000E+00 0.  1.
         14    1    4    4    0    0  0.25944741151E+02  0.20925637663E+02 -0.25410406097E+03  0.25628087269E+03  0.00000000000E+00 0. -1.
         -5    1    5    5    0  503 -0.43700313870E+02  0.17151664069E+02 -0.14657518496E+03  0.15398140101E+03  0.47000000000E+01 0.  1.
         13    1    6    6    0    0  0.36811987488E+02 -0.58035335988E+02 -0.10486208962E+03  0.12537655477E+03  0.00000000000E+00 0. -1.
        -14    1    6    6    0    0  0.44241994857E+02 -0.22388453270E+02 -0.27067857140E+03  0.27518264110E+03  0.00000000000E+00 0.  1.
</event>
<event>
12    1  0.9028446E-003  0.1978677E+03  0.7818608E-02  0.1151733E+00
         21   -1    0    0  503  502  0.00000000000E+00  0.00000000000E+00  0.66076332616E+02  0.66076332616E+02  0.00000000000E+00 0. -1.
         21   -1    0    0  501  503 -0.00000000000E+00 -0.00000000000E+00 -0.59048262385E+03  0.59048262385E+03  0.00000000000E+00 0. -1.
          6    2    1    2  501    0 -0.10481660785E+02 -0.97291728069E+02 -0.27122355585E+03  0.33522873660E+03  0.17099866382E+03 0.  0.
         24    2    3    3    0    0  0.17810058647E+02 -0.35142114902E+02 -0.45212760919E+02  0.99080551696E+02  0.78870752156E+02 0.  0.
         -6    2    1    2    0  502  0.10481660785E+02  0.97291728069E+02 -0.25318273538E+03  0.32133021987E+03  0.17197693782E+03 0.  0.
        -24    2    5    5    0    0  0.12632901504E+02  0.13383252737E+03 -0.22858180649E+03  0.27697761507E+03  0.79976380340E+02 0.  0.
          5    1    3    3  501    0 -0.28291719432E+02 -0.62149613167E+02 -0.22601079493E+03  0.23614818490E+03  0.47000000000E+01 0. -1.
        -11    1    4    4    0    0 -0.52714665027E+01 -0.43396030414E+02  0.42053640975E+01  0.43916840756E+02  0.00000000000E+00 0.  1.
         12    1    4    4    0    0  0.23081525150E+02  0.82539155122E+01 -0.49418125016E+02  0.55163710940E+02  0.00000000000E+00 0. -1.
         -5    1    5    5    0  502 -0.21512407190E+01 -0.36540799297E+02 -0.24600928895E+02  0.44352604799E+02  0.47000000000E+01 0.  1.
         13    1    6    6    0    0  0.77184284927E+00  0.37612152430E+02 -0.11674156579E+02  0.39389791617E+02  0.00000000000E+00 0. -1.
        -14    1    6    6    0    0  0.11861058655E+02  0.96220374936E+02 -0.21690764991E+03  0.23758782346E+03  0.00000000000E+00 0.  1.
</event>
<event>
12    1  0.9028446E-003  0.2136145E+03  0.7818608E-02  0.1141255E+00
         21   -1    0    0  501  502  0.00000000000E+00  0.00000000000E+00  0.30057335814E+02  0.30057335814E+02  0.00000000000E+00 0.  1.
         21   -1    0    0  502  503 -0.00000000000E+00 -0.00000000000E+00 -0.14540496878E+04  0.14540496878E+04  0.00000000000E+00 0.  1.
          6    2    1    2  501    0  0.34508286396E+01 -0.12627275313E+03 -0.82880712121E+03  0.85589275506E+03  0.17226272841E+03 0.  0.
         24    2    3    3    0    0 -0.95382742781E+01 -0.49094994124E+02 -0.69030055456E+03  0.69673471322E+03  0.80144293922E+02 0.  0.
         -6    2    1    2    0  503 -0.34508286396E+01  0.12627275313E+03 -0.59518523080E+03  0.62821426857E+03  0.15636812935E+03 0.  0.
        -24    2    5    5    0    0  0.15544817055E+02  0.10496029284E+03 -0.28034164304E+03  0.31204401337E+03  0.86727879321E+02 0.  0.
          5    1    3    3  501    0  0.12989102918E+02 -0.77177759004E+02 -0.13850656665E+03  0.15915804185E+03  0.47000000000E+01 0. -1.
        -13    1    4    4    0    0  0.91211784823E+01 -0.26348268341E+02 -0.61866315528E+03  0.61929114868E+03  0.00000000000E+00 0.  1.
         14    1    4    4    0    0 -0.18659452760E+02 -0.22746725783E+02 -0.71637399287E+02  0.77443564534E+02  0.00000000000E+00 0. -1.
         -5    1    5    5    0  503 -0.18995645694E+02  0.21312460291E+02 -0.31484358776E+03  0.31617025520E+03  0.47000000000E+01 0.  1.
         11    1    6    6    0    0  0.25577719331E+01 -0.10121917883E+02 -0.20820956679E+01  0.10645681813E+02  0.00000000000E+00 0. -1.
        -12    1    6    6    0    0  0.12987045122E+02  0.11508221072E+03 -0.27825954737E+03  0.30139833156E+03  0.00000000000E+00 0.  1.
</event>
<event>
12    1  0.9028446E-003  0.2154031E+03  0.7818608E-02  0.1137500E+00
         21   -1    0    0  503  502  0.00000000000E+00  0.00000000000E+00  0.28050881610E+03  0.28050881610E+03  0.00000000000E+00 0.  1.
         21   -1    0    0  501  503 -0.00000000000E+00 -0.00000000000E+00 -0.22201150101E+03  0.22201150101E+03  0.00000000000E+00 0.  1.
          6    2    1    2  501    0  0.11883510806E+03  0.50126502089E+02 -0.98221702729E+02  0.23674035515E+03  0.17252258910E+03 0.  0.
         24    2    3    3    0    0  0.19723562753E+01  0.39503054892E+02 -0.89676392927E+01  0.89233954525E+02  0.79485209634E+02 0.  0.
         -6    2    1    2    0  502 -0.11883510806E+03 -0.50126502089E+02  0.15671901782E+03  0.26577996196E+03  0.17159163300E+03 0.  0.
        -24    2    5    5    0    0 -0.58101309014E+02 -0.78412943827E+02  0.15379700574E+03  0.19855388601E+03  0.79030214523E+02 0.  0.
          5    1    3    3  501    0  0.11686275179E+03  0.10623447197E+02 -0.89254063436E+02  0.14750640062E+03  0.47000000000E+01 0. -1.
        -13    1    4    4    0    0  0.34077719934E+02 -0.38142765902E+01 -0.84377985008E+01  0.35313398949E+02  0.00000000000E+00 0.  1.
         14    1    4    4    0    0 -0.32105363658E+02  0.43317331482E+02 -0.52984079195E+00  0.53920555576E+02  0.00000000000E+00 0. -1.
         -5    1    5    5    0  502 -0.60733799047E+02  0.28286441738E+02  0.29220120797E+01  0.67226075949E+02  0.47000000000E+01 0.  1.
         11    1    6    6    0    0 -0.38279577645E+02 -0.69118977699E+02  0.15763462843E+03  0.17632763602E+03  0.00000000000E+00 0. -1.
        -12    1    6    6    0    0 -0.19821731369E+02 -0.92939661280E+01 -0.38376226936E+01  0.22226249994E+02  0.00000000000E+00 0.  1.
</event>
<event>
12    1  0.9028446E-003  0.2058804E+03  0.7818608E-02  0.1144893E+00
         21   -1    0    0  503  502  0.00000000000E+00  0.00000000000E+00  0.22676562276E+04  0.22676562276E+04  0.00000000000E+00 0.  1.
         21   -1    0    0  501  503 -0.00000000000E+00 -0.00000000000E+00 -0.22467998681E+02  0.22467998681E+02  0.00000000000E+00 0. -1.
          6    2    1    2  501    0  0.11178342808E+03  0.13197277429E+02  0.65278919230E+03  0.68448556452E+03  0.17238635541E+03 0.  0.
         24    2    3    3    0    0  0.87556900047E+02 -0.26441784325E+02  0.23904542251E+03  0.26811532433E+03  0.79860718844E+02 0.  0.
         -6    2    1    2    0  502 -0.11178342808E+03 -0.13197277429E+02  0.15923990366E+04  0.16056386618E+04  0.17225306204E+03 0.  0.
        -24    2    5    5    0    0 -0.10407873053E+03  0.50846133652E+02  0.11953881932E+04  0.12033941830E+04  0.76071781067E+02 0.  0.
          5    1    3    3  501    0  0.24226528032E+02  0.39639061754E+02  0.41374376979E+03  0.41637024019E+03  0.47000000000E+01 0. -1.
        -13    1    4    4    0    0  0.36403407343E+02 -0.14591261212E+02  0.19694879911E+03  0.20081569272E+03  0.00000000000E+00 0.  1.
         14    1    4    4    0    0  0.51153492704E+02 -0.11850523114E+02  0.42096623399E+02  0.67299631615E+02  0.00000000000E+00 0. -1.
         -5    1    5    5    0  502 -0.77046975517E+01 -0.64043411081E+02  0.39701084343E+03  0.40224447873E+03  0.47000000000E+01 0.  1.
         13    1    6    6    0    0 -0.35732238619E+02  0.13811919165E+02  0.13998933470E+03  0.14513640418E+03  0.00000000000E+00 0. -1.
        -14    1    6    6    0    0 -0.68346491909E+02  0.37034214487E+02  0.10553988585E+04  0.10582577788E+04  0.00000000000E+00 0.  1.
</event>
<event>
12    1  0.9028446E-003  0.2130422E+03  0.7818608E-02  0.1139411E+00
         21   -1    0    0  501  502  0.00000000000E+00  0.00000000000E+00  0.63117582843E+02  0.63117582843E+02  0.00000000000E+00 0. -1.
         21   -1    0    0  502  503 -0.00000000000E+00 -0.00000000000E+00 -0.11886440459E+04  0.11886440459E+04  0.00000000000E+00 0. -1.
          6    2    1    2  501    0  0.24427818287E+02  0.12266792143E+03 -0.16676181124E+03  0.26961263747E+03  0.17098928429E+03 0.  0.
         24    2    3    3    0    0 -0.50866508585E+02  0.54126482954E+02 -0.10156254769E+03  0.14861594985E+03  0.79086481800E+02 0.  0.
         -6    2    1    2    0  503 -0.24427818287E+02 -0.12266792143E+03 -0.95876465183E+03  0.98214899129E+03  0.17246114412E+03 0.  0.
        -24    2    5    5    0    0 -0.62013299983E+02 -0.13819128753E+03 -0.77765008132E+03  0.79646587149E+03  0.81705288293E+02 0.  0.
          5    1    3    3  501    0  0.75294326872E+02  0.68541438478E+02 -0.65199263549E+02  0.12099668762E+03  0.47000000000E+01 0. -1.
        -11    1    4    4    0    0 -0.94241863177E+01 -0.57208131631E+01  0.10342950812E+02  0.15116865498E+02  0.00000000000E+00 0.  1.
         12    1    4    4    0    0 -0.41442322267E+02  0.59847296117E+02 -0.11190549850E+03  0.13349908435E+03  0.00000000000E+00 0. -1.
         -5    1    5    5    0  503  0.37585481695E+02  0.15523366097E+02 -0.18111457051E+03  0.18568311981E+03  0.47000000000E+01 0.  1.
         13    1    6    6    0    0 -0.21453610031E+02 -0.20052627296E+02 -0.48523589467E+02  0.56717757181E+02  0.00000000000E+00 0. -1.
        -14    1    6    6    0    0 -0.40559689951E+02 -0.11813866023E+03 -0.72912649186E+03  0.73974811430E+03  0.00000000000E+00 0.  1.
</event>
<event>
12    1  0.9028446E-003  0.1853446E+03  0.7818608E-02  0.1163148E+00
         21   -1    0    0  503  502  0.00000000000E+00  0.00000000000E+00  0.97558643570E+02  0.97558643570E+02  0.00000000000E+00 0.  1.
         21   -1    0    0  501  503 -0.00000000000E+00 -0.00000000000E+00 -0.38750340527E+03  0.38750340527E+03  0.00000000000E+00 0.  1.
          6    2    1    2  501    0  0.22629720765E+02 -0.43214169611E+02 -0.22232974268E+03  0.28945319578E+03  0.17881014891E+03 0.  0.
         24    2    3    3    0    0  0.63957440306E+02  0.17424709366E+01 -0.20230895456E+03  0.22501716635E+03  0.74901413093E+02 0.  0.
         -6    2    1    2    0  502 -0.22629720765E+02  0.43214169611E+02 -0.67615019025E+02  0.19560885306E+03  0.17695045601E+03 0.  0.
        -24    2    5    5    0    0 -0.58036735815E+00 -0.45182953222E+02 -0.45376634782E+02  0.10171071120E+03  0.79020210714E+02 0.  0.
          5    1    3    3  501    0 -0.41327719542E+02 -0.44956640548E+02 -0.20020788123E+02  0.64436029432E+02  0.47000000000E+01 0. -1.
        -13    1    4    4    0    0  0.68581741433E+02  0.11260596383E+02 -0.97831861169E+02  0.12000553883E+03  0.00000000000E+00 0.  1.
         14    1    4    4    0    0 -0.46243011268E+01 -0.95181254466E+01 -0.10447709339E+03  0.10501162752E+03  0.00000000000E+00 0. -1.
         -5    1    5    5    0  502 -0.22049353406E+02  0.88397122833E+02 -0.22238384243E+02  0.93898141859E+02  0.47000000000E+01 0.  1.
         11    1    6    6    0    0  0.36347235802E+02 -0.14689944961E+02 -0.35338092975E+02  0.52779701103E+02  0.00000000000E+00 0. -1.
        -12    1    6    6    0    0 -0.36927603160E+02 -0.30493008261E+02 -0.10038541807E+02  0.48931010101E+02  0.00000000000E+00 0.  1.
</event>
<event>
12    1  0.9028446E-003  0.2448078E+03  0.7818608E-02  0.1116860E+00
         21   -1    0    0  501  502  0.00000000000E+00  0.00000000000E+00  0.86005023766E+03  0.86005023766E+03  0.00000000000E+00 0.  1.
         21   -1    0    0  502  503 -0.00000000000E+00 -0.00000000000E+00 -0.12544290671E+03  0.12544290671E+03  0.00000000000E+00 0. -1.
          6    2    1    2  501    0  0.85079568579E+01  0.17410148984E+03  0.69641343559E+03  0.73772386489E+03  0.16988558935E+03 0.  0.
         24    2    3    3    0    0  0.45922608134E+02  0.50007999295E+02  0.21419817123E+03  0.23837158272E+03  0.79564244239E+02 0.  0.
         -6    2    1    2    0  503 -0.85079568579E+01 -0.17410148984E+03  0.38193895359E+02  0.24776927948E+03  0.17189278088E+03 0.  0.
        -24    2    5    5    0    0  0.10884224372E+02 -0.19319702897E+03  0.12399522757E+02  0.20997859325E+03  0.80583516407E+02 0.  0.
          5    1    3    3  501    0 -0.37414651276E+02  0.12409349054E+03  0.48221526436E+03  0.49935228217E+03  0.47000000000E+01 0. -1.
        -13    1    4    4    0    0  0.46091310464E+02  0.30037690499E+02  0.21111303884E+03  0.21816367002E+03  0.00000000000E+00 0.  1.
         14    1    4    4    0    0 -0.16870233002E+00  0.19970308796E+02  0.30851323918E+01  0.20207912701E+02  0.00000000000E+00 0. -1.
         -5    1    5    5    0  503 -0.19392181230E+02  0.19095539133E+02  0.25794372602E+02  0.37790686228E+02  0.47000000000E+01 0.  1.
         13    1    6    6    0    0 -0.21828003473E+02 -0.32039971399E+02 -0.18008433119E+02  0.42747224077E+02  0.00000000000E+00 0. -1.
        -14    1    6    6    0    0  0.32712227845E+02 -0.16115705757E+03  0.30407955876E+02  0.16723136918E+03  0.00000000000E+00 0.  1.
</event>
<event>
12    1  0.9028446E-003  0.2001144E+03  0.7818608E-02  0.1149787E+00
         21   -1    0    0  501  502  0.00000000000E+00  0.00000000000E+00  0.10698635968E+03  0.10698635968E+03  0.00000000000E+00 0.  1.
         21   -1    0    0  502  503 -0.00000000000E+00 -0.00000000000E+00 -0.61712121070E+03  0.61712121070E+03  0.00000000000E+00 0. -1.
          6    2    1    2  501    0  0.74004710433E+02  0.66835210957E+02 -0.27631243778E+02  0.20201302963E+03  0.17349967123E+03 0.  0.
         24    2    3    3    0    0  0.10112993302E+03  0.29881375987E+02 -0.60926462777E+02  0.14516212614E+03  0.78992714957E+02 0.  0.
         -6    2    1    2    0  503 -0.74004710433E+02 -0.66835210957E+02 -0.48250360724E+03  0.52209454075E+03  0.17271171327E+03 0.  0.
        -24    2    5    5    0    0 -0.49207694273E+02 -0.91326257100E+02 -0.45696496543E+03  0.47863173393E+03  0.97516535428E+02 0.  0.
          5    1    3    3  501    0 -0.27125222584E+02  0.36953834970E+02  0.33295218999E+02  0.56850903488E+02  0.47000000000E+01 0. -1.
        -11    1    4    4    0    0  0.94089263053E+01  0.36827213456E+02 -0.73541549107E+01  0.38715050556E+02  0.00000000000E+00 0.  1.
         12    1    4    4    0    0  0.91721006711E+02 -0.69458374691E+01 -0.53572307866E+02  0.10644707558E+03  0.00000000000E+00 0. -1.
         -5    1    5    5    0  503 -0.24797016160E+02  0.24491046143E+02 -0.25538641801E+02  0.43462806820E+02  0.47000000000E+01 0.  1.
         11    1    6    6    0    0 -0.77405062420E+02 -0.49660058243E+02 -0.30391141703E+03  0.31752136066E+03  0.00000000000E+00 0. -1.
        -12    1    6    6    0    0  0.28197368148E+02 -0.41666198857E+02 -0.15305354840E+03  0.16111037327E+03  0.00000000000E+00 0.  1.
</event>
<event>
12    1  0.9028446E-003  0.1945079E+03  0.7818608E-02  0.1154759E+00
         21   -1    0    0  501  502  0.00000000000E+00  0.00000000000E+00  0.41680349074E+02  0.41680349074E+02  0.00000000000E+00 0. -1.
         21   -1    0    0  502  503 -0.00000000000E+00 -0.00000000000E+00 -0.99717704494E+03  0.99717704494E+03  0.00000000000E+00 0.  1.
          6    2    1    2  501    0 -0.81364121442E+02  0.30897747500E+02 -0.31821105412E+03  0.37294984910E+03  0.17394977415E+03 0.  0.
         24    2    3    3    0    0 -0.80480166203E+01 -0.17840747374E+02 -0.24455469895E+03  0.25806712296E+03  0.80053584165E+02 0.  0.
         -6    2    1    2    0  503  0.81364121442E+02 -0.30897747500E+02 -0.63728564175E+03  0.66590754492E+03  0.17240962308E+03 0.  0.
        -24    2    5    5    0    0  0.22425917438E+02 -0.12051346813E+02 -0.56290174521E+03  0.56903674036E+03  0.79349104508E+02 0.  0.
          5    1    3    3  501    0 -0.73316104821E+02  0.48738494874E+02 -0.73656355164E+02  0.11488272614E+03  0.47000000000E+01 0. -1.
        -13    1    4    4    0    0  0.16006152599E+02  0.24489924130E+02 -0.54285718143E+02  0.61667596833E+02  0.00000000000E+00 0.  1.
         14    1    4    4    0    0 -0.24054169219E+02 -0.42330671504E+02 -0.19026898081E+03  0.19639952613E+03  0.00000000000E+00 0. -1.
         -5    1    5    5    0  503  0.58938204004E+02 -0.18846400687E+02 -0.74383896545E+02  0.96870804556E+02  0.47000000000E+01 0.  1.
         11    1    6    6    0    0 -0.22669688854E+02 -0.39127687784E+01 -0.63529737971E+02  0.67566649754E+02  0.00000000000E+00 0. -1.
        -12    1    6    6    0    0  0.45095606291E+02 -0.81385780349E+01 -0.49937200724E+03  0.50147009061E+03  0.00000000000E+00 0.  1.
</event>
<event>
12    1  0.9028446E-003  0.1804997E+03  0.7818608E-02  0.1167338E+00
         21   -1    0    0  503  502  0.00000000000E+00  0.00000000000E+00  0.17729401295E+03  0.17729401295E+03  0.00000000000E+00 0. -1.
         21   -1    0    0  501  503 -0.00000000000E+00 -0.00000000000E+00 -0.29527901585E+03  0.29527901585E+03  0.00000000000E+00 0. -1.
          6    2    1    2  501    0  0.43101652241E+01  0.53630261518E+02 -0.20425578212E+03  0.27258131344E+03  0.17229441499E+03 0.  0.
         24    2    3    3    0    0 -0.32569237247E+02  0.71648337575E+02 -0.19910636245E+03  0.23094781834E+03  0.86598566591E+02 0.  0.
         -6    2    1    2    0  502 -0.43101652241E+01 -0.53630261518E+02  0.86270779217E+02  0.19999171536E+03  0.17221862963E+03 0.  0.
        -24    2    5    5    0    0  0.20285173575E+02  0.16110328904E+02 -0.31713151421E+01  0.83842419682E+02  0.79677243514E+02 0.  0.
          5    1    3    3  501    0  0.36879402471E+02 -0.18018076057E+02 -0.51494196640E+01  0.41633495101E+02  0.47000000000E+01 0. -1.
        -13    1    4    4    0    0 -0.40315715363E+02  0.88427850884E+02 -0.15277494736E+03  0.18106635871E+03  0.00000000000E+00 0.  1.
         14    1    4    4    0    0  0.77464781162E+01 -0.16779513309E+02 -0.46331415093E+02  0.49881459628E+02  0.00000000000E+00 0. -1.
         -5    1    5    5    0  502 -0.24595338799E+02 -0.69740590422E+02  0.89442094359E+02  0.11614929568E+03  0.47000000000E+01 0.  1.
         13    1    6    6    0    0 -0.22236418057E+02 -0.17667185344E+02  0.52706184917E+01  0.28885414058E+02  0.00000000000E+00 0. -1.
        -14    1    6    6    0    0  0.42521591632E+02  0.33777514248E+02 -0.84419336338E+01  0.54957005624E+02  0.00000000000E+00 0.  1.
</event>
<event>
12    1  0.9028446E-003  0.1734480E+03  0.7818608E-02  0.1175063E+00
         21   -1    0    0  501  502  0.00000000000E+00  0.00000000000E+00  0.71943704153E+02  0.71943704153E+02  0.00000000000E+00 0. -1.
         21   -1    0    0  502  503 -0.00000000000E+00 -0.00000000000E+00 -0.42475186700E+03  0.42475186700E+03  0.00000000000E+00 0. -1.
          6    2    1    2  501    0  0.33381265139E+01 -0.93235936653E+01 -0.13321738374E+03  0.21870316884E+03  0.17316504337E+03 0.  0.
         24    2    3    3    0    0 -0.54920962374E+02 -0.41689129718E+02 -0.99159468523E+02  0.14371196302E+03  0.77886022316E+02 0.  0.
         -6    2    1    2    0  503 -0.33381265139E+01  0.93235936653E+01 -0.21959077911E+03  0.27799240231E+03  0.17018105942E+03 0.  0.
        -24    2    5    5    0    0 -0.28053954798E+02 -0.35445979609E+01 -0.33409656262E+02  0.89678932191E+02  0.78272071602E+02 0.  0.
          5    1    3    3  501    0  0.58259088888E+02  0.32365536053E+02 -0.34057915213E+02  0.74991205823E+02  0.47000000000E+01 0. -1.
        -13    1    4    4    0    0 -0.41663658852E+02 -0.62434456471E+02 -0.90585593489E+02  0.11764213349E+03  0.00000000000E+00 0.  1.
         14    1    4    4    0    0 -0.13257303522E+02  0.20745326752E+02 -0.85738750341E+01  0.26069829532E+02  0.00000000000E+00 0. -1.
         -5    1    5    5    0  503  0.24715828284E+02  0.12868191626E+02 -0.18618112285E+03  0.18831347012E+03  0.47000000000E+01 0.  1.
         11    1    6    6    0    0 -0.16719947620E+02 -0.32744548847E+01 -0.59148723182E+02  0.61553636426E+02  0.00000000000E+00 0. -1.
        -12    1    6    6    0    0 -0.11334007177E+02 -0.27014307622E+00  0.25739066920E+02  0.28125295765E+02  0.00000000000E+00 0.  1.
</event>
<event>
12    1  0.9028446E-003  0.2545641E+03  0.7818608E-02  0.1110499E+00
         21   -1    0    0  501  502  0.00000000000E+00  0.00000000000E+00  0.51805384188E+02  0.51805384188E+02  0.00000000000E+00 0. -1.
         21   -1    0    0  502  503 -0.00000000000E+00 -0.00000000000E+00 -0.12500105041E+04  0.12500105041E+04  0.00000000000E+00 0. -1.
          6    2    1    2  501    0 -0.18353167109E+03 -0.62794102994E+01 -0.61329662358E+03  0.66402982707E+03  0.17629395185E+03 0.  0.
         24    2    3    3    0    0 -0.43469805511E+02 -0.61611402828E+01 -0.38809761612E+03  0.39878649890E+03  0.80519118398E+02 0.  0.
         -6    2    1    2    0  503  0.18353167109E+03  0.62794102994E+01 -0.58490849632E+03  0.63778606120E+03  0.17586871670E+03 0.  0.
        -24    2    5    5    0    0  0.87616499959E+02  0.36819764757E+02 -0.46510021418E+03  0.48123400030E+03  0.78965863996E+02 0.  0.
          5    1    3    3  501    0 -0.14006186558E+03 -0.11827001663E+00 -0.22519900746E+03  0.26524332817E+03  0.47000000000E+01 0. -1.
        -13    1    4    4    0    0 -0.63497008756E+02 -0.20888005727E+02 -0.28059581098E+03  0.28844789485E+03  0.00000000000E+00 0.  1.
         14    1    4    4    0    0  0.20027203245E+02  0.14726865444E+02 -0.10750180514E+03  0.11033860405E+03  0.00000000000E+00 0. -1.
         -5    1    5    5    0  503  0.95915171129E+02 -0.30540354458E+02 -0.11980828214E+03  0.15655206090E+03  0.47000000000E+01 0.  1.
         11    1    6    6    0    0  0.74213545712E+01  0.42234091556E+02 -0.17824514049E+03  0.18333064419E+03  0.00000000000E+00 0. -1.
        -12    1    6    6    0    0  0.80195145388E+02 -0.54143267990E+01 -0.28685507369E+03  0.29790335611E+03  0.00000000000E+00 0.  1.
</event>
<event>
12    1  0.9028446E-003  0.2128515E+03  0.7818608E-02  0.1140747E+00
         21   -1    0    0  501  502  0.00000000000E+00  0.00000000000E+00  0.50949256944E+02  0.50949256944E+02  0.00000000000E+00 0. -1.
         21   -1    0    0  502  503 -0.00000000000E+00 -0.00000000000E+00 -0.90438738868E+03  0.90438738868E+03  0.00000000000E+00 0. -1.
          6    2    1    2  501    0  0.11672709863E+03  0.41574927230E+02 -0.31345063470E+03  0.37491243586E+03  0.16417778180E+03 0.  0.
         24    2    3    3    0    0  0.10887638832E+03  0.79958266038E+02 -0.19852524175E+03  0.25340173552E+03  0.80949216883E+02 0.  0.
         -6    2    1    2    0  503 -0.11672709863E+03 -0.41574927230E+02 -0.53998749703E+03  0.58042420976E+03  0.17306668137E+03 0.  0.
        -24    2    5    5    0    0 -0.17100982535E+02 -0.54736562789E+02 -0.16032407390E+03  0.18765838064E+03  0.78888048807E+02 0.  0.
          5    1    3    3  501    0  0.78507103130E+01 -0.38383338809E+02 -0.11492539296E+03  0.12151070034E+03  0.47000000000E+01 0. -1.
        -11    1    4    4    0    0  0.72976445684E+02  0.59758423231E+02 -0.18884004787E+03  0.21108575141E+03  0.00000000000E+00 0.  1.
         12    1    4    4    0    0  0.35899942633E+02  0.20199842808E+02 -0.96851938803E+01  0.42315984108E+02  0.00000000000E+00 0. -1.
         -5    1    5    5    0  503 -0.99626116096E+02  0.13161635559E+02 -0.37966342313E+03  0.39276582912E+03  0.47000000000E+01 0.  1.
         11    1    6    6    0    0  0.19029104640E+02 -0.32962225818E+02 -0.13065430651E+03  0.13608513131E+03  0.00000000000E+00 0. -1.
        -12    1    6    6    0    0 -0.36130087175E+02 -0.21774336971E+02 -0.29669767388E+02  0.51573249332E+02  0.00000000000E+00 0.  1.
</event>
<event>
12    1  0.9028446E-003  0.1809637E+03  0.7818608E-02  0.1166896E+00
         21   -1    0    0  501  502  0.00000000000E+00  0.00000000000E+00  0.33377293793E+02  0.33377293793E+02  0.00000000000E+00 0. -1.
         21   -1    0    0  502  503 -0.00000000000E+00 -0.00000000000E+00 -0.13800400640E+04  0.13800400640E+04  0.00000000000E+00 0. -1.
          6    2    1    2  501    0 -0.53658456557E+02 -0.70891094672E+01 -0.29301685092E+03  0.34434411520E+03  0.17258189162E+03 0.  0.
         24    2    3    3    0    0 -0.72018910481E+02  0.43939791355E+02 -0.24694654688E+03  0.27303059683E+03  0.80284998961E+02 0.  0.
         -6    2    1    2    0  503  0.53658456557E+02  0.70891094672E+01 -0.10536459193E+04  0.10690732426E+04  0.17268002019E+03 0.  0.
        -24    2    5    5    0    0  0.51132313358E+02 -0.15320937616E+01 -0.10543442655E+04  0.10589103576E+04  0.83859730376E+02 0.  0.
          5    1    3    3  501    0  0.18360453924E+02 -0.51028900822E+02 -0.46070304040E+02  0.71313518366E+02  0.47000000000E+01 0. -1.
        -13    1    4    4    0    0 -0.22894033556E+02 -0.20475238871E+02 -0.10707737854E+03  0.11139540913E+03  0.00000000000E+00 0.  1.
         14    1    4    4    0    0 -0.49124876925E+02  0.64415030226E+02 -0.13986916834E+03  0.16163518770E+03  0.00000000000E+00 0. -1.
         -5    1    5    5    0  503  0.25261431986E+01  0.86212032289E+01  0.69834622368E+00  0.10162885025E+02  0.47000000000E+01 0.  1.
         11    1    6    6    0    0  0.20163270742E+02  0.38610214686E+02 -0.34173700114E+03  0.34450179116E+03  0.00000000000E+00 0. -1.
        -12    1    6    6    0    0  0.30969042616E+02 -0.40142308448E+02 -0.71260726439E+03  0.71440856643E+03  0.00000000000E+00 0.  1.
</event>
<event>
12    1  0.9028446E-003  0.1779888E+03  0.7818608E-02  0.1169885E+00
         21   -1    0    0  503  502  0.00000000000E+00  0.00000000000E+00  0.12477069497E+03  0.12477069497E+03  0.00000000000E+00 0. -1.
         21   -1    0    0  501  503 -0.00000000000E+00 -0.00000000000E+00 -0.28092171482E+03  0.28092171482E+03  0.00000000000E+00 0. -1.
          6    2    1    2  501    0 -0.35659305231E+02  0.20406848115E+02 -0.14189119269E+03  0.22762495567E+03  0.17318194012E+03 0.  0.
         24    2    3    3    0    0 -0.31412223066E+02  0.22038258132E+02 -0.17411773136E+03  0.19474123629E+03  0.78324658684E+02 0.  0.
         -6    2    1    2    0  502  0.35659305231E+02 -0.20406848115E+02 -0.14259827161E+02  0.17806745412E+03  0.17267498385E+03 0.  0.
        -24    2    5    5    0    0 -0.39714142359E-01 -0.76271647394E+02 -0.16786066660E+02  0.11155604406E+03  0.79659357006E+02 0.  0.
          5    1    3    3  501    0 -0.42470821646E+01 -0.16314100174E+01  0.32226538673E+02  0.32883719382E+02  0.47000000000E+01 0. -1.
        -13    1    4    4    0    0  0.17335184908E+02  0.10888825547E+02 -0.92638001648E+01  0.22469827571E+02  0.00000000000E+00 0.  1.
         14    1    4    4    0    0 -0.48747407974E+02  0.11149432585E+02 -0.16485393120E+03  0.17227140872E+03  0.00000000000E+00 0. -1.
         -5    1    5    5    0  502  0.35699019373E+02  0.55864799279E+02  0.25262394992E+01  0.66511410064E+02  0.47000000000E+01 0.  1.
         11    1    6    6    0    0 -0.23510283560E+02 -0.82539476997E+02 -0.10496541527E+02  0.86461992112E+02  0.00000000000E+00 0. -1.
        -12    1    6    6    0    0  0.23470569417E+02  0.62678296026E+01 -0.62895251323E+01  0.25094051946E+02  0.00000000000E+00 0.  1.
</event>
<event>
12    1  0.9028446E-003  0.1873896E+03  0.7818608E-02  0.1160849E+00
         21   -1    0    0  501  502  0.00000000000E+00  0.00000000000E+00  0.93538409175E+02  0.93538409175E+02  0.00000000000E+00 0.  1.
         21   -1    0    0  502  503 -0.00000000000E+00 -0.00000000000E+00 -0.38761486409E+03  0.38761486409E+03  0.00000000000E+00 0.  1.
          6    2    1    2  501    0 -0.41035754214E+02  0.62088809756E+02 -0.10417672390E+03  0.21440069327E+03  0.17197649272E+03 0.  0.
         24    2    3    3    0    0  0.20450537903E+02  0.64404860426E+02 -0.14472785910E+02  0.10552087558E+03  0.79743232335E+02 0.  0.
         -6    2    1    2    0  503  0.41035754214E+02 -0.62088809756E+02 -0.18989973101E+03  0.26675258000E+03  0.17191881130E+03 0.  0.
        -24    2    5    5    0    0  0.35981588906E+02 -0.94288515024E+02 -0.80375001607E+02  0.15238421918E+03  0.81091371703E+02 0.  0.
          5    1    3    3  501    0 -0.61486292116E+02 -0.23160506695E+01 -0.89703937995E+02  0.10887981769E+03  0.47000000000E+01 0. -1.
        -11    1    4    4    0    0  0.39089005908E+02  0.15476616101E+02  0.15950633975E+02  0.44965528497E+02  0.00000000000E+00 0.  1.
         12    1    4    4    0    0 -0.18638468006E+02  0.48928244324E+02 -0.30423419885E+02  0.60555347078E+02  0.00000000000E+00 0. -1.
         -5    1    5    5    0  503  0.50541653074E+01  0.32199705268E+02 -0.10952472941E+03  0.11436836083E+03  0.47000000000E+01 0.  1.
         13    1    6    6    0    0  0.20292918952E+02 -0.16653381421E+02  0.13533070647E+02  0.29534415069E+02  0.00000000000E+00 0. -1.
        -14    1    6    6    0    0  0.15688669954E+02 -0.77635133604E+02 -0.93908072254E+02  0.12284980411E+03  0.00000000000E+00 0.  1.
</event>
<event>
12    1  0.9028446E-003  0.2068135E+03  0.7818608E-02  0.1144288E+00
         21   -1    0    0  503  502  0.00000000000E+00  0.00000000000E+00  0.16103712467E+03  0.16103712467E+03  0.00000000000E+00 0. -1.
         21   -1    0    0  501  503 -0.00000000000E+00 -0.00000000000E+00 -0.26872092314E+03  0.26872092314E+03  0.00000000000E+00 0. -1.
          6    2    1    2  501    0  0.10813543742E+03  0.37029423738E+02 -0.80873360273E+02  0.22206381658E+03  0.17235831046E+03 0.  0.
         24    2    3    3    0    0  0.83652950622E+02 -0.42809618198E+02 -0.41681224372E+02  0.12969619079E+03  0.79077796394E+02 0.  0.
         -6    2    1    2    0  502 -0.10813543742E+03 -0.37029423738E+02 -0.26810438195E+02  0.20769423123E+03  0.17132904904E+03 0.  0.
        -24    2    5    5    0    0 -0.13297310825E+03 -0.41541866500E+02  0.10127399881E+02  0.16270794539E+03  0.83449008839E+02 0.  0.
          5    1    3    3  501    0  0.24482486793E+02  0.79839041936E+02 -0.39192135902E+02  0.92367625786E+02  0.47000000000E+01 0. -1.
        -13    1    4    4    0    0  0.79386986664E+02 -0.46181606413E+02 -0.43228239087E+01  0.91944120144E+02  0.00000000000E+00 0.  1.
         14    1    4    4    0    0  0.42659639578E+01  0.33719882146E+01 -0.37358400463E+02  0.37752070647E+02  0.00000000000E+00 0. -1.
         -5    1    5    5    0  502  0.24837670833E+02  0.45124427628E+01 -0.36937838075E+02  0.44986285841E+02  0.47000000000E+01 0.  1.
         11    1    6    6    0    0 -0.73540327626E+02  0.97703535188E+01  0.32604759148E+02  0.81035238719E+02  0.00000000000E+00 0. -1.
        -12    1    6    6    0    0 -0.59432780623E+02 -0.51312220019E+02 -0.22477359267E+02  0.81672706674E+02  0.00000000000E+00 0.  1.
</event>
<event>
12    1  0.9028446E-003  0.3737863E+03  0.7818608E-02  0.1053304E+00
         21   -1    0    0  503  502  0.00000000000E+00  0.00000000000E+00  0.24242994380E+03  0.24242994380E+03  0.00000000000E+00 0. -1.
         21   -1    0    0  501  503 -0.00000000000E+00 -0.00000000000E+00 -0.60023891189E+03  0.60023891189E+03  0.00000000000E+00 0.  1.
          6    2    1    2  501    0 -0.29039887407E+03 -0.16008075445E+03 -0.26456158185E+03  0.45793994312E+03  0.17250741117E+03 0.  0.
         24    2    3    3    0    0 -0.12742025840E+03 -0.97126819248E+02 -0.60647888928E+02  0.18937317064E+03  0.80712390975E+02 0.  0.
         -6    2    1    2    0  502  0.29039887407E+03  0.16008075445E+03 -0.93247386229E+02  0.38472891257E+03  0.17135900069E+03 0.  0.
        -24    2    5    5    0    0  0.21466168580E+03  0.49701264700E+02 -0.29692516571E+02  0.23646878677E+03  0.80535622629E+02 0.  0.
          5    1    3    3  501    0 -0.16297861567E+03 -0.62953935200E+02 -0.20391369292E+03  0.26856677249E+03  0.47000000000E+01 0. -1.
        -11    1    4    4    0    0 -0.15876916568E+02 -0.20653575970E+02 -0.46622608884E+02  0.53407062634E+02  0.00000000000E+00 0.  1.
         12    1    4    4    0    0 -0.11154334183E+03 -0.76473243278E+02 -0.14025280044E+02  0.13596610800E+03  0.00000000000E+00 0. -1.
         -5    1    5    5    0  502  0.75737188275E+02  0.11037948975E+03 -0.63554869658E+02  0.14826012580E+03  0.47000000000E+01 0.  1.
         11    1    6    6    0    0  0.16570802397E+03  0.12469776557E+02 -0.46780912819E+02  0.17263573889E+03  0.00000000000E+00 0. -1.
        -12    1    6    6    0    0  0.48953661822E+02  0.37231488143E+02  0.17088396248E+02  0.63833047878E+02  0.00000000000E+00 0.  1.
</event>
<event>
12    1  0.9028446E-003  0.2709635E+03  0.7818608E-02  0.1101163E+00
         21   -1    0    0  503  502  0.00000000000E+00  0.00000000000E+00  0.63327333073E+03  0.63327333073E+03  0.00000000000E+00 0. -1.
         21   -1    0    0  501  503 -0.00000000000E+00 -0.00000000000E+00 -0.18900432103E+03  0.18900432103E+03  0.00000000000E+00 0.  1.
          6    2    1    2  501    0 -0.15264351725E+03  0.13839734422E+03 -0.36496339694E+02  0.27041124611E+03  0.17127869385E+03 0.  0.
         24    2    3    3    0    0 -0.72829591568E+01  0.72619065165E+02 -0.29861661096E+01  0.10731159689E+03  0.78614830144E+02 0.  0.
         -6    2    1    2    0  502  0.15264351725E+03 -0.13839734422E+03  0.48076534940E+03  0.55186640565E+03  0.17597539675E+03 0.  0.
        -24    2    5    5    0    0  0.15704321608E+03 -0.16309580098E+03  0.46077781710E+03  0.51944785289E+03  0.79038364881E+02 0.  0.
          5    1    3    3  501    0 -0.14536055809E+03  0.65778279053E+02 -0.33510173584E+02  0.16309964922E+03  0.47000000000E+01 0. -1.
        -13    1    4    4    0    0 -0.22277818416E+02  0.10886492839E+02 -0.29444807057E+02  0.38494331821E+02  0.00000000000E+00 0.  1.
         14    1    4    4    0    0  0.14994859259E+02  0.61732572326E+02  0.26458640947E+02  0.68817265065E+02  0.00000000000E+00 0. -1.
         -5    1    5    5    0  502 -0.43996988360E+01  0.24698456759E+02  0.19987532298E+02  0.32418552766E+02  0.47000000000E+01 0.  1.
         13    1    6    6    0    0  0.92367222578E+02 -0.93013831898E+02  0.17826078275E+03  0.22126948140E+03  0.00000000000E+00 0. -1.
        -14    1    6    6    0    0  0.64675993503E+02 -0.70081969078E+02  0.28251703435E+03  0.29817837149E+03  0.00000000000E+00 0.  1.
</event>
<event>
12    1  0.9028446E-003  0.1841544E+03  0.7818608E-02  0.1165554E+00
         21   -1    0    0  503  502  0.00000000000E+00  0.00000000000E+00  0.14277894452E+03  0.14277894452E+03  0.00000000000E+00 0.  1.
         21   -1    0    0  501  503 -0.00000000000E+00 -0.00000000000E+00 -0.25467972746E+03  0.25467972746E+03  0.00000000000E+00 0.  1.
          6    2    1    2  501    0  0.32803868715E+02  0.13365805506E+02 -0.11877836529E+03  0.21317587621E+03  0.17343850661E+03 0.  0.
         24    2    3    3    0    0  0.28924069303E+01  0.63680588827E+02 -0.11555362451E+03  0.15436463647E+03  0.80076322613E+02 0.  0.
         -6    2    1    2    0  502 -0.32803868715E+02 -0.13365805506E+02  0.68775823527E+01  0.18428279578E+03  0.18071554753E+03 0.  0.
        -24    2    5    5    0    0 -0.84180830378E+02  0.21807358803E+02 -0.12320188010E+02  0.11895754749E+03  0.80231776563E+02 0.  0.
          5    1    3    3  501    0  0.29911461785E+02 -0.50314783321E+02 -0.32247407880E+01  0.58811239741E+02  0.47000000000E+01 0. -1.
        -11    1    4    4    0    0 -0.32076594176E+02  0.37310562268E+02 -0.28365490837E+02  0.56794251655E+02  0.00000000000E+00 0.  1.
         12    1    4    4    0    0  0.34969001107E+02  0.26370026559E+02 -0.87188133670E+02  0.97570384810E+02  0.00000000000E+00 0. -1.
         -5    1    5    5    0  502  0.51376961662E+02 -0.35173164309E+02  0.19197770363E+02  0.65325248290E+02  0.47000000000E+01 0.  1.
         11    1    6    6    0    0 -0.62966700021E+02 -0.22947465160E+02 -0.17199430184E+02  0.69189680354E+02  0.00000000000E+00 0. -1.
        -12    1    6    6    0    0 -0.21214130356E+02  0.44754823963E+02  0.48792421735E+01  0.49767867133E+02  0.00000000000E+00 0.  1.
</event>
<event>
12    1  0.9028446E-003  0.3574675E+03  0.7818608E-02  0.1059733E+00
         21   -1    0    0  503  502  0.00000000000E+00  0.00000000000E+00  0.11915971902E+04  0.11915971902E+04  0.00000000000E+00 0. -1.
         21   -1    0    0  501  503 -0.00000000000E+00 -0.00000000000E+00 -0.11504869724E+03  0.11504869724E+03  0.00000000000E+00 0.  1.
          6    2    1    2  501    0  0.27702479113E+03 -0.14391568666E+03  0.36445906854E+03  0.51050309983E+03  0.17415091884E+03 0.  0.
         24    2    3    3    0    0  0.12011874602E+03 -0.10823586014E+03  0.11602962027E+03  0.21447634804E+03  0.79960718612E+02 0.  0.
         -6    2    1    2    0  502 -0.27702479113E+03  0.14391568666E+03  0.71208942439E+03  0.79614278758E+03  0.17122362606E+03 0.  0.
        -24    2    5    5    0    0 -0.18878831374E+03  0.36169369502E+02  0.50740036460E+03  0.54852484397E+03  0.80468153670E+02 0.  0.
          5    1    3    3  501    0  0.15690604511E+03 -0.35679826515E+02  0.24842944826E+03  0.29602675179E+03  0.47000000000E+01 0. -1.
        -11    1    4    4    0    0 -0.52142446841E+01 -0.23614520688E+02  0.36032223641E+02  0.43395334720E+02  0.00000000000E+00 0.  1.
         12    1    4    4    0    0  0.12533299071E+03 -0.84621339456E+02  0.79997396632E+02  0.17108101332E+03  0.00000000000E+00 0. -1.
         -5    1    5    5    0  502 -0.88236477388E+02  0.10774631716E+03  0.20468905978E+03  0.24761794361E+03  0.47000000000E+01 0.  1.
         13    1    6    6    0    0 -0.10768887937E+03  0.53834294854E+02  0.35682106837E+03  0.37658505132E+03  0.00000000000E+00 0. -1.
        -14    1    6    6    0    0 -0.81099434368E+02 -0.17664925352E+02  0.15057929623E+03  0.17193979265E+03  0.00000000000E+00 0.  1.
</event>
<event>
12    1  0.9028446E-003  0.3066464E+03  0.7818608E-02  0.1082238E+00
         21   -1    0    0  503  502  0.00000000000E+00  0.00000000000E+00  0.33321971603E+03  0.33321971603E+03  0.00000000000E+00 0. -1.
         21   -1    0    0  501  503 -0.00000000000E+00 -0.00000000000E+00 -0.39397770485E+03  0.39397770485E+03  0.00000000000E+00 0. -1.
          6    2    1    2  501    0 -0.18940955549E+03  0.16822056346E+03 -0.22591262068E+03  0.38087866163E+03  0.17279440100E+03 0.  0.
         24    2    3    3    0    0 -0.10733067422E+03  0.17823541188E+02 -0.89824603003E+02  0.16202198338E+03  0.79656208444E+02 0.  0.
         -6    2    1    2    0  502  0.18940955549E+03 -0.16822056346E+03  0.16515463186E+03  0.34631875926E+03  0.16877942086E+03 0.  0.
        -24    2    5    5    0    0  0.11715824981E+03 -0.13046189412E+03  0.40385088818E+02  0.19720304193E+03  0.80695247892E+02 0.  0.
          5    1    3    3  501    0 -0.82078881269E+02  0.15039702227E+03 -0.13608801768E+03  0.21885667825E+03  0.47000000000E+01 0. -1.
        -11    1    4    4    0    0 -0.22381124174E+02  0.38452940827E+02 -0.46854682135E+02  0.64613501805E+02  0.00000000000E+00 0.  1.
         12    1    4    4    0    0 -0.84949550048E+02 -0.20629399639E+02 -0.42969920867E+02  0.97408481572E+02  0.00000000000E+00 0. -1.
         -5    1    5    5    0  502  0.72251305680E+02 -0.37758669347E+02  0.12476954304E+03  0.14911571733E+03  0.47000000000E+01 0.  1.
         11    1    6    6    0    0  0.36272165763E+02 -0.23431540875E+02  0.45786714597E+02  0.62937511474E+02  0.00000000000E+00 0. -1.
        -12    1    6    6    0    0  0.80886084048E+02 -0.10703035324E+03 -0.54016257795E+01  0.13426553045E+03  0.00000000000E+00 0.  1.
</event>
<event>
12    1  0.9028446E-003  0.2435122E+03  0.7818608E-02  0.1117479E+00
         21   -1    0    0  501  502  0.00000000000E+00  0.00000000000E+00  0.21199642002E+03  0.21199642002E+03  0.00000000000E+00 0.  1.
         21   -1    0    0  502  503 -0.00000000000E+00 -0.00000000000E+00 -0.36597074542E+03  0.36597074542E+03  0.00000000000E+00 0.  1.
          6    2    1    2  501    0  0.15655683474E+02 -0.17208773803E+03  0.63334554781E+02  0.25159111068E+03  0.17154454564E+03 0.  0.
         24    2    3    3    0    0  0.21183381666E+02 -0.18904724978E+03  0.23912355794E+02  0.20806663183E+03  0.80822795120E+02 0.  0.
         -6    2    1    2    0  503 -0.15655683474E+02  0.17208773803E+03 -0.21730888018E+03  0.32637605476E+03  0.17157764922E+03 0.  0.
        -24    2    5    5    0    0 -0.55349721016E+02  0.11722396580E+03 -0.20776984806E+03  0.25782874808E+03  0.80636863763E+02 0.  0.
          5    1    3    3  501    0 -0.55276981929E+01  0.16959511753E+02  0.39422198987E+02  0.43524478850E+02  0.47000000000E+01 0. -1.
        -11    1    4    4    0    0 -0.30092402697E+02 -0.48501708970E+02  0.61588051124E+01  0.57409923824E+02  0.00000000000E+00 0.  1.
         12    1    4    4    0    0  0.51275784364E+02 -0.14054554081E+03  0.17753550682E+02  0.15065670800E+03  0.00000000000E+00 0. -1.
         -5    1    5    5    0  503  0.39694037542E+02  0.54863772224E+02 -0.95390321162E+01  0.68547306678E+02  0.47000000000E+01 0.  1.
         13    1    6    6    0    0  0.15246624270E+02  0.73858459355E+01 -0.51366080624E+02  0.54087748248E+02  0.00000000000E+00 0. -1.
        -14    1    6    6    0    0 -0.70596345286E+02  0.10983811987E+03 -0.15640376744E+03  0.20374099983E+03  0.00000000000E+00 0.  1.
</event>
<event>
12    1  0.9028446E-003  0.1902477E+03  0.7818608E-02  0.1158570E+00
         21   -1    0    0  501  502  0.00000000000E+00  0.00000000000E+00  0.21065114677E+02  0.21065114677E+02  0.00000000000E+00 0. -1.
         21   -1    0    0  502  503 -0.00000000000E+00 -0.00000000000E+00 -0.17248718294E+04  0.17248718294E+04  0.00000000000E+00 0. -1.
          6    2    1    2  501    0 -0.56758302974E+02  0.44065925895E+02 -0.94243387048E+03  0.96115494278E+03  0.17456778916E+03 0.  0.
         24    2    3    3    0    0 -0.98103079259E+02  0.33027996092E+02 -0.52129979043E+03  0.53782619369E+03  0.82392235277E+02 0.  0.
         -6    2    1    2    0  503  0.56758302974E+02 -0.44065925895E+02 -0.76137284427E+03  0.78478200133E+03  0.17615581409E+03 0.  0.
        -24    2    5    5    0    0 -0.27899320556E+02  0.57667791069E+01 -0.47780011068E+03  0.48463904048E+03  0.75963319874E+02 0.  0.
          5    1    3    3  501    0  0.41344776284E+02  0.11037929803E+02 -0.42113408006E+03  0.42332874909E+03  0.47000000000E+01 0. -1.
        -13    1    4    4    0    0 -0.49006680723E+02 -0.22839704760E+02 -0.15810335468E+03  0.16709272166E+03  0.00000000000E+00 0.  1.
         14    1    4    4    0    0 -0.49096398535E+02  0.55867700852E+02 -0.36319643574E+03  0.37073347203E+03  0.00000000000E+00 0. -1.
         -5    1    5    5    0  503  0.84657623530E+02 -0.49832705002E+02 -0.28357273360E+03  0.30014296085E+03  0.47000000000E+01 0.  1.
         11    1    6    6    0    0  0.19324821231E+02 -0.69720986755E+01 -0.50061727493E+02  0.54113172474E+02  0.00000000000E+00 0. -1.
        -12    1    6    6    0    0 -0.47224141787E+02  0.12738877782E+02 -0.42773838318E+03  0.43052586801E+03  0.00000000000E+00 0.  1.
</event>
<event>
12    1  0.9028446E-003  0.1741012E+03  0.7818608E-02  0.1173648E+00
         21   -1    0    0  503  502  0.00000000000E+00  0.00000000000E+00  0.22899770929E+03  0.22899770929E+03  0.00000000000E+00 0.  1.
         21   -1    0    0  501  503 -0.00000000000E+00 -0.00000000000E+00 -0.14763079376E+03  0.14763079376E+03  0.00000000000E+00 0.  1.
          6    2    1    2  501    0 -0.20912726423E+02  0.79058479572E+01  0.10130613354E+03  0.20143028764E+03  0.17265973337E+03 0.  0.
         24    2    3    3    0    0 -0.10378257907E+02  0.29721452731E+02  0.13632586568E+03  0.15858910095E+03  0.74663835258E+02 0.  0.
         -6    2    1    2    0  502  0.20912726423E+02 -0.79058479572E+01 -0.19939218010E+02  0.17519821541E+03  0.17261806889E+03 0.  0.
        -24    2    5    5    0    0 -0.41474388298E+02 -0.12445507612E+02 -0.53561659131E+02  0.10402715991E+03  0.77960138060E+02 0.  0.
          5    1    3    3  501    0 -0.10534468516E+02 -0.21815604774E+02 -0.35019732139E+02  0.42841186698E+02  0.47000000000E+01 0. -1.
        -13    1    4    4    0    0 -0.10426937803E+02 -0.11580305291E+02  0.10652437985E+03  0.10765810701E+03  0.00000000000E+00 0.  1.
         14    1    4    4    0    0  0.48679895944E-01  0.41301758022E+02  0.29801485830E+02  0.50930993934E+02  0.00000000000E+00 0. -1.
         -5    1    5    5    0  502  0.62387114721E+02  0.45396596547E+01  0.33622441121E+02  0.71171055493E+02  0.47000000000E+01 0.  1.
         13    1    6    6    0    0 -0.13171392669E+02 -0.37457956590E+02 -0.53035362144E+02  0.66252047022E+02  0.00000000000E+00 0. -1.
        -14    1    6    6    0    0 -0.28302995629E+02  0.25012448978E+02 -0.52629698671E+00  0.37775112892E+02  0.00000000000E+00 0.  1.
</event>
<event>
12    1  0.9028446E-003  0.2377116E+03  0.7818608E-02  0.1121453E+00
         21   -1    0    0  501  502  0.00000000000E+00  0.00000000000E+00  0.17783595128E+04  0.17783595128E+04  0.00000000000E+00 0. -1.
         21   -1    0    0  502  503 -0.00000000000E+00 -0.00000000000E+00 -0.31783585056E+02  0.31783585056E+02  0.00000000000E+00 0. -1.
          6    2    1    2  501    0 -0.14914347215E+03  0.68215129892E+02  0.92757080906E+03  0.95754603539E+03  0.17207476526E+03 0.  0.
         24    2    3    3    0    0 -0.14754109088E+03  0.75065685490E+02  0.93054166689E+03  0.94857866487E+03  0.80563384998E+02 0.  0.
         -6    2    1    2    0  503  0.14914347215E+03 -0.68215129892E+02  0.81900511871E+03  0.85259706249E+03  0.17104177053E+03 0.  0.
        -24    2    5    5    0    0  0.69722881490E+02 -0.95696406053E+02  0.62445929182E+03  0.64062296143E+03  0.80182848791E+02 0.  0.
          5    1    3    3  501    0 -0.16023812662E+01 -0.68505555979E+01 -0.29708578288E+01  0.89673705154E+01  0.47000000000E+01 0. -1.
        -13    1    4    4    0    0 -0.38581874401E+01  0.31462498842E+02  0.22616812007E+03  0.22837861761E+03  0.00000000000E+00 0.  1.
         14    1    4    4    0    0 -0.14368290344E+03  0.43603186648E+02  0.70437354681E+03  0.72020004726E+03  0.00000000000E+00 0. -1.
         -5    1    5    5    0  503  0.79420590656E+02  0.27481276161E+02  0.19454582689E+03  0.21197410106E+03  0.47000000000E+01 0.  1.
         13    1    6    6    0    0  0.73609333654E+02 -0.10336153447E+03  0.61451513231E+03  0.62747971174E+03  0.00000000000E+00 0. -1.
        -14    1    6    6    0    0 -0.38864521642E+01  0.76651284167E+01  0.99441595045E+01  0.13143249686E+02  0.00000000000E+00 0.  1.
</event>
<event>
12    1  0.9028446E-003  0.2251791E+03  0.7818608E-02  0.1130393E+00
         21   -1    0    0  501  502  0.00000000000E+00  0.00000000000E+00  0.38284618298E+03  0.38284618298E+03  0.00000000000E+00 0. -1.
         21   -1    0    0  502  503 -0.00000000000E+00 -0.00000000000E+00 -0.16332715163E+03  0.16332715163E+03  0.00000000000E+00 0.  1.
          6    2    1    2  501    0 -0.12875319301E+03 -0.61091592860E+02  0.23010162848E+03  0.32074574821E+03  0.17210900073E+03 0.  0.
         24    2    3    3    0    0 -0.59736229536E+02  0.52430887240E+01  0.37095668846E+02  0.10525323863E+03  0.78142488416E+02 0.  0.
         -6    2    1    2    0  503  0.12875319301E+03  0.61091592860E+02 -0.10582597137E+02  0.22542758641E+03  0.17434459534E+03 0.  0.
        -24    2    5    5    0    0  0.22207399581E+02  0.29988443615E+02  0.47635414451E+02  0.10000494545E+03  0.79620230210E+02 0.  0.
          5    1    3    3  501    0 -0.69016963479E+02 -0.66334681584E+02  0.19300595964E+03  0.21549250958E+03  0.47000000000E+01 0. -1.
        -11    1    4    4    0    0 -0.27345496906E+02 -0.35798644485E+02  0.91433285109E+01  0.45966505243E+02  0.00000000000E+00 0.  1.
         12    1    4    4    0    0 -0.32390732630E+02  0.41041733209E+02  0.27952340335E+02  0.59286733384E+02  0.00000000000E+00 0. -1.
         -5    1    5    5    0  503  0.10654579343E+03  0.31103149245E+02 -0.58218011588E+02  0.12542264096E+03  0.47000000000E+01 0.  1.
         13    1    6    6    0    0 -0.28906742073E+02  0.18620617439E+02  0.27015387221E+02  0.43728232045E+02  0.00000000000E+00 0. -1.
        -14    1    6    6    0    0  0.51114141655E+02  0.11367826176E+02  0.20620027230E+02  0.56276713408E+02  0.00000000000E+00 0.  1.
</event>
<event>
12    1  0.9028446E-003  0.2227507E+03  0.7818608E-02  0.1132101E+00
         21   -1    0    0  501  502  0.00000000000E+00  0.00000000000E+00  0.64462062074E+03  0.64462062074E+03  0.00000000000E+00 0.  1.
         21   -1    0    0  502  503 -0.00000000000E+00 -0.00000000000E+00 -0.14056116415E+03  0.14056116415E+03  0.00000000000E+00 0.  1.
          6    2    1    2  501    0  0.68245144021E+02  0.12229479542E+03  0.51749049104E+03  0.56339530192E+03  0.17321790105E+03 0.  0.
         24    2    3    3    0    0  0.10245799173E+03  0.10909188577E+03  0.48432528831E+03  0.51372784332E+03  0.83346460645E+02 0.  0.
         -6    2    1    2    0  503 -0.68245144021E+02 -0.12229479542E+03 -0.13431034452E+02  0.22178648297E+03  0.17145096872E+03 0.  0.
        -24    2    5    5    0    0 -0.97579660493E+02 -0.38254618462E+02 -0.10120929714E+02  0.13258832160E+03  0.80573096193E+02 0.  0.
          5    1    3    3  501    0 -0.34212847706E+02  0.13202909650E+02  0.33165202729E+02  0.49667458597E+02  0.47000000000E+01 0. -1.
        -11    1    4    4    0    0  0.19140264421E+02 -0.69801521274E+01  0.13152171012E+03  0.13309031700E+03  0.00000000000E+00 0.  1.
         12    1    4    4    0    0  0.83317727306E+02  0.11607203789E+03  0.35280357818E+03  0.38063752632E+03  0.00000000000E+00 0. -1.
         -5    1    5    5    0  503  0.29334516472E+02 -0.84040176955E+02 -0.33101047375E+01  0.89198161374E+02  0.47000000000E+01 0.  1.
         13    1    6    6    0    0 -0.16383115283E+02  0.20474346003E+02 -0.18405265783E+02  0.32036840031E+02  0.00000000000E+00 0. -1.
        -14    1    6    6    0    0 -0.81196545210E+02 -0.58728964465E+02  0.82843360687E+01  0.10055148157E+03  0.00000000000E+00 0.  1.
</event>
<event>
12    1  0.9028446E-003  0.2127452E+03  0.7818608E-02  0.1139458E+00
         21   -1    0    0  501  502  0.00000000000E+00  0.00000000000E+00  0.12308664814E+03  0.12308664814E+03  0.00000000000E+00 0. -1.
         21   -1    0    0  502  503 -0.00000000000E+00 -0.00000000000E+00 -0.37807439619E+03  0.37807439619E+03  0.00000000000E+00 0. -1.
          6    2    1    2  501    0 -0.90618853432E+02 -0.83994825419E+02 -0.85239713360E+02  0.22918626516E+03  0.17318668572E+03 0.  0.
         24    2    3    3    0    0 -0.11453713417E+03 -0.66085368041E+02 -0.10999907494E+03  0.19009727946E+03  0.80939163566E+02 0.  0.
         -6    2    1    2    0  503  0.90618853432E+02  0.83994825419E+02 -0.16974803469E+03  0.27197477916E+03  0.17288429057E+03 0.  0.
        -24    2    5    5    0    0  0.78160953622E+02  0.20292248135E+02 -0.17281762472E+03  0.20682318668E+03  0.79931152436E+02 0.  0.
          5    1    3    3  501    0  0.23918280741E+02 -0.17909457378E+02  0.24759361576E+02  0.39088985697E+02  0.47000000000E+01 0. -1.
        -11    1    4    4    0    0 -0.71875990363E+02 -0.82257763774E+02 -0.73368171833E+02  0.13158794143E+03  0.00000000000E+00 0.  1.
         12    1    4    4    0    0 -0.42661143810E+02  0.16172395733E+02 -0.36630903103E+02  0.58509338033E+02  0.00000000000E+00 0. -1.
         -5    1    5    5    0  503  0.12457899810E+02  0.63702577285E+02  0.30695900323E+01  0.65151592485E+02  0.47000000000E+01 0.  1.
         13    1    6    6    0    0  0.65585886638E+02  0.35312901579E+02 -0.70208571412E+02  0.10236089607E+03  0.00000000000E+00 0. -1.
        -14    1    6    6    0    0  0.12575066983E+02 -0.15020653444E+02 -0.10260905331E+03  0.10446229061E+03  0.00000000000E+00 0.  1.
</event>
<event>
12    1  0.9028446E-003  0.2157779E+03  0.7818608E-02  0.1137546E+00
         21   -1    0    0  501  502  0.00000000000E+00  0.00000000000E+00  0.14380446615E+03  0.14380446615E+03  0.00000000000E+00 0. -1.
         21   -1    0    0  502  503 -0.00000000000E+00 -0.00000000000E+00 -0.53346581669E+03  0.53346581669E+03  0.00000000000E+00 0. -1.
          6    2    1    2  501    0 -0.10217856233E+03 -0.85394353263E+02  0.18668849101E+02  0.21658397857E+03  0.16978645317E+03 0.  0.
         24    2    3    3    0    0 -0.88488914219E+02 -0.11774568264E+03 -0.14791606806E+02  0.16784275283E+03  0.79107928337E+02 0.  0.
         -6    2    1    2    0  503  0.10217856233E+03  0.85394353263E+02 -0.40833019964E+03  0.46068630427E+03  0.16663032387E+03 0.  0.
        -24    2    5    5    0    0  0.12742088021E+02 -0.11735472417E+01 -0.17302077054E+03  0.19444299119E+03  0.87796080581E+02 0.  0.
          5    1    3    3  501    0 -0.13689648112E+02  0.32351329375E+02  0.33460455907E+02  0.48741225746E+02  0.47000000000E+01 0. -1.
        -13    1    4    4    0    0 -0.73986930507E+02 -0.83232688538E+02 -0.44626896745E+02  0.11997210609E+03  0.00000000000E+00 0.  1.
         14    1    4    4    0    0 -0.14501983712E+02 -0.34512994099E+02  0.29835289938E+02  0.47870646736E+02  0.00000000000E+00 0. -1.
         -5    1    5    5    0  503  0.89436474310E+02  0.86567900504E+02 -0.23530942910E+03  0.26624331308E+03  0.47000000000E+01 0.  1.
         11    1    6    6    0    0 -0.62876223068E+01 -0.17429913534E+02 -0.16787122667E+03  0.16889074819E+03  0.00000000000E+00 0. -1.
        -12    1    6    6    0    0  0.19029710328E+02  0.16256366293E+02 -0.51495438637E+01  0.25552242998E+02  0.00000000000E+00 0.  1.
</event>
<event>
12    1  0.9028446E-003  0.1750619E+03  0.7818608E-02  0.1173128E+00
         21   -1    0    0  501  502  0.00000000000E+00  0.00000000000E+00  0.15311900991E+03  0.15311900991E+03  0.00000000000E+00 0.  1.
         21   -1    0    0  502  503 -0.00000000000E+00 -0.00000000000E+00 -0.25251732049E+03  0.25251732049E+03  0.00000000000E+00 0.  1.
          6    2    1    2  501    0 -0.25422079912E+02 -0.16803758249E+02  0.44269495194E+02  0.18057255904E+03  0.17238913085E+03 0.  0.
         24    2    3    3    0    0 -0.42064555399E+02 -0.45905896870E+01  0.90821199183E+02  0.12943270549E+03  0.81937992994E+02 0.  0.
         -6    2    1    2    0  503  0.25422079912E+02  0.16803758249E+02 -0.14366780578E+03  0.22506377136E+03  0.17054211891E+03 0.  0.
        -24    2    5    5    0    0 -0.46708208693E+01 -0.17166235424E+01 -0.16531811341E+03  0.18335750037E+03  0.79152580238E+02 0.  0.
          5    1    3    3  501    0  0.16642475487E+02 -0.12213168562E+02 -0.46551703988E+02  0.51139853548E+02  0.47000000000E+01 0. -1.
        -13    1    4    4    0    0 -0.60329534096E+02  0.17972401406E+02  0.57731140498E+02  0.85413959513E+02  0.00000000000E+00 0.  1.
         14    1    4    4    0    0  0.18264978697E+02 -0.22562991093E+02  0.33090058685E+02  0.44018745980E+02  0.00000000000E+00 0. -1.
         -5    1    5    5    0  503  0.30092900781E+02  0.18520381792E+02  0.21650307625E+02  0.41706270984E+02  0.47000000000E+01 0.  1.
         11    1    6    6    0    0 -0.62101819498E+01  0.12404831443E+02  0.32040542180E+01  0.14237702287E+02  0.00000000000E+00 0. -1.
        -12    1    6    6    0    0  0.15393610805E+01 -0.14121454985E+02 -0.16852216763E+03  0.16911979809E+03  0.00000000000E+00 0.  1.
</event>
<event>
12    1  0.9028446E-003  0.1854751E+03  0.7818608E-02  0.1163071E+00
         21   -1    0    0  501  502  0.00000000000E+00  0.00000000000E+00  0.11747757967E+03  0.11747757967E+03  0.00000000000E+00 0. -1.
         21   -1    0    0  502  503 -0.00000000000E+00 -0.00000000000E+00 -0.32796610671E+03  0.32796610671E+03  0.00000000000E+00 0.  1.
          6    2    1    2  501    0  0.24367501416E+02  0.61321331818E+02 -0.29678011603E+02  0.18783448037E+03  0.17334049377E+03 0.  0.
         24    2    3    3    0    0  0.92786553743E+01 -0.30172368974E+01  0.41252035507E+02  0.90776321092E+02  0.80270871887E+02 0.  0.
         -6    2    1    2    0  503 -0.24367501416E+02 -0.61321331818E+02 -0.18081051544E+03  0.25760920600E+03  0.17121909842E+03 0.  0.
        -24    2    5    5    0    0  0.14529783273E+02 -0.53606306549E+02 -0.30690699341E+02  0.10226903234E+03  0.80201528945E+02 0.  0.
          5    1    3    3  501    0  0.15088846042E+02  0.64338568716E+02 -0.70930047110E+02  0.97058159277E+02  0.47000000000E+01 0. -1.
        -13    1    4    4    0    0  0.28520117421E+02 -0.14985057665E+02 -0.10821609189E+02  0.33986118878E+02  0.00000000000E+00 0.  1.
         14    1    4    4    0    0 -0.19241462047E+02  0.11967820768E+02  0.52073644696E+02  0.56790202215E+02  0.00000000000E+00 0. -1.
         -5    1    5    5    0  503 -0.38897284690E+02 -0.77150252693E+01 -0.15011981610E+03  0.15534017367E+03  0.47000000000E+01 0.  1.
         13    1    6    6    0    0 -0.23472678986E+02 -0.41164596244E+02  0.62908536421E+01  0.47802358543E+02  0.00000000000E+00 0. -1.
        -14    1    6    6    0    0  0.38002462259E+02 -0.12441710305E+02 -0.36981552983E+02  0.54466673793E+02  0.00000000000E+00 0.  1.
</event>
<event>
12    1  0.9028446E-003  0.1824821E+03  0.7818608E-02  0.1165499E+00
         21   -1    0    0  501  502  0.00000000000E+00  0.00000000000E+00  0.96823762219E+02  0.96823762219E+02  0.00000000000E+00 0. -1.
         21   -1    0    0  502  503 -0.00000000000E+00 -0.00000000000E+00 -0.35177333098E+03  0.35177333098E+03  0.00000000000E+00 0. -1.
          6    2    1    2  501    0  0.59073746484E+02  0.12179271580E+02 -0.92798743119E+02  0.20472251680E+03  0.17222560780E+03 0.  0.
         24    2    3    3    0    0  0.57361442101E+02  0.28152057747E+02 -0.12938724483E+03  0.16448732895E+03  0.78943960287E+02 0.  0.
         -6    2    1    2    0  503 -0.59073746484E+02 -0.12179271580E+02 -0.16215082564E+03  0.24387457640E+03  0.17188332257E+03 0.  0.
        -24    2    5    5    0    0 -0.90965445143E+02  0.28286814187E+02 -0.14022310112E+03  0.18768294318E+03  0.80545099208E+02 0.  0.
          5    1    3    3  501    0  0.17123043828E+01 -0.15972786167E+02  0.36588501709E+02  0.40235187853E+02  0.47000000000E+01 0. -1.
        -11    1    4    4    0    0  0.42800339462E+01 -0.25636624145E+02 -0.32759546497E+02  0.41817975499E+02  0.00000000000E+00 0.  1.
         12    1    4    4    0    0  0.53081408155E+02  0.53788681892E+02 -0.96627698331E+02  0.12266935345E+03  0.00000000000E+00 0. -1.
         -5    1    5    5    0  503  0.31891698659E+02 -0.40466085767E+02 -0.21927724523E+02  0.56191633216E+02  0.47000000000E+01 0.  1.
         13    1    6    6    0    0 -0.50981074595E+02  0.45629830987E+02 -0.42146510273E+02  0.80358445549E+02  0.00000000000E+00 0. -1.
        -14    1    6    6    0    0 -0.39984370548E+02 -0.17343016800E+02 -0.98076590849E+02  0.10732449763E+03  0.00000000000E+00 0.  1.
</event>
<event>
12    1  0.9028446E-003  0.2032954E+03  0.7818608E-02  0.1148476E+00
         21   -1    0    0  503  502  0.00000000000E+00  0.00000000000E+00  0.65480576553E+02  0.65480576553E+02  0.00000000000E+00 0. -1.
         21   -1    0    0  501  503 -0.00000000000E+00 -0.00000000000E+00 -0.71610968098E+03  0.71610968098E+03  0.00000000000E+00 0. -1.
          6    2    1    2  501    0  0.41515432986E+02  0.85837802803E+02 -0.48104014737E+03  0.52223428691E+03  0.17954767468E+03 0.  0.
         24    2    3    3    0    0 -0.28127894504E+02  0.22168544092E+02 -0.11316751870E+03  0.14242337541E+03  0.78707736469E+02 0.  0.
         -6    2    1    2    0  502 -0.41515432986E+02 -0.85837802803E+02 -0.16958895706E+03  0.25935597062E+03  0.17150348560E+03 0.  0.
        -24    2    5    5    0    0  0.39452172044E+02 -0.45958365276E+02 -0.12039857368E+03  0.15645841759E+03  0.79465556525E+02 0.  0.
          5    1    3    3  501    0  0.69643327490E+02  0.63669258711E+02 -0.36787262867E+03  0.37981091150E+03  0.47000000000E+01 0. -1.
        -11    1    4    4    0    0 -0.33178488321E+00  0.46238747871E+02 -0.42701064562E+02  0.62940549732E+02  0.00000000000E+00 0.  1.
         12    1    4    4    0    0 -0.27796109621E+02 -0.24070203779E+02 -0.70466454134E+02  0.79482825681E+02  0.00000000000E+00 0. -1.
         -5    1    5    5    0  502 -0.80967605029E+02 -0.39879437527E+02 -0.49190383381E+02  0.10289755303E+03  0.47000000000E+01 0.  1.
         13    1    6    6    0    0  0.61848657198E+02 -0.27987380469E+02 -0.64630861128E+02  0.93732054671E+02  0.00000000000E+00 0. -1.
        -14    1    6    6    0    0 -0.22396485155E+02 -0.17970984807E+02 -0.55767712547E+02  0.62726362918E+02  0.00000000000E+00 0.  1.
</event>
<event>
12    1  0.9028446E-003  0.2273816E+03  0.7818608E-02  0.1128592E+00
         21   -1    0    0  501  502  0.00000000000E+00  0.00000000000E+00  0.94379654625E+02  0.94379654625E+02  0.00000000000E+00 0. -1.
         21   -1    0    0  502  503 -0.00000000000E+00 -0.00000000000E+00 -0.62859388427E+03  0.62859388427E+03  0.00000000000E+00 0. -1.
          6    2    1    2  501    0  0.14437671207E+03 -0.21390897709E+02 -0.13621769538E+03  0.26460289375E+03  0.17365835815E+03 0.  0.
         24    2    3    3    0    0  0.25035869388E+02 -0.27744190917E+02 -0.10921459235E+03  0.14199025721E+03  0.82685374014E+02 0.  0.
         -6    2    1    2    0  503 -0.14437671207E+03  0.21390897709E+02 -0.39799653426E+03  0.45837064514E+03  0.17435653571E+03 0.  0.
        -24    2    5    5    0    0 -0.16951686925E+03  0.21677402982E+01 -0.37391517513E+03  0.41832618058E+03  0.80271832586E+02 0.  0.
          5    1    3    3  501    0  0.11934084268E+03  0.63532932085E+01 -0.27003103032E+02  0.12261263654E+03  0.47000000000E+01 0. -1.
        -11    1    4    4    0    0  0.37697780391E+02  0.19009740529E+02 -0.53849009505E+02  0.68426666629E+02  0.00000000000E+00 0.  1.
         12    1    4    4    0    0 -0.12661911002E+02 -0.46753931446E+02 -0.55365582842E+02  0.73563590582E+02  0.00000000000E+00 0. -1.
         -5    1    5    5    0  503  0.25140157184E+02  0.19223157410E+02 -0.24081359134E+02  0.40044464559E+02  0.47000000000E+01 0.  1.
         11    1    6    6    0    0 -0.60521531588E+02 -0.37488738795E+02 -0.15562119196E+03  0.17113216153E+03  0.00000000000E+00 0. -1.
        -12    1    6    6    0    0 -0.10899533767E+03  0.39656479093E+02 -0.21829398316E+03  0.24719401905E+03  0.00000000000E+00 0.  1.
</event>
<event>
12    1  0.9028446E-003  0.2435304E+03  0.7818608E-02  0.1117801E+00
         21   -1    0    0  503  502  0.00000000000E+00  0.00000000000E+00  0.79827368152E+03  0.79827368152E+03  0.00000000000E+00 0.  1.
         21   -1    0    0  501  503 -0.00000000000E+00 -0.00000000000E+00 -0.77321248383E+02  0.77321248383E+02  0.00000000000E+00 0.  1.
          6    2    1    2  501    0 -0.16763851293E+03  0.37729144187E+02  0.26676751709E+03  0.36120906141E+03  0.17257148817E+03 0.  0.
         24    2    3    3    0    0 -0.19248849217E+03  0.50293111801E+02  0.22712069693E+03  0.31253324504E+03  0.80696973708E+02 0.  0.
         -6    2    1    2    0  502  0.16763851293E+03 -0.37729144187E+02  0.45418491605E+03  0.51438586850E+03  0.16965472114E+03 0.  0.
        -24    2    5    5    0    0  0.15222450371E+03  0.62744628574E+00  0.23448190813E+03  0.29077835208E+03  0.79984945939E+02 0.  0.
          5    1    3    3  501    0  0.24849979240E+02 -0.12563967615E+02  0.39646820160E+02  0.48675816370E+02  0.47000000000E+01 0. -1.
        -11    1    4    4    0    0 -0.12769327394E+03 -0.55935362875E+01  0.15267305452E+03  0.19911283593E+03  0.00000000000E+00 0.  1.
         12    1    4    4    0    0 -0.64795218237E+02  0.55886648089E+02  0.74447642409E+02  0.11342040910E+03  0.00000000000E+00 0. -1.
         -5    1    5    5    0  502  0.15414009229E+02 -0.38356590472E+02  0.21970300791E+03  0.22360751642E+03  0.47000000000E+01 0.  1.
         13    1    6    6    0    0 -0.10865338056E+01  0.17271607863E+02  0.30446915728E+02  0.35021474430E+02  0.00000000000E+00 0. -1.
        -14    1    6    6    0    0  0.15331103751E+03 -0.16644161578E+02  0.20403499241E+03  0.25575687765E+03  0.00000000000E+00 0.  1.
</event>
<event>
12    1  0.9028446E-003  0.1928358E+03  0.7818608E-02  0.1158921E+00
         21   -1    0    0  501  502  0.00000000000E+00  0.00000000000E+00  0.97520342834E+02  0.97520342834E+02  0.00000000000E+00 0. -1.
         21   -1    0    0  502  503 -0.00000000000E+00 -0.00000000000E+00 -0.47278502501E+03  0.47278502501E+03  0.00000000000E+00 0. -1.
          6    2    1    2  501    0  0.40199656600E+02 -0.74018426907E+02 -0.50901009148E+02  0.19944058168E+03  0.17346726773E+03 0.  0.
         24    2    3    3    0    0  0.39136260858E+02 -0.24279896312E+02  0.36280222062E+02  0.98953222714E+02  0.79714023194E+02 0.  0.
         -6    2    1    2    0  503 -0.40199656600E+02  0.74018426907E+02 -0.32436367303E+03  0.37086478617E+03  0.15885262769E+03 0.  0.
        -24    2    5    5    0    0 -0.71145043536E+02  0.64967669382E+02 -0.17303495134E+03  0.21606812861E+03  0.86382443407E+02 0.  0.
          5    1    3    3  501    0  0.10633957420E+01 -0.49738530595E+02 -0.87181231210E+02  0.10048735896E+03  0.47000000000E+01 0. -1.
        -13    1    4    4    0    0 -0.21751121263E+02 -0.62427699865E+01 -0.50490379328E+01  0.23185690358E+02  0.00000000000E+00 0.  1.
         14    1    4    4    0    0  0.60887382121E+02 -0.18037126326E+02  0.41329259995E+02  0.75767532356E+02  0.00000000000E+00 0. -1.
         -5    1    5    5    0  503  0.30945386937E+02  0.90507575249E+01 -0.15132872168E+03  0.15479665756E+03  0.47000000000E+01 0.  1.
         13    1    6    6    0    0 -0.50184139461E+02 -0.37615819184E+01 -0.37838430637E+02  0.62963038245E+02  0.00000000000E+00 0. -1.
        -14    1    6    6    0    0 -0.20960904076E+02  0.68729251300E+02 -0.13519652071E+03  0.15310509036E+03  0.00000000000E+00 0.  1.
</event>
<event>
12    1  0.9028446E-003  0.1773241E+03  0.7818608E-02  0.1170803E+00
         21   -1    0    0  501  502  0.00000000000E+00  0.00000000000E+00  0.95499953732E+02  0.95499953732E+02  0.00000000000E+00 0.  1.
         21   -1    0    0  502  503 -0.00000000000E+00 -0.00000000000E+00 -0.36232328415E+03  0.36232328415E+03  0.00000000000E+00 0.  1.
          6    2    1    2  501    0  0.40371067345E+02  0.99118179363E+01 -0.20603854954E+03  0.27183767050E+03  0.17238262091E+03 0.  0.
         24    2    3    3    0    0 -0.49262737579E+01 -0.54484871258E+02 -0.91496726611E+02  0.13276681845E+03  0.79136007806E+02 0.  0.
         -6    2    1    2    0  503 -0.40371067345E+02 -0.99118179363E+01 -0.60784780872E+02  0.18598556738E+03  0.17078575606E+03 0.  0.
        -24    2    5    5    0    0  0.18450314013E+02  0.44771118584E+02 -0.49825465456E+02  0.10479212524E+03  0.78447086360E+02 0.  0.
          5    1    3    3  501    0  0.45297341103E+02  0.64396689194E+02 -0.11454182293E+03  0.13907085205E+03  0.47000000000E+01 0. -1.
        -11    1    4    4    0    0 -0.10256327396E+02 -0.71905313150E+01  0.12932144920E+02  0.18003787504E+02  0.00000000000E+00 0.  1.
         12    1    4    4    0    0  0.53300536380E+01 -0.47294339943E+02 -0.10442887153E+03  0.11476303095E+03  0.00000000000E+00 0. -1.
         -5    1    5    5    0  503 -0.58821381358E+02 -0.54682936520E+02 -0.10959315416E+02  0.81193442135E+02  0.47000000000E+01 0.  1.
         13    1    6    6    0    0  0.13347739293E+02  0.21483947791E+02  0.19207152714E+02  0.31759043945E+02  0.00000000000E+00 0. -1.
        -14    1    6    6    0    0  0.51025747207E+01  0.23287170793E+02 -0.69032618170E+02  0.73033081297E+02  0.00000000000E+00 0.  1.
</event>
<event>
12    1  0.9028446E-003  0.1769949E+03  0.7818608E-02  0.1171480E+00
         21   -1    0    0  503  502  0.00000000000E+00  0.00000000000E+00  0.48090713521E+03  0.48090713521E+03  0.00000000000E+00 0. -1.
         21   -1    0    0  501  503 -0.00000000000E+00 -0.00000000000E+00 -0.69061934667E+02  0.69061934667E+02  0.00000000000E+00 0. -1.
          6    2    1    2  501    0  0.25430867289E+02 -0.16328538033E+02  0.27831419790E+03  0.32825365764E+03  0.17140105261E+03 0.  0.
         24    2    3    3    0    0 -0.22552878057E+02  0.47317650674E+02  0.13925893785E+03  0.16790487373E+03  0.77790760871E+02 0.  0.
         -6    2    1    2    0  502 -0.25430867289E+02  0.16328538033E+02  0.13353100264E+03  0.22171541223E+03  0.17439565703E+03 0.  0.
        -24    2    5    5    0    0 -0.27102174332E+02  0.13414974013E+02 -0.22662809475E+01  0.85795309407E+02  0.80257147381E+02 0.  0.
          5    1    3    3  501    0  0.47983745347E+02 -0.63646188707E+02  0.13905526005E+03  0.16034878391E+03  0.47000000000E+01 0. -1.
        -11    1    4    4    0    0 -0.48293229371E+02  0.15445268631E+02  0.58992021296E+02  0.77787215548E+02  0.00000000000E+00 0.  1.
         12    1    4    4    0    0  0.25740351314E+02  0.31872382043E+02  0.80266916554E+02  0.90117658180E+02  0.00000000000E+00 0. -1.
         -5    1    5    5    0  502  0.16713070428E+01  0.29135640198E+01  0.13579728359E+03  0.13592010283E+03  0.47000000000E+01 0.  1.
         13    1    6    6    0    0  0.52707570438E+01  0.28015002796E+02 -0.29514581470E+02  0.41033300877E+02  0.00000000000E+00 0. -1.
        -14    1    6    6    0    0 -0.32372931376E+02 -0.14600028783E+02  0.27248300523E+02  0.44762008531E+02  0.00000000000E+00 0.  1.
</event>
<event>
12    1  0.9028446E-003  0.1910442E+03  0.7818608E-02  0.1159407E+00
         21   -1    0    0  501  502  0.00000000000E+00  0.00000000000E+00  0.45737621544E+03  0.45737621544E+03  0.00000000000E+00 0.  1.
         21   -1    0    0  502  503 -0.00000000000E+00 -0.00000000000E+00 -0.13126532197E+03  0.13126532197E+03  0.00000000000E+00 0.  1.
          6    2    1    2  501    0  0.80297519385E+02 -0.28487419529E+02  0.35539328503E+03  0.40348762490E+03  0.17099313353E+03 0.  0.
         24    2    3    3    0    0  0.77236315251E+02  0.41981719894E+02  0.25715534149E+03  0.28245847910E+03  0.76980579128E+02 0.  0.
         -6    2    1    2    0  503 -0.80297519385E+02  0.28487419529E+02 -0.29282391551E+02  0.18515391251E+03  0.16175687982E+03 0.  0.
        -24    2    5    5    0    0 -0.27880224541E+02 -0.19522344970E+02  0.30490863414E+02  0.92162287640E+02  0.80036027124E+02 0.  0.
          5    1    3    3  501    0  0.30612041336E+01 -0.70469139423E+02  0.98237943543E+02  0.12102914580E+03  0.47000000000E+01 0. -1.
        -13    1    4    4    0    0  0.48320481932E+02 -0.84273664305E+01  0.17556216541E+03  0.18228538999E+03  0.00000000000E+00 0.  1.
         14    1    4    4    0    0  0.28915833319E+02  0.50409086325E+02  0.81593176073E+02  0.10017308911E+03  0.00000000000E+00 0. -1.
         -5    1    5    5    0  503 -0.52417294844E+02  0.48009764499E+02 -0.59773254965E+02  0.92991624866E+02  0.47000000000E+01 0.  1.
         11    1    6    6    0    0 -0.94499625931E+01  0.18680216231E+02  0.43097214284E+02  0.47912651257E+02  0.00000000000E+00 0. -1.
        -12    1    6    6    0    0 -0.18430261947E+02 -0.38202561201E+02 -0.12606350870E+02  0.44249636383E+02  0.00000000000E+00 0.  1.
</event>
<event>
12    1  0.9028446E-003  0.1927254E+03  0.7818608E-02  0.1156156E+00
         21   -1    0    0  503  502  0.00000000000E+00  0.00000000000E+00  0.33198202496E+03  0.33198202496E+03  0.00000000000E+00 0. -1.
         21   -1    0    0  501  503 -0.00000000000E+00 -0.00000000000E+00 -0.15811420308E+03  0.15811420308E+03  0.00000000000E+00 0. -1.
          6    2    1    2  501    0 -0.28715322221E+02  0.80990653642E+02 -0.45965841151E+02  0.19813114731E+03  0.17250807886E+03 0.  0.
         24    2    3    3    0    0 -0.79314751971E+02  0.27371793868E+02 -0.12104552535E+02  0.11686638692E+03  0.80443689743E+02 0.  0.
         -6    2    1    2    0  502  0.28715322221E+02 -0.80990653642E+02  0.21983366303E+03  0.29196508073E+03  0.17185084597E+03 0.  0.
        -24    2    5    5    0    0 -0.19706365432E+02 -0.52775192173E+02  0.21418636781E+03  0.23544292539E+03  0.79899995080E+02 0.  0.
          5    1    3    3  501    0  0.50599429750E+02  0.53618859774E+02 -0.33861288615E+02  0.81264760390E+02  0.47000000000E+01 0. -1.
        -11    1    4    4    0    0 -0.69193889462E+02  0.53917134985E+02 -0.11305882780E+02  0.88445886108E+02  0.00000000000E+00 0.  1.
         12    1    4    4    0    0 -0.10120862509E+02 -0.26545341117E+02 -0.79866975556E+00  0.28420500810E+02  0.00000000000E+00 0. -1.
         -5    1    5    5    0  502  0.48421687653E+02 -0.28215461470E+02  0.56472952165E+01  0.56522155341E+02  0.47000000000E+01 0.  1.
         13    1    6    6    0    0  0.35950225702E+01 -0.69081938995E+02  0.14578499718E+03  0.16136450627E+03  0.00000000000E+00 0. -1.
        -14    1    6    6    0    0 -0.23301388002E+02  0.16306746822E+02  0.68401370632E+02  0.74078419118E+02  0.00000000000E+00 0.  1.
</event>
<event>
12    1  0.9028446E-003  0.2327810E+03  0.7818608E-02  0.1124983E+00
         21   -1    0    0  503  502  0.00000000000E+00  0.00000000000E+00  0.19039692689E+03  0.19039692689E+03  0.00000000000E+00 0.  1.
         21   -1    0    0  501  503 -0.00000000000E+00 -0.00000000000E+00 -0.33864174430E+03  0.33864174430E+03  0.00000000000E+00 0.  1.
          6    2    1    2  501    0 -0.10862001384E+03  0.11335549720E+03  0.33708792956E+02  0.23358289587E+03  0.16963758536E+03 0.  0.
         24    2    3    3    0    0 -0.73875627838E+02  0.20602026949E+02 -0.30443880095E+02  0.11548110053E+03  0.80789868434E+02 0.  0.
         -6    2    1    2    0  502  0.10862001384E+03 -0.11335549720E+03 -0.18195361036E+03  0.29545577533E+03  0.17186978414E+03 0.  0.
        -24    2    5    5    0    0  0.77990054600E+02  0.35285693315E+01 -0.73802775898E+02  0.13322516044E+03  0.78785748874E+02 0.  0.
          5    1    3    3  501    0 -0.34744386000E+02  0.92753470251E+02  0.64152673051E+02  0.11810179534E+03  0.47000000000E+01 0. -1.
        -13    1    4    4    0    0  0.10357800788E+02  0.17587799981E+02 -0.23173417948E+02  0.30880771440E+02  0.00000000000E+00 0.  1.
         14    1    4    4    0    0 -0.84233428626E+02  0.30142269681E+01 -0.72704621474E+01  0.84600329090E+02  0.00000000000E+00 0. -1.
         -5    1    5    5    0  502  0.30629959238E+02 -0.11688406653E+03 -0.10815083446E+03  0.16223061489E+03  0.47000000000E+01 0.  1.
         11    1    6    6    0    0  0.23851430811E+02  0.10136722488E+02 -0.74291977982E+02  0.78682538641E+02  0.00000000000E+00 0. -1.
        -12    1    6    6    0    0  0.54138623789E+02 -0.66081531567E+01  0.48920208382E+00  0.54542621798E+02  0.00000000000E+00 0.  1.
</event>
<event>
12    1  0.9028446E-003  0.2050898E+03  0.7818608E-02  0.1145678E+00
         21   -1    0    0  503  502  0.00000000000E+00  0.00000000000E+00  0.92733141711E+02  0.92733141711E+02  0.00000000000E+00 0.  1.
         21   -1    0    0  501  503 -0.00000000000E+00 -0.00000000000E+00 -0.57963226954E+03  0.57963226954E+03  0.00000000000E+00 0. -1.
          6    2    1    2  501    0  0.33583753755E+02  0.10593154963E+03 -0.85951278589E+02  0.22237230096E+03  0.17237301477E+03 0.  0.
         24    2    3    3    0    0 -0.41448970017E+00  0.13404357762E+03 -0.86068150358E+02  0.17800710813E+03  0.79441497567E+02 0.  0.
         -6    2    1    2    0  502 -0.33583753755E+02 -0.10593154963E+03 -0.40094784924E+03  0.44999311029E+03  0.17142129324E+03 0.  0.
        -24    2    5    5    0    0  0.36423211331E+02 -0.60221606048E+02 -0.29547184148E+03  0.31531700879E+03  0.84663538583E+02 0.  0.
          5    1    3    3  501    0  0.33998243455E+02 -0.28112027993E+02  0.11687176893E+00  0.44365192831E+02  0.47000000000E+01 0. -1.
        -11    1    4    4    0    0  0.34362412106E+02  0.36349724110E+02 -0.14747645829E+02  0.52149504946E+02  0.00000000000E+00 0.  1.
         12    1    4    4    0    0 -0.34776901806E+02  0.97693853512E+02 -0.71320504529E+02  0.12585760318E+03  0.00000000000E+00 0. -1.
         -5    1    5    5    0  502 -0.70006965086E+02 -0.45709943580E+02 -0.10547600777E+03  0.13467610151E+03  0.47000000000E+01 0.  1.
         13    1    6    6    0    0 -0.15000055661E+02 -0.48940680616E+02 -0.93480350806E+02  0.10657752050E+03  0.00000000000E+00 0. -1.
        -14    1    6    6    0    0  0.51423266992E+02 -0.11280925432E+02 -0.20199149067E+03  0.20873948829E+03  0.00000000000E+00 0.  1.
</event>
<event>
12    1  0.9028446E-003  0.1899556E+03  0.7818608E-02  0.1158855E+00
         21   -1    0    0  503  502  0.00000000000E+00  0.00000000000E+00  0.11028867795E+03  0.11028867795E+03  0.00000000000E+00 0.  1.
         21   -1    0    0  501  503 -0.00000000000E+00 -0.00000000000E+00 -0.38619280897E+03  0.38619280897E+03  0.00000000000E+00 0.  1.
          6    2    1    2  501    0 -0.67210805962E+02  0.39395358176E+02 -0.23670016800E+03  0.30252255762E+03  0.17153320860E+03 0.  0.
         24    2    3    3    0    0 -0.10545543247E+03  0.58949628253E+02 -0.18441777404E+03  0.23469513210E+03  0.80473490909E+02 0.  0.
         -6    2    1    2    0  502  0.67210805962E+02 -0.39395358176E+02 -0.39203963019E+02  0.19395892930E+03  0.17324499662E+03 0.  0.
        -24    2    5    5    0    0  0.26898767947E+02 -0.92775464317E+02 -0.31182632731E+02  0.12642428722E+03  0.75365199657E+02 0.  0.
          5    1    3    3  501    0  0.38244626508E+02 -0.19554270078E+02 -0.52282393956E+02  0.67827425520E+02  0.47000000000E+01 0. -1.
        -13    1    4    4    0    0 -0.30171696598E+02  0.68073682317E+01 -0.11688913461E+03  0.12091212234E+03  0.00000000000E+00 0.  1.
         14    1    4    4    0    0 -0.75283735872E+02  0.52142260022E+02 -0.67528639434E+02  0.11378300976E+03  0.00000000000E+00 0. -1.
         -5    1    5    5    0  502  0.40312038016E+02  0.53380106142E+02 -0.80213302880E+01  0.67534642076E+02  0.47000000000E+01 0.  1.
         11    1    6    6    0    0 -0.57611803481E+01 -0.89509358136E+02 -0.22612198619E+02  0.92500961721E+02  0.00000000000E+00 0. -1.
        -12    1    6    6    0    0  0.32659948295E+02 -0.32661061809E+01 -0.85704341121E+01  0.33923325501E+02  0.00000000000E+00 0.  1.
</event>
<event>
12    1  0.9028446E-003  0.1729689E+03  0.7818608E-02  0.1176926E+00
         21   -1    0    0  503  502  0.00000000000E+00  0.00000000000E+00  0.38600884260E+03  0.38600884260E+03  0.00000000000E+00 0.  1.
         21   -1    0    0  501  503 -0.00000000000E+00 -0.00000000000E+00 -0.97600737831E+02  0.97600737831E+02  0.00000000000E+00 0.  1.
          6    2    1    2  501    0  0.24694951758E+01  0.11808696024E+02  0.22392961407E+02  0.16630483129E+03  0.16434813196E+03 0.  0.
         24    2    3    3    0    0 -0.35713980730E+02 -0.44369418991E+02  0.18301613237E+02  0.98093486418E+02  0.77738338478E+02 0.  0.
         -6    2    1    2    0  502 -0.24694951758E+01 -0.11808696024E+02  0.26601514336E+03  0.31730474914E+03  0.17254768507E+03 0.  0.
        -24    2    5    5    0    0 -0.49053171349E+02 -0.55675390481E+02  0.17049706975E+03  0.20223903681E+03  0.79532474448E+02 0.  0.
          5    1    3    3  501    0  0.38183475906E+02  0.56178115015E+02  0.40913481692E+01  0.68211344868E+02  0.47000000000E+01 0. -1.
        -11    1    4    4    0    0 -0.15067662014E+02 -0.19894537948E+02 -0.30695986226E+02  0.39560973814E+02  0.00000000000E+00 0.  1.
         12    1    4    4    0    0 -0.20646318716E+02 -0.24474881044E+02  0.48997599463E+02  0.58532512604E+02  0.00000000000E+00 0. -1.
         -5    1    5    5    0  502  0.46583676173E+02  0.43866694458E+02  0.95518073616E+02  0.11506571234E+03  0.47000000000E+01 0.  1.
         13    1    6    6    0    0 -0.68464524686E+02 -0.27082411308E+02  0.12548630717E+03  0.14549110429E+03  0.00000000000E+00 0. -1.
        -14    1    6    6    0    0  0.19411353337E+02 -0.28592979173E+02  0.45010762580E+02  0.56747932512E+02  0.00000000000E+00 0.  1.
</event>
<event>
12    1  0.9028446E-003  0.2342908E+03  0.7818608E-02  0.1123670E+00
         21   -1    0    0  503  502  0.00000000000E+00  0.00000000000E+00  0.12894642296E+04  0.12894642296E+04  0.00000000000E+00 0. -1.
         21   -1    0    0  501  503 -0.00000000000E+00 -0.00000000000E+00 -0.42643659960E+02  0.42643659960E+02  0.00000000000E+00 0. -1.
          6    2    1    2  501    0  0.43120808819E+02 -0.15364357105E+03  0.65374842353E+03  0.69443497752E+03  0.17142691051E+03 0.  0.
         24    2    3    3    0    0 -0.10922527691E+01 -0.14380121001E+02  0.32050866937E+03  0.33053948827E+03  0.79514560132E+02 0.  0.
         -6    2    1    2    0  502 -0.43120808819E+02  0.15364357105E+03  0.59307214608E+03  0.63767291202E+03  0.17154131044E+03 0.  0.
        -24    2    5    5    0    0 -0.42591679970E+02  0.24817104871E+02  0.15986159358E+03  0.18568838666E+03  0.80588509984E+02 0.  0.
          5    1    3    3  501    0  0.44213061588E+02 -0.13926345005E+03  0.33323975417E+03  0.36389548924E+03  0.47000000000E+01 0. -1.
        -13    1    4    4    0    0 -0.31727941184E+02 -0.28279087303E+02  0.12177911970E+03  0.12898264622E+03  0.00000000000E+00 0.  1.
         14    1    4    4    0    0  0.30635688415E+02  0.13898966303E+02  0.19872954966E+03  0.20155684205E+03  0.00000000000E+00 0. -1.
         -5    1    5    5    0  502 -0.52912884941E+00  0.12882646618E+03  0.43321055250E+03  0.45198452536E+03  0.47000000000E+01 0.  1.
         13    1    6    6    0    0 -0.16057623498E+02  0.22795084886E+02  0.15638496722E+03  0.15885125476E+03  0.00000000000E+00 0. -1.
        -14    1    6    6    0    0 -0.26534056471E+02  0.20220199849E+01  0.34766263614E+01  0.26837131898E+02  0.00000000000E+00 0.  1.
</event>
<event>
12    1  0.9028446E-003  0.1920234E+03  0.7818608E-02  0.1157191E+00
         21   -1    0    0  501  502  0.00000000000E+00  0.00000000000E+00  0.39172787262E+03  0.39172787262E+03  0.00000000000E+00 0. -1.
         21   -1    0    0  502  503 -0.00000000000E+00 -0.00000000000E+00 -0.15090658728E+03  0.15090658728E+03  0.00000000000E+00 0. -1.
          6    2    1    2  501    0 -0.71775239245E+02  0.32590307088E+02 -0.48206073097E+02  0.19563332135E+03  0.17243769268E+03 0.  0.
         24    2    3    3    0    0  0.73241786036E+01 -0.29890210350E+02 -0.33846312341E+02  0.93707732357E+02  0.81783237753E+02 0.  0.
         -6    2    1    2    0  503  0.71775239245E+02 -0.32590307088E+02  0.28902735844E+03  0.34700113855E+03  0.17509758176E+03 0.  0.
        -24    2    5    5    0    0  0.18640306659E+02 -0.44999349963E+02  0.27490027995E+03  0.29044170297E+03  0.80086305804E+02 0.  0.
          5    1    3    3  501    0 -0.79099417849E+02  0.62480517437E+02 -0.14359760756E+02  0.10192558900E+03  0.47000000000E+01 0. -1.
        -13    1    4    4    0    0 -0.35187273313E+02 -0.17567852838E+02 -0.23794792845E+01  0.39400959103E+02  0.00000000000E+00 0.  1.
         14    1    4    4    0    0  0.42511451917E+02 -0.12322357512E+02 -0.31466833056E+02  0.54306773254E+02  0.00000000000E+00 0. -1.
         -5    1    5    5    0  503  0.53134932586E+02  0.12409042875E+02  0.14127078493E+02  0.56559435577E+02  0.47000000000E+01 0.  1.
         11    1    6    6    0    0  0.46303650938E+02 -0.34927037109E+02  0.22635120469E+03  0.23366384803E+03  0.00000000000E+00 0. -1.
        -12    1    6    6    0    0 -0.27663344279E+02 -0.10072312854E+02  0.48549075261E+02  0.56777854941E+02  0.00000000000E+00 0.  1.
</event>
<event>
12    1  0.9028446E-003  0.1749822E+03  0.7818608E-02  0.1172918E+00
         21   -1    0    0  501  502  0.00000000000E+00  0.00000000000E+00  0.18093901766E+02  0.18093901766E+02  0.00000000000E+00 0.  1.
         21   -1    0    0  502  503 -0.00000000000E+00 -0.00000000000E+00 -0.21006163958E+04  0.21006163958E+04  0.00000000000E+00 0.  1.
          6    2    1    2  501    0  0.30568405464E+02  0.19655553010E+01 -0.57207364523E+03  0.59823660344E+03  0.17228025802E+03 0.  0.
         24    2    3    3    0    0  0.53674817478E+02  0.31748396810E+02 -0.20650312013E+03  0.23069773100E+03  0.81786048547E+02 0.  0.
         -6    2    1    2    0  503 -0.30568405464E+02 -0.19655553010E+01 -0.15104488488E+04  0.15204736942E+04  0.17159906430E+03 0.  0.
        -24    2    5    5    0    0  0.30818743571E+02 -0.37236732716E+02 -0.10916317698E+04  0.10956887207E+04  0.80854700050E+02 0.  0.
          5    1    3    3  501    0 -0.23106412014E+02 -0.29782841509E+02 -0.36557052511E+03  0.36753887244E+03  0.47000000000E+01 0. -1.
        -11    1    4    4    0    0  0.71555762006E+02  0.81884887657E+01 -0.12902005478E+03  0.14776147319E+03  0.00000000000E+00 0.  1.
         12    1    4    4    0    0 -0.17880944528E+02  0.23559908045E+02 -0.77483065344E+02  0.82936257809E+02  0.00000000000E+00 0. -1.
         -5    1    5    5    0  503 -0.61387149035E+02  0.35271177415E+02 -0.41881707902E+03  0.42478497349E+03  0.47000000000E+01 0.  1.
         13    1    6    6    0    0  0.85426115349E+01 -0.92140844554E+01 -0.21094398910E+02  0.24552988200E+02  0.00000000000E+00 0. -1.
        -14    1    6    6    0    0  0.22276132036E+02 -0.28022648261E+02 -0.10705373709E+04  0.10711357325E+04  0.00000000000E+00 0.  1.
</event>
<event>
12    1  0.9028446E-003  0.1844117E+03  0.7818608E-02  0.1163994E+00
         21   -1    0    0  503  502  0.00000000000E+00  0.00000000000E+00  0.10052868217E+04  0.10052868217E+04  0.00000000000E+00 0.  1.
         21   -1    0    0  501  503 -0.00000000000E+00 -0.00000000000E+00 -0.35619996968E+02  0.35619996968E+02  0.00000000000E+00 0.  1.
          6    2    1    2  501    0 -0.64485904942E+02 -0.10422154179E+01  0.36062926172E+03  0.40504462831E+03  0.17276622461E+03 0.  0.
         24    2    3    3    0    0 -0.81188116935E+02 -0.53189179857E+01  0.36844256844E+03  0.38554099192E+03  0.79196773908E+02 0.  0.
         -6    2    1    2    0  502  0.64485904942E+02  0.10422154179E+01  0.60903756305E+03  0.63586219039E+03  0.17098085805E+03 0.  0.
        -24    2    5    5    0    0  0.67061871579E+02 -0.41935409579E+02  0.24546352656E+03  0.26971757161E+03  0.78989571265E+02 0.  0.
          5    1    3    3  501    0  0.16702211993E+02  0.42767025678E+01 -0.78133067193E+01  0.19503636384E+02  0.47000000000E+01 0. -1.
        -13    1    4    4    0    0 -0.50555228861E+02 -0.41917443402E+02  0.20373947573E+03  0.21406232083E+03  0.00000000000E+00 0.  1.
         14    1    4    4    0    0 -0.30632888074E+02  0.36598525417E+02  0.16470309270E+03  0.17147867109E+03  0.00000000000E+00 0. -1.
         -5    1    5    5    0  502 -0.25759666369E+01  0.42977624997E+02  0.36357403649E+03  0.36614461878E+03  0.47000000000E+01 0.  1.
         11    1    6    6    0    0  0.12588823911E+02  0.13340261601E+01  0.15540171084E+03  0.15591648355E+03  0.00000000000E+00 0. -1.
        -12    1    6    6    0    0  0.54473047668E+02 -0.43269435740E+02  0.90061815722E+02  0.11380108806E+03  0.00000000000E+00 0.  1.
</event>
<event>
12    1  0.9028446E-003  0.2024380E+03  0.7818608E-02  0.1147719E+00
         21   -1    0    0  503  502  0.00000000000E+00  0.00000000000E+00  0.70043292732E+03  0.70043292732E+03  0.00000000000E+00 0. -1.
         21   -1    0    0  501  503 -0.00000000000E+00 -0.00000000000E+00 -0.62775999536E+02  0.62775999536E+02  0.00000000000E+00 0. -1.
          6    2    1    2  501    0  0.73497648766E+02 -0.77622333067E+02  0.21892834653E+03  0.29811242716E+03  0.17179716921E+03 0.  0.
         24    2    3    3    0    0 -0.74408303039E+00 -0.70720352038E+02  0.18988493884E+03  0.21795582037E+03  0.80290272022E+02 0.  0.
         -6    2    1    2    0  502 -0.73497648766E+02  0.77622333067E+02  0.41872858125E+03  0.46509649970E+03  0.17191276365E+03 0.  0.
        -24    2    5    5    0    0 -0.11127091531E+03  0.44284654446E+02  0.23598358914E+03  0.27547571333E+03  0.76526250900E+02 0.  0.
          5    1    3    3  501    0  0.74241731797E+02 -0.69019810282E+01  0.29043407688E+02  0.80156606792E+02  0.47000000000E+01 0. -1.
        -13    1    4    4    0    0  0.25692574626E+02 -0.14029836538E+02  0.16435365344E+02  0.33571802724E+02  0.00000000000E+00 0.  1.
         14    1    4    4    0    0 -0.26436657656E+02 -0.56690515501E+02  0.17344957350E+03  0.18438401765E+03  0.00000000000E+00 0. -1.
         -5    1    5    5    0  502  0.37773266540E+02  0.33337678621E+02  0.18274499211E+03  0.18962078637E+03  0.47000000000E+01 0.  1.
         11    1    6    6    0    0 -0.55235342286E+01  0.22002209323E+02  0.96244921163E+01  0.24642189309E+02  0.00000000000E+00 0. -1.
        -12    1    6    6    0    0 -0.10574738108E+03  0.22282445123E+02  0.22635909703E+03  0.25083352402E+03  0.00000000000E+00 0.  1.
</event>
<event>
12    1  0.9028446E-003  0.1746185E+03  0.7818608E-02  0.1174080E+00
         21   -1    0    0  501  502  0.00000000000E+00  0.00000000000E+00  0.94818534111E+03  0.94818534111E+03  0.00000000000E+00 0. -1.
         21   -1    0    0  502  503 -0.00000000000E+00 -0.00000000000E+00 -0.31482364973E+02  0.31482364973E+02  0.00000000000E+00 0. -1.
          6    2    1    2  501    0  0.17950535707E+02  0.18387798496E+02  0.46508486700E+03  0.49546677246E+03  0.16888770302E+03 0.  0.
         24    2    3    3    0    0  0.40087960431E+02  0.17715256303E+02  0.12428460832E+03  0.15391527678E+03  0.79513355369E+02 0.  0.
         -6    2    1    2    0  503 -0.17950535707E+02 -0.18387798496E+02  0.45161810913E+03  0.48420093362E+03  0.17271738406E+03 0.  0.
        -24    2    5    5    0    0 -0.48057182442E+02  0.27473808927E+02  0.38914947132E+03  0.40092958247E+03  0.79012126327E+02 0.  0.
          5    1    3    3  501    0 -0.22137424724E+02  0.67254219274E+00  0.34080025868E+03  0.34155149568E+03  0.47000000000E+01 0. -1.
        -11    1    4    4    0    0  0.12261966101E+02 -0.10315742963E+02 -0.65033680322E+01  0.17293471638E+02  0.00000000000E+00 0.  1.
         12    1    4    4    0    0  0.27825994330E+02  0.28030999266E+02  0.13078797636E+03  0.13662180514E+03  0.00000000000E+00 0. -1.
         -5    1    5    5    0  503  0.30106646734E+02 -0.45861607424E+02  0.62468637811E+02  0.83271351154E+02  0.47000000000E+01 0.  1.
         11    1    6    6    0    0 -0.32468437245E+02  0.16256556726E+02  0.53077872340E+02  0.64309685008E+02  0.00000000000E+00 0. -1.
        -12    1    6    6    0    0 -0.15588745197E+02  0.11217252202E+02  0.33607159898E+03  0.33661989746E+03  0.00000000000E+00 0.  1.
</event>
<event>
12    1  0.9028446E-003  0.2036831E+03  0.7818608E-02  0.1148259E+00
         21   -1    0    0  501  502  0.00000000000E+00  0.00000000000E+00  0.11407781327E+03  0.11407781327E+03  0.00000000000E+00 0.  1.
         21   -1    0    0  502  503 -0.00000000000E+00 -0.00000000000E+00 -0.46297933390E+03  0.46297933390E+03  0.00000000000E+00 0. -1.
          6    2    1    2  501    0 -0.91925613460E+02 -0.29978117925E+02 -0.34617696814E+02  0.20660394408E+03  0.17927018384E+03 0.  0.
         24    2    3    3    0    0  0.25717879274E+02 -0.49882348930E+01 -0.11081497898E+02  0.83964112477E+02  0.78999245481E+02 0.  0.
         -6    2    1    2    0  503  0.91925613460E+02  0.29978117925E+02 -0.31428382381E+03  0.37045320309E+03  0.17062311627E+03 0.  0.
        -24    2    5    5    0    0  0.43672857654E+02  0.83659034040E+02 -0.18926193151E+03  0.22601452145E+03  0.79726612354E+02 0.  0.
          5    1    3    3  501    0 -0.11764349273E+03 -0.24989883032E+02 -0.23536198916E+02  0.12263983160E+03  0.47000000000E+01 0. -1.
        -11    1    4    4    0    0  0.17057047859E+02 -0.37548728171E+02  0.12202543754E+02  0.43008742634E+02  0.00000000000E+00 0.  1.
         12    1    4    4    0    0  0.86608314144E+01  0.32560493278E+02 -0.23284041651E+02  0.40955369842E+02  0.00000000000E+00 0. -1.
         -5    1    5    5    0  503  0.48252755806E+02 -0.53680916115E+02 -0.12502189231E+03  0.14443868164E+03  0.47000000000E+01 0.  1.
         13    1    6    6    0    0  0.11943181262E+02  0.57358938855E+02 -0.17132819397E+03  0.18106915113E+03  0.00000000000E+00 0. -1.
        -14    1    6    6    0    0  0.31729676393E+02  0.26300095185E+02 -0.17933737540E+02  0.44945370317E+02  0.00000000000E+00 0.  1.
</event>
<event>
12    1  0.9028446E-003  0.1922352E+03  0.7818608E-02  0.1156796E+00
         21   -1    0    0  501  502  0.00000000000E+00  0.00000000000E+00  0.80042248781E+03  0.80042248781E+03  0.00000000000E+00 0. -1.
         21   -1    0    0  502  503 -0.00000000000E+00 -0.00000000000E+00 -0.85843646847E+02  0.85843646847E+02  0.00000000000E+00 0.  1.
          6    2    1    2  501    0  0.11968044115E+02  0.82339336315E+02  0.66065903081E+03  0.68805865250E+03  0.17329556804E+03 0.  0.
         24    2    3    3    0    0 -0.26141439339E+02  0.10274729974E+03  0.58526741927E+03  0.60102530951E+03  0.86331269899E+02 0.  0.
         -6    2    1    2    0  503 -0.11968044115E+02 -0.82339336315E+02  0.53919810155E+02  0.19820748216E+03  0.17162709481E+03 0.  0.
        -24    2    5    5    0    0 -0.63251029739E+02 -0.38250657110E+02  0.61226428044E+02  0.13002219846E+03  0.87711407859E+02 0.  0.
          5    1    3    3  501    0  0.38109483454E+02 -0.20407963426E+02  0.75391611543E+02  0.87033342986E+02  0.47000000000E+01 0. -1.
        -13    1    4    4    0    0  0.47153612809E+01  0.53004233139E+01  0.25952812773E+03  0.25962507237E+03  0.00000000000E+00 0.  1.
         14    1    4    4    0    0 -0.30856800620E+02  0.97446876428E+02  0.32573929154E+03  0.34140023715E+03  0.00000000000E+00 0. -1.
         -5    1    5    5    0  503  0.51282985624E+02 -0.44088679205E+02 -0.73066178882E+01  0.68185283703E+02  0.47000000000E+01 0.  1.
         11    1    6    6    0    0 -0.30710613021E+02 -0.19256473378E+02  0.80071236410E+02  0.87894006732E+02  0.00000000000E+00 0. -1.
        -12    1    6    6    0    0 -0.32540416718E+02 -0.18994183732E+02 -0.18844808366E+02  0.42128191727E+02  0.00000000000E+00 0.  1.
</event>
<event>
12    1  0.9028446E-003  0.1799485E+03  0.7818608E-02  0.1168040E+00
         21   -1    0    0  501  502  0.00000000000E+00  0.00000000000E+00  0.25812591471E+02  0.25812591471E+02  0.00000000000E+00 0.  1.
         21   -1    0    0  502  503 -0.00000000000E+00 -0.00000000000E+00 -0.12754107369E+04  0.12754107369E+04  0.00000000000E+00 0. -1.
          6    2    1    2  501    0 -0.46122914078E+02  0.25586728801E+02 -0.71691182597E+03  0.73896343494E+03  0.17123781145E+03 0.  0.
         24    2    3    3    0    0 -0.49358108153E+02  0.52583946702E+02 -0.25856528271E+03  0.27978704185E+03  0.78889093494E+02 0.  0.
         -6    2    1    2    0  503  0.46122914078E+02 -0.25586728801E+02 -0.53268631947E+03  0.56225989344E+03  0.17204496194E+03 0.  0.
        -24    2    5    5    0    0  0.82716079071E+02 -0.30406978287E+01 -0.48344283442E+03  0.49672826706E+03  0.78554449653E+02 0.  0.
          5    1    3    3  501    0  0.32351940748E+01 -0.26997217901E+02 -0.45834654326E+03  0.45917639309E+03  0.47000000000E+01 0. -1.
        -13    1    4    4    0    0 -0.64784974934E+02  0.17091997491E+02 -0.18316992424E+03  0.19503961265E+03  0.00000000000E+00 0.  1.
         14    1    4    4    0    0  0.15426866781E+02  0.35491949211E+02 -0.75395358469E+02  0.84747429201E+02  0.00000000000E+00 0. -1.
         -5    1    5    5    0  503 -0.36593164993E+02 -0.22546030973E+02 -0.49243485052E+02  0.65531626386E+02  0.47000000000E+01 0.  1.
         11    1    6    6    0    0  0.27242507071E+02  0.28611969788E+02 -0.92217037117E+02  0.10032338183E+03  0.00000000000E+00 0. -1.
        -12    1    6    6    0    0  0.55473572001E+02 -0.31652667617E+02 -0.39122579730E+03  0.39640488523E+03  0.00000000000E+00 0.  1.
</event>
<event>
12    1  0.9028446E-003  0.2585994E+03  0.7818608E-02  0.1108034E+00
         21   -1    0    0  501  502  0.00000000000E+00  0.00000000000E+00  0.62424668540E+02  0.62424668540E+02  0.00000000000E+00 0. -1.
         21   -1    0    0  502  503 -0.00000000000E+00 -0.00000000000E+00 -0.13581230838E+04  0.13581230838E+04  0.00000000000E+00 0.  1.
          6    2    1    2  501    0  0.18586920930E+03  0.52367520179E+02 -0.32039094295E+03  0.41153918200E+03  0.17153548281E+03 0.  0.
         24    2    3    3    0    0  0.26668517702E+02  0.12511020255E+02 -0.61281337467E+02  0.10479290502E+03  0.79739671154E+02 0.  0.
         -6    2    1    2    0  503 -0.18586920930E+03 -0.52367520179E+02 -0.97530747229E+03  0.10090085703E+04  0.17199973643E+03 0.  0.
        -24    2    5    5    0    0 -0.11230091072E+03 -0.39807043804E+01 -0.32232553925E+03  0.35009956797E+03  0.77772833834E+02 0.  0.
          5    1    3    3  501    0  0.15920069160E+03  0.39856499924E+02 -0.25910960548E+03  0.30674627699E+03  0.47000000000E+01 0. -1.
        -11    1    4    4    0    0  0.23207869507E+01  0.14087544743E+01 -0.74774630592E+02  0.74823900068E+02  0.00000000000E+00 0.  1.
         12    1    4    4    0    0  0.24347730751E+02  0.11102265781E+02  0.13493293126E+02  0.29969004948E+02  0.00000000000E+00 0. -1.
         -5    1    5    5    0  503 -0.73568298579E+02 -0.48386815799E+02 -0.65298193304E+03  0.65890900235E+03  0.47000000000E+01 0.  1.
         11    1    6    6    0    0 -0.11460518209E+02 -0.17047048535E+02 -0.12572347687E+02  0.24083381568E+02  0.00000000000E+00 0. -1.
        -12    1    6    6    0    0 -0.10084039251E+03  0.13066344154E+02 -0.30975319157E+03  0.32601618640E+03  0.00000000000E+00 0.  1.
</event>
<event>
12    1  0.9028446E-003  0.3790145E+03  0.7818608E-02  0.1051380E+00
         21   -1    0    0  503  502  0.00000000000E+00  0.00000000000E+00  0.14198544025E+03  0.14198544025E+03  0.00000000000E+00 0.  1.
         21   -1    0    0  501  503 -0.00000000000E+00 -0.00000000000E+00 -0.10368255739E+04  0.10368255739E+04  0.00000000000E+00 0. -1.
          6    2    1    2  501    0 -0.21190173607E+03  0.26119886558E+03 -0.54381079055E+03  0.66285910727E+03  0.17471355715E+03 0.  0.
         24    2    3    3    0    0 -0.94104795620E+02  0.39195312423E+02 -0.18896309817E+03  0.22800203699E+03  0.76719562860E+02 0.  0.
         -6    2    1    2    0  502  0.21190173607E+03 -0.26119886558E+03 -0.35102934312E+03  0.51595190689E+03  0.17279345289E+03 0.  0.
        -24    2    5    5    0    0  0.15217694459E+03 -0.19629214401E+03 -0.33770559145E+03  0.42662360466E+03  0.79209881238E+02 0.  0.
          5    1    3    3  501    0 -0.11779694045E+03  0.22200355316E+03 -0.35484769238E+03  0.43485707029E+03  0.47000000000E+01 0. -1.
        -11    1    4    4    0    0 -0.20710206182E+02  0.38538567997E+02 -0.30401185196E+02  0.53276316734E+02  0.00000000000E+00 0.  1.
         12    1    4    4    0    0 -0.73394589438E+02  0.65674442533E+00 -0.15856191297E+03  0.17472572025E+03  0.00000000000E+00 0. -1.
         -5    1    5    5    0  502  0.59724791483E+02 -0.64906721566E+02 -0.13323751673E+02  0.89328302238E+02  0.47000000000E+01 0.  1.
         13    1    6    6    0    0  0.60655345032E+02 -0.14090366974E+03 -0.20920264816E+03  0.25941985857E+03  0.00000000000E+00 0. -1.
        -14    1    6    6    0    0  0.91521599558E+02 -0.55388474271E+02 -0.12850294330E+03  0.16720374608E+03  0.00000000000E+00 0.  1.
</event>
<event>
12    1  0.9028446E-003  0.1876886E+03  0.7818608E-02  0.1161586E+00
         21   -1    0    0  501  502  0.00000000000E+00  0.00000000000E+00  0.57329875637E+03  0.57329875637E+03  0.00000000000E+00 0. -1.
         21   -1    0    0  502  503 -0.00000000000E+00 -0.00000000000E+00 -0.73291682889E+02  0.73291682889E+02  0.00000000000E+00 0. -1.
          6    2    1    2  501    0  0.60455194474E+02 -0.79410511539E+01  0.39004658395E+03  0.43285488810E+03  0.17750810029E+03 0.  0.
         24    2    3    3    0    0  0.81246127253E+02 -0.44625962692E+02  0.17691180962E+03  0.21553814312E+03  0.81033900414E+02 0.  0.
         -6    2    1    2    0  503 -0.60455194474E+02  0.79410511539E+01  0.10996048953E+03  0.21373555116E+03  0.17284005826E+03 0.  0.
        -24    2    5    5    0    0 -0.44903969092E+02 -0.55462305970E+02  0.10370609604E+03  0.14798576984E+03  0.77797171517E+02 0.  0.
          5    1    3    3  501    0 -0.20790932779E+02  0.36684911538E+02  0.21313477433E+03  0.21731674498E+03  0.47000000000E+01 0. -1.
        -13    1    4    4    0    0  0.53214906199E+02 -0.25373399777E+02  0.32792080421E+02  0.67460775243E+02  0.00000000000E+00 0.  1.
         14    1    4    4    0    0  0.28031221054E+02 -0.19252562915E+02  0.14411972920E+03  0.14807736788E+03  0.00000000000E+00 0. -1.
         -5    1    5    5    0  503 -0.15551225382E+02  0.63403357124E+02  0.62543934907E+01  0.65749781318E+02  0.47000000000E+01 0.  1.
         13    1    6    6    0    0  0.13159574391E+02  0.88443225180E+00 -0.35273716232E+01  0.13652800779E+02  0.00000000000E+00 0. -1.
        -14    1    6    6    0    0 -0.58063543483E+02 -0.56346738222E+02  0.10723346766E+03  0.13433296906E+03  0.00000000000E+00 0.  1.
</event>
<event>
12    1  0.9028446E-003  0.1817653E+03  0.7818608E-02  0.1166962E+00
         21   -1    0    0  503  502  0.00000000000E+00  0.00000000000E+00  0.45135200942E+03  0.45135200942E+03  0.00000000000E+00 0.  1.
         21   -1    0    0  501  503 -0.00000000000E+00 -0.00000000000E+00 -0.86977343157E+02  0.86977343157E+02  0.00000000000E+00 0. -1.
          6    2    1    2  501    0 -0.17239290490E+02 -0.56879633996E+02  0.68184689264E+02  0.19081368624E+03  0.16801257425E+03 0.  0.
         24    2    3    3    0    0  0.44441372217E+02 -0.22777026331E+02  0.72846144946E+02  0.12002307125E+03  0.81272063502E+02 0.  0.
         -6    2    1    2    0  502  0.17239290490E+02  0.56879633996E+02  0.29618997700E+03  0.34751566634E+03  0.17177354271E+03 0.  0.
        -24    2    5    5    0    0  0.14846364971E+02  0.76071342457E+02  0.30545610714E+03  0.32556119222E+03  0.81727552230E+02 0.  0.
          5    1    3    3  501    0 -0.61680662707E+02 -0.34102607665E+02 -0.46614556825E+01  0.70790614989E+02  0.47000000000E+01 0. -1.
        -11    1    4    4    0    0  0.43364982259E+02 -0.14250362738E+01 -0.73946864059E+00  0.43394691249E+02  0.00000000000E+00 0.  1.
         12    1    4    4    0    0  0.10763899580E+01 -0.21351990058E+02  0.73585613587E+02  0.76628380002E+02  0.00000000000E+00 0. -1.
         -5    1    5    5    0  502  0.23929255190E+01 -0.19191708461E+02 -0.92661301385E+01  0.21954474121E+02  0.47000000000E+01 0.  1.
         13    1    6    6    0    0 -0.33088705479E+02  0.20730803762E+02  0.93919093198E+02  0.10171246100E+03  0.00000000000E+00 0. -1.
        -14    1    6    6    0    0  0.47935070449E+02  0.55340538695E+02  0.21153701394E+03  0.22384873122E+03  0.00000000000E+00 0.  1.
</event>
<event>
12    1  0.9028446E-003  0.1998169E+03  0.7818608E-02  0.1149924E+00
         21   -1    0    0  501  502  0.00000000000E+00  0.00000000000E+00  0.56474800026E+02  0.56474800026E+02  0.00000000000E+00 0.  1.
         21   -1    0    0  502  503 -0.00000000000E+00 -0.00000000000E+00 -0.80755171295E+03  0.80755171295E+03  0.00000000000E+00 0. -1.
          6    2    1    2  501    0 -0.62408178113E+02  0.79546714495E+02 -0.52849582778E+03  0.56500851369E+03  0.17234941276E+03 0.  0.
         24    2    3    3    0    0  0.21727503555E+02  0.45609778302E+02 -0.16997886463E+03  0.19516120542E+03  0.81503039161E+02 0.  0.
         -6    2    1    2    0  503  0.62408178113E+02 -0.79546714495E+02 -0.22258108514E+03  0.29901799928E+03  0.17218293746E+03 0.  0.
        -24    2    5    5    0    0  0.60355211313E+02 -0.75750401549E+02 -0.49441358848E+02  0.12576072964E+03  0.63169915991E+02 0.  0.
          5    1    3    3  501    0 -0.84135681668E+02  0.33936936193E+02 -0.35851696315E+03  0.36984730827E+03  0.47000000000E+01 0. -1.
        -13    1    4    4    0    0  0.11860685038E+02  0.67278237280E+02 -0.14687231609E+03  0.16198306792E+03  0.00000000000E+00 0.  1.
         14    1    4    4    0    0  0.98668185177E+01 -0.21668458978E+02 -0.23106548541E+02  0.33178137494E+02  0.00000000000E+00 0. -1.
         -5    1    5    5    0  503  0.20529667998E+01 -0.37963129457E+01 -0.17313972629E+03  0.17325726965E+03  0.47000000000E+01 0.  1.
         13    1    6    6    0    0 -0.96850356454E+01  0.68385941677E+00 -0.12224674922E+02  0.15611222121E+02  0.00000000000E+00 0. -1.
        -14    1    6    6    0    0  0.70040246959E+02 -0.76434260966E+02 -0.37216683926E+02  0.11014950752E+03  0.00000000000E+00 0.  1.
</event>
<event>
12    1  0.9028446E-003  0.1836857E+03  0.7818608E-02  0.1164931E+00
         21   -1    0    0  503  502  0.00000000000E+00  0.00000000000E+00  0.23908854659E+03  0.23908854659E+03  0.00000000000E+00 0.  1.
         21   -1    0    0  501  503 -0.00000000000E+00 -0.00000000000E+00 -0.17448449441E+03  0.17448449441E+03  0.00000000000E+00 0.  1.
          6    2    1    2  501    0 -0.24172685531E+02  0.51733956573E+02 -0.60713834868E+02  0.19345954963E+03  0.17458438250E+03 0.  0.
         24    2    3    3    0    0  0.31233491929E+02 -0.24277269227E+02 -0.27149874834E+02  0.93478649651E+02  0.80226089384E+02 0.  0.
         -6    2    1    2    0  502  0.24172685531E+02 -0.51733956573E+02  0.12531788705E+03  0.22011349138E+03  0.17171096436E+03 0.  0.
        -24    2    5    5    0    0  0.15697458327E+02 -0.10027795586E+03  0.72070697859E+02  0.14741065444E+03  0.78953384493E+02 0.  0.
          5    1    3    3  501    0 -0.55406177460E+02  0.76011225799E+02 -0.33563960034E+02  0.99980899983E+02  0.47000000000E+01 0. -1.
        -13    1    4    4    0    0  0.12661598251E+02 -0.67674338693E+01 -0.54328510433E+02  0.56193427350E+02  0.00000000000E+00 0.  1.
         14    1    4    4    0    0  0.18571893678E+02 -0.17509835358E+02  0.27178635599E+02  0.37285222301E+02  0.00000000000E+00 0. -1.
         -5    1    5    5    0  502  0.84752272042E+01  0.48543999283E+02  0.53247189189E+02  0.72702836939E+02  0.47000000000E+01 0.  1.
         13    1    6    6    0    0  0.17680083101E+02 -0.57320333226E+02 -0.39016729608E+01  0.60111804094E+02  0.00000000000E+00 0. -1.
        -14    1    6    6    0    0 -0.19826247739E+01 -0.42957622630E+02  0.75972370820E+02  0.87298850342E+02  0.00000000000E+00 0.  1.
</event>
<event>
12    1  0.9028446E-003  0.1730430E+03  0.7818608E-02  0.1175138E+00
         21   -1    0    0  501  502  0.00000000000E+00  0.00000000000E+00  0.63260412106E+03  0.63260412106E+03  0.00000000000E+00 0.  1.
         21   -1    0    0  502  503 -0.00000000000E+00 -0.00000000000E+00 -0.60690918065E+02  0.60690918065E+02  0.00000000000E+00 0.  1.
          6    2    1    2  501    0 -0.21114973174E+02  0.11781514243E+01  0.45239218551E+03  0.48435790489E+03  0.17174591808E+03 0.  0.
         24    2    3    3    0    0  0.74621467092E+01  0.35782924421E+02  0.11447740225E+03  0.14344349797E+03  0.78325348196E+02 0.  0.
         -6    2    1    2    0  503  0.21114973174E+02 -0.11781514243E+01  0.11952101748E+03  0.20893713424E+03  0.17006534718E+03 0.  0.
        -24    2    5    5    0    0  0.51941976647E+02 -0.53911850865E+02  0.65849151473E+02  0.12748833805E+03  0.79452558091E+02 0.  0.
          5    1    3    3  501    0 -0.28577119883E+02 -0.34604772996E+02  0.33791478327E+03  0.34091440692E+03  0.47000000000E+01 0. -1.
        -11    1    4    4    0    0 -0.38133823871E+01 -0.45143254247E+01 -0.10278889169E+02  0.11856499560E+02  0.00000000000E+00 0.  1.
         12    1    4    4    0    0  0.11275529096E+02  0.40297249845E+02  0.12475629142E+03  0.13158699841E+03  0.00000000000E+00 0. -1.
         -5    1    5    5    0  503 -0.30827003473E+02  0.52733699441E+02  0.53671866008E+02  0.81448796189E+02  0.47000000000E+01 0.  1.
         13    1    6    6    0    0  0.32206439491E+02  0.16207494709E+02  0.26053830462E+02  0.44483027226E+02  0.00000000000E+00 0. -1.
        -14    1    6    6    0    0  0.19735537156E+02 -0.70119345574E+02  0.39795321010E+02  0.83005310824E+02  0.00000000000E+00 0.  1.
</event>
<event>
12    1  0.9028446E-003  0.2018475E+03  0.7818608E-02  0.1151722E+00
         21   -1    0    0  503  502  0.00000000000E+00  0.00000000000E+00  0.19367664458E+03  0.19367664458E+03  0.00000000000E+00 0.  1.
         21   -1    0    0  501  503 -0.00000000000E+00 -0.00000000000E+00 -0.20108560936E+03  0.20108560936E+03  0.00000000000E+00 0.  1.
          6    2    1    2  501    0  0.94149844213E+02 -0.48275774735E+02 -0.41368546859E+02  0.20604311007E+03  0.17189433658E+03 0.  0.
         24    2    3    3    0    0  0.82931581584E+02 -0.42222096162E+02 -0.92287212191E+02  0.15334304442E+03  0.79604064656E+02 0.  0.
         -6    2    1    2    0  502 -0.94149844213E+02  0.48275774735E+02  0.33959582074E+02  0.18871914386E+03  0.15253497453E+03 0.  0.
        -24    2    5    5    0    0 -0.55566176491E+02  0.19928591061E+02  0.74445882124E+02  0.12584233789E+03  0.82518821671E+02 0.  0.
          5    1    3    3  501    0  0.11218262628E+02 -0.60536785734E+01  0.50918665331E+02  0.52700065653E+02  0.47000000000E+01 0. -1.
        -13    1    4    4    0    0  0.80250547088E+02 -0.19323345848E+01 -0.48536039428E+02  0.93806350256E+02  0.00000000000E+00 0.  1.
         14    1    4    4    0    0  0.26810344957E+01 -0.40289761577E+02 -0.43751172763E+02  0.59536694164E+02  0.00000000000E+00 0. -1.
         -5    1    5    5    0  502 -0.38583667721E+02  0.28347183674E+02 -0.40486300050E+02  0.62876805969E+02  0.47000000000E+01 0.  1.
         13    1    6    6    0    0 -0.31960895176E+02  0.21785569726E+02 -0.84833804912E+01  0.39598959750E+02  0.00000000000E+00 0. -1.
        -14    1    6    6    0    0 -0.23605281315E+02 -0.18569786651E+01  0.82929262615E+02  0.86243378144E+02  0.00000000000E+00 0.  1.
</event>
<event>
12    1  0.9028446E-003  0.1849213E+03  0.7818608E-02  0.1163355E+00
         21   -1    0    0  503  502  0.00000000000E+00  0.00000000000E+00  0.81254020440E+02  0.81254020440E+02  0.00000000000E+00 0.  1.
         21   -1    0    0  501  503 -0.00000000000E+00 -0.00000000000E+00 -0.45580576122E+03  0.45580576122E+03  0.00000000000E+00 0.  1.
          6    2    1    2  501    0  0.36141149109E+02  0.57540176416E+02 -0.26353331376E+03  0.32137256627E+03  0.17091946737E+03 0.  0.
         24    2    3    3    0    0  0.72886904118E+02  0.55646115638E+02 -0.25576190267E+03  0.28347371658E+03  0.80834436690E+02 0.  0.
         -6    2    1    2    0  502 -0.36141149109E+02 -0.57540176416E+02 -0.11101842702E+03  0.21568721539E+03  0.17198496791E+03 0.  0.
        -24    2    5    5    0    0 -0.61522336249E+02 -0.21921592715E+02 -0.13134214024E+03  0.16723072476E+03  0.80310668133E+02 0.  0.
          5    1    3    3  501    0 -0.36745755009E+02  0.18940607781E+01 -0.77714110895E+01  0.37898849689E+02  0.47000000000E+01 0. -1.
        -13    1    4    4    0    0  0.29481183938E+02  0.36887223128E+02 -0.21772820924E+03  0.22278999200E+03  0.00000000000E+00 0.  1.
         14    1    4    4    0    0  0.43405720180E+02  0.18758892510E+02 -0.38033693430E+02  0.60683724577E+02  0.00000000000E+00 0. -1.
         -5    1    5    5    0  502  0.25381187140E+02 -0.35618583700E+02  0.20323713221E+02  0.48456490634E+02  0.47000000000E+01 0.  1.
         13    1    6    6    0    0 -0.47498318958E+02 -0.42856732725E+02 -0.12623436158E+03  0.14151997699E+03  0.00000000000E+00 0. -1.
        -14    1    6    6    0    0 -0.14024017291E+02  0.20935140009E+02 -0.51077786642E+01  0.25710747774E+02  0.00000000000E+00 0.  1.
</event>
<event>
12    1  0.9028446E-003  0.2563705E+03  0.7818608E-02  0.1109360E+00
         21   -1    0    0  501  502  0.00000000000E+00  0.00000000000E+00  0.29816979735E+03  0.29816979735E+03  0.00000000000E+00 0.  1.
         21   -1    0    0  502  503 -0.00000000000E+00 -0.00000000000E+00 -0.27021769485E+03  0.27021769485E+03  0.00000000000E+00 0.  1.
          6    2    1    2  501    0 -0.16705069297E+03 -0.89975709549E+02  0.13607663363E+03  0.29024593568E+03  0.17240733925E+03 0.  0.
         24    2    3    3    0    0 -0.13802092029E+03 -0.23865604818E+02  0.14495445216E+03  0.21734751792E+03  0.81294580479E+02 0.  0.
         -6    2    1    2    0  503  0.16705069297E+03  0.89975709549E+02 -0.10812453113E+03  0.27814155652E+03  0.17225054107E+03 0.  0.
        -24    2    5    5    0    0  0.53603701172E+02 -0.10036611817E+02 -0.95760183049E+01  0.97568624567E+02  0.80335832709E+02 0.  0.
          5    1    3    3  501    0 -0.29029772676E+02 -0.66110104731E+02 -0.88778185302E+01  0.72898417754E+02  0.47000000000E+01 0. -1.
        -13    1    4    4    0    0 -0.10833022139E+03 -0.36788965534E+02  0.66160537650E+02  0.13215930385E+03  0.00000000000E+00 0.  1.
         14    1    4    4    0    0 -0.29690698899E+02  0.12923360716E+02  0.78793914510E+02  0.85188214074E+02  0.00000000000E+00 0. -1.
         -5    1    5    5    0  503  0.11344699180E+03  0.10001232137E+03 -0.98548512829E+02  0.18057293195E+03  0.47000000000E+01 0.  1.
         11    1    6    6    0    0 -0.11532324694E+02 -0.60821965296E+00  0.21790456540E+02  0.24661476846E+02  0.00000000000E+00 0. -1.
        -12    1    6    6    0    0  0.65136025867E+02 -0.94283921640E+01 -0.31366474845E+02  0.72907147720E+02  0.00000000000E+00 0.  1.
</event>
<event>
12    1  0.9028446E-003  0.1842844E+03  0.7818608E-02  0.1164322E+00
         21   -1    0    0  501  502  0.00000000000E+00  0.00000000000E+00  0.57808125739E+02  0.57808125739E+02  0.00000000000E+00 0.  1.
         21   -1    0    0  502  503 -0.00000000000E+00 -0.00000000000E+00 -0.68474701162E+03  0.68474701162E+03  0.00000000000E+00 0.  1.
          6    2    1    2  501    0  0.28178821248E+02  0.47570002509E+02 -0.16967879147E+03  0.25050277674E+03  0.17579476038E+03 0.  0.
         24    2    3    3    0    0  0.69498290954E+02  0.76941631160E+02 -0.10065624576E+03  0.16473452526E+03  0.79093343282E+02 0.  0.
         -6    2    1    2    0  503 -0.28178821248E+02 -0.47570002509E+02 -0.45726009441E+03  0.49205236061E+03  0.17312359902E+03 0.  0.
        -24    2    5    5    0    0 -0.54720148294E+02  0.26392399807E+02 -0.32541704102E+03  0.33849598749E+03  0.70657126797E+02 0.  0.
          5    1    3    3  501    0 -0.41319469707E+02 -0.29371628651E+02 -0.69022545706E+02  0.85768251481E+02  0.47000000000E+01 0. -1.
        -11    1    4    4    0    0 -0.54530105885E+01  0.27234471920E+02  0.24889565186E+01  0.27886317250E+02  0.00000000000E+00 0.  1.
         12    1    4    4    0    0  0.74951301543E+02  0.49707159240E+02 -0.10314520228E+03  0.13684820801E+03  0.00000000000E+00 0. -1.
         -5    1    5    5    0  503  0.26541327046E+02 -0.73962402316E+02 -0.13184305339E+03  0.15355637312E+03  0.47000000000E+01 0.  1.
         13    1    6    6    0    0 -0.56448168786E+02  0.21655270038E+02 -0.13394827362E+03  0.14696083317E+03  0.00000000000E+00 0. -1.
        -14    1    6    6    0    0  0.17280204926E+01  0.47371297697E+01 -0.19146876740E+03  0.19153515433E+03  0.00000000000E+00 0.  1.
</event>
<event>
12    1  0.9028446E-003  0.2008212E+03  0.7818608E-02  0.1149320E+00
         21   -1    0    0  503  502  0.00000000000E+00  0.00000000000E+00  0.60528541765E+03  0.60528541765E+03  0.00000000000E+00 0. -1.
         21   -1    0    0  501  503 -0.00000000000E+00 -0.00000000000E+00 -0.79585975256E+02  0.79585975256E+02  0.00000000000E+00 0. -1.
          6    2    1    2  501    0  0.70462144988E+02 -0.74685938520E+02  0.12312233798E+03  0.23555943020E+03  0.17258688176E+03 0.  0.
         24    2    3    3    0    0  0.20636591487E+02  0.24295989295E+02  0.77572518781E+02  0.11565578619E+03  0.79640449557E+02 0.  0.
         -6    2    1    2    0  502 -0.70462144988E+02  0.74685938520E+02  0.40257710441E+03  0.44931196271E+03  0.17108480807E+03 0.  0.
        -24    2    5    5    0    0 -0.87762397480E+02  0.78320338740E+00  0.17862064279E+03  0.21279663615E+03  0.75327435289E+02 0.  0.
          5    1    3    3  501    0  0.49825553500E+02 -0.98981927816E+02  0.45549819204E+02  0.11990364400E+03  0.47000000000E+01 0. -1.
        -11    1    4    4    0    0  0.27131793363E+02 -0.22940419205E+01  0.83346615328E+02  0.87681555222E+02  0.00000000000E+00 0.  1.
         12    1    4    4    0    0 -0.64952018759E+01  0.26590031216E+02 -0.57740965471E+01  0.27974230970E+02  0.00000000000E+00 0. -1.
         -5    1    5    5    0  502  0.17300252492E+02  0.73902735133E+02  0.22395646162E+03  0.23651532656E+03  0.47000000000E+01 0.  1.
         13    1    6    6    0    0 -0.96276875725E+01 -0.27420760514E+02  0.25817118305E+02  0.38873050726E+02  0.00000000000E+00 0. -1.
        -14    1    6    6    0    0 -0.78134709907E+02  0.28203963901E+02  0.15280352448E+03  0.17392358542E+03  0.00000000000E+00 0.  1.
</event>
<event>
12    1  0.9028446E-003  0.1848994E+03  0.7818608E-02  0.1163215E+00
         21   -1    0    0  501  502  0.00000000000E+00  0.00000000000E+00  0.12320254874E+03  0.12320254874E+03  0.00000000000E+00 0.  1.
         21   -1    0    0  502  503 -0.00000000000E+00 -0.00000000000E+00 -0.29945542712E+03  0.29945542712E+03  0.00000000000E+00 0. -1.
          6    2    1    2  501    0 -0.55370160276E+02 -0.32712687981E+02 -0.30373167960E+02  0.18737751734E+03  0.17335463671E+03 0.  0.
         24    2    3    3    0    0 -0.75864979274E+02 -0.19316145077E+02 -0.76326079208E+02  0.13509688021E+03  0.79352933992E+02 0.  0.
         -6    2    1    2    0  503  0.55370160276E+02  0.32712687981E+02 -0.14587971043E+03  0.23528045852E+03  0.17303187464E+03 0.  0.
        -24    2    5    5    0    0  0.76654110005E+02  0.54608731382E+02 -0.15799740737E+03  0.20209353621E+03  0.83789322222E+02 0.  0.
          5    1    3    3  501    0  0.20494818998E+02 -0.13396542904E+02  0.45952911247E+02  0.52280637139E+02  0.47000000000E+01 0. -1.
        -11    1    4    4    0    0 -0.70048394328E+02  0.63206279983E+01 -0.20290522316E+02  0.73201319538E+02  0.00000000000E+00 0.  1.
         12    1    4    4    0    0 -0.58165849455E+01 -0.25636773075E+02 -0.56035556892E+02  0.61895560667E+02  0.00000000000E+00 0. -1.
         -5    1    5    5    0  503 -0.21283949729E+02 -0.21896043401E+02  0.12117696947E+02  0.33186922304E+02  0.47000000000E+01 0.  1.
         13    1    6    6    0    0  0.18697129311E+02  0.55512746824E+02 -0.11778454257E+03  0.13154636511E+03  0.00000000000E+00 0. -1.
        -14    1    6    6    0    0  0.57956980694E+02 -0.90401544165E+00 -0.40212864797E+02  0.70547171101E+02  0.00000000000E+00 0.  1.
</event>
<event>
12    1  0.9028446E-003  0.2078860E+03  0.7818608E-02  0.1143331E+00
         21   -1    0    0  501  502  0.00000000000E+00  0.00000000000E+00  0.46650663072E+02  0.46650663072E+02  0.00000000000E+00 0.  1.
         21   -1    0    0  502  503 -0.00000000000E+00 -0.00000000000E+00 -0.96013744578E+03  0.96013744578E+03  0.00000000000E+00 0.  1.
          6    2    1    2  501    0  0.10962074275E+03 -0.39433507496E+02 -0.35950145884E+03  0.41508180998E+03  0.17169712087E+03 0.  0.
         24    2    3    3    0    0  0.45298980145E+02 -0.52305965139E+02 -0.90976752905E+02  0.13862096825E+03  0.78428895691E+02 0.  0.
         -6    2    1    2    0  503 -0.10962074275E+03  0.39433507496E+02 -0.55398532386E+03  0.59170629886E+03  0.17217693315E+03 0.  0.
        -24    2    5    5    0    0  0.76916360126E+01 -0.13542910070E+02 -0.16078055921E+03  0.17794214869E+03  0.74635436496E+02 0.  0.
          5    1    3    3  501    0  0.64321762606E+02  0.12872457642E+02 -0.26852470594E+03  0.27646084173E+03  0.47000000000E+01 0. -1.
        -13    1    4    4    0    0  0.23143875985E+02  0.10682874521E+02  0.34436391336E+00  0.25492771332E+02  0.00000000000E+00 0.  1.
         14    1    4    4    0    0  0.22155104159E+02 -0.62988839660E+02 -0.91321116818E+02  0.11312819692E+03  0.00000000000E+00 0. -1.
         -5    1    5    5    0  503 -0.11731237876E+03  0.52976417567E+02 -0.39320476465E+03  0.41376415018E+03  0.47000000000E+01 0.  1.
         13    1    6    6    0    0  0.30729159886E+02  0.11627339336E+02 -0.12172315491E+03  0.12607935092E+03  0.00000000000E+00 0. -1.
        -14    1    6    6    0    0 -0.23037523873E+02 -0.25170249406E+02 -0.39057404304E+02  0.51862797768E+02  0.00000000000E+00 0.  1.
</event>
<event>
12    1  0.9028446E-003  0.1921666E+03  0.7818608E-02  0.1156839E+00
         21   -1    0    0  501  502  0.00000000000E+00  0.00000000000E+00  0.11179838548E+04  0.11179838548E+04  0.00000000000E+00 0. -1.
         21   -1    0    0  502  503 -0.00000000000E+00 -0.00000000000E+00 -0.36256775324E+02  0.36256775324E+02  0.00000000000E+00 0. -1.
          6    2    1    2  501    0  0.48657701862E+01 -0.84264689234E+02  0.71759190825E+03  0.74250960050E+03  0.17105012854E+03 0.  0.
         24    2    3    3    0    0  0.62678229538E+02 -0.21132905321E+02  0.43798405696E+03  0.45005354722E+03  0.79642959944E+02 0.  0.
         -6    2    1    2    0  503 -0.48657701862E+01  0.84264689234E+02  0.36413517119E+03  0.41173102959E+03  0.17263778340E+03 0.  0.
        -24    2    5    5    0    0  0.16916299618E+02  0.11361973130E+03  0.19636156442E+03  0.23995719518E+03  0.76328153399E+02 0.  0.
          5    1    3    3  501    0 -0.57812459352E+02 -0.63131783913E+02  0.27960785130E+03  0.29245605329E+03  0.47000000000E+01 0. -1.
        -13    1    4    4    0    0 -0.11537152474E+02  0.64900657375E+01  0.16298588758E+02  0.20996924441E+02  0.00000000000E+00 0.  1.
         14    1    4    4    0    0  0.74215382012E+02 -0.27622971059E+02  0.42168546820E+03  0.42905662278E+03  0.00000000000E+00 0. -1.
         -5    1    5    5    0  503 -0.21782069804E+02 -0.29355042071E+02  0.16777360677E+03  0.17177383441E+03  0.47000000000E+01 0.  1.
         11    1    6    6    0    0  0.35028397943E+02  0.32592976700E+02  0.37811087412E+02  0.60983351203E+02  0.00000000000E+00 0. -1.
        -12    1    6    6    0    0 -0.18112098326E+02  0.81026754605E+02  0.15855047701E+03  0.17897384397E+03  0.00000000000E+00 0.  1.
</event>
<event>
12    1  0.9028446E-003  0.1799952E+03  0.7818608E-02  0.1167857E+00
         21   -1    0    0  501  502  0.00000000000E+00  0.00000000000E+00  0.15144073432E+03  0.15144073432E+03  0.00000000000E+00 0.  1.
         21   -1    0    0  502  503 -0.00000000000E+00 -0.00000000000E+00 -0.37240707384E+03  0.37240707384E+03  0.00000000000E+00 0.  1.
          6    2    1    2  501    0  0.27727547676E+02 -0.40513936454E+02  0.60543402036E+02  0.18971309817E+03  0.17296057395E+03 0.  0.
         24    2    3    3    0    0 -0.49283459855E+01  0.27158808563E+02  0.74354963335E+02  0.11316992712E+03  0.80727209511E+02 0.  0.
         -6    2    1    2    0  503 -0.27727547676E+02  0.40513936454E+02 -0.28150974155E+03  0.33413470998E+03  0.17317064959E+03 0.  0.
        -24    2    5    5    0    0 -0.20824473679E+02 -0.30593558102E+02 -0.48642653588E+02  0.90509795679E+02  0.66755455690E+02 0.  0.
          5    1    3    3  501    0  0.32655893662E+02 -0.67672745017E+02 -0.13811561300E+02  0.76543171051E+02  0.47000000000E+01 0. -1.
        -11    1    4    4    0    0 -0.80436818031E+01 -0.26856311702E+02  0.40803499275E+02  0.49506442493E+02  0.00000000000E+00 0.  1.
         12    1    4    4    0    0  0.31153358176E+01  0.54015120265E+02  0.33551464060E+02  0.63663484629E+02  0.00000000000E+00 0. -1.
         -5    1    5    5    0  503 -0.69030739975E+01  0.71107494556E+02 -0.23286708797E+03  0.24362491431E+03  0.47000000000E+01 0.  1.
         11    1    6    6    0    0 -0.40721784329E+02 -0.29141197228E+02 -0.16582123277E+02  0.52748837971E+02  0.00000000000E+00 0. -1.
        -12    1    6    6    0    0  0.19897310651E+02 -0.14523608739E+01 -0.32060530311E+02  0.37760957709E+02  0.00000000000E+00 0.  1.
</event>
<event>
12    1  0.9028446E-003  0.2368905E+03  0.7818608E-02  0.1122062E+00
         21   -1    0    0  501  502  0.00000000000E+00  0.00000000000E+00  0.17441959117E+03  0.17441959117E+03  0.00000000000E+00 0. -1.
         21   -1    0    0  502  503 -0.00000000000E+00 -0.00000000000E+00 -0.34349144573E+03  0.34349144573E+03  0.00000000000E+00 0. -1.
          6    2    1    2  501    0  0.86467227323E+02  0.13802813692E+03 -0.15164845444E+03  0.28038069453E+03  0.17055125959E+03 0.  0.
         24    2    3    3    0    0  0.11463849669E+03  0.13580313898E+03 -0.15875994273E+03  0.25086401620E+03  0.78380850530E+02 0.  0.
         -6    2    1    2    0  503 -0.86467227323E+02 -0.13802813692E+03 -0.17423400130E+02  0.23753034237E+03  0.17201378052E+03 0.  0.
        -24    2    5    5    0    0 -0.95216873973E+02 -0.12837182661E+03  0.27400550909E+02  0.19061470284E+03  0.10018780262E+03 0.  0.
          5    1    3    3  501    0 -0.28171269371E+02  0.22249979427E+01  0.71114882895E+01  0.29516678328E+02  0.47000000000E+01 0. -1.
        -13    1    4    4    0    0  0.30466741795E+01  0.56814886231E+02 -0.37717096056E+02  0.68262675423E+02  0.00000000000E+00 0.  1.
         14    1    4    4    0    0  0.11159182252E+03  0.78988252750E+02 -0.12104284667E+03  0.18260134078E+03  0.00000000000E+00 0. -1.
         -5    1    5    5    0  503  0.87496466496E+01 -0.96563103135E+01 -0.44823951038E+02  0.46915639525E+02  0.47000000000E+01 0.  1.
         11    1    6    6    0    0 -0.36301387111E+01 -0.73712532615E+02 -0.15913273057E+02  0.75497997530E+02  0.00000000000E+00 0. -1.
        -12    1    6    6    0    0 -0.91586735262E+02 -0.54659293995E+02  0.43313823966E+02  0.11511670531E+03  0.00000000000E+00 0.  1.
</event>
<event>
12    1  0.9028446E-003  0.2246254E+03  0.7818608E-02  0.1130982E+00
         21   -1    0    0  503  502  0.00000000000E+00  0.00000000000E+00  0.14278978256E+03  0.14278978256E+03  0.00000000000E+00 0. -1.
         21   -1    0    0  501  503 -0.00000000000E+00 -0.00000000000E+00 -0.36211365900E+03  0.36211365900E+03  0.00000000000E+00 0. -1.
          6    2    1    2  501    0  0.14021726922E+03  0.13308468158E+02 -0.62383235440E+02  0.23312707895E+03  0.17498162465E+03 0.  0.
         24    2    3    3    0    0  0.40014685729E+02 -0.33338732306E+02 -0.76756103090E+02  0.12156907443E+03  0.78580495989E+02 0.  0.
         -6    2    1    2    0  502 -0.14021726922E+03 -0.13308468158E+02 -0.15694064099E+03  0.27177636261E+03  0.17144686806E+03 0.  0.
        -24    2    5    5    0    0 -0.13760238657E+03 -0.44824111415E+02 -0.17078703415E+03  0.23693549602E+03  0.77631182457E+02 0.  0.
          5    1    3    3  501    0  0.10020258349E+03  0.46647200464E+02  0.14372867650E+02  0.11155800452E+03  0.47000000000E+01 0. -1.
        -13    1    4    4    0    0  0.63070306167E+02 -0.32598675220E+02 -0.61334022973E+02  0.93821103811E+02  0.00000000000E+00 0.  1.
         14    1    4    4    0    0 -0.23055620438E+02 -0.74005708542E+00 -0.15422080117E+02  0.27747970617E+02  0.00000000000E+00 0. -1.
         -5    1    5    5    0  502 -0.26148826454E+01  0.31515643257E+02  0.13846393152E+02  0.34840866587E+02  0.47000000000E+01 0. -1.
         13    1    6    6    0    0 -0.41586826563E+02 -0.84504218662E+01 -0.10932128656E+03  0.11726899620E+03  0.00000000000E+00 0. -1.
        -14    1    6    6    0    0 -0.96015560007E+02 -0.36373689549E+02 -0.61465747585E+02  0.11966649983E+03  0.00000000000E+00 0.  1.
</event>
<event>
12    1  0.9028446E-003  0.3248942E+03  0.7818608E-02  0.1073710E+00
         21   -1    0    0  501  502  0.00000000000E+00  0.00000000000E+00  0.18879318432E+04  0.18879318432E+04  0.00000000000E+00 0.  1.
         21   -1    0    0  502  503 -0.00000000000E+00 -0.00000000000E+00 -0.60602779296E+02  0.60602779296E+02  0.00000000000E+00 0.  1.
          6    2    1    2  501    0  0.17359949568E+03  0.21063388206E+03  0.11938970616E+04  0.12366411260E+04  0.17142830489E+03 0.  0.
         24    2    3    3    0    0  0.15030155152E+03  0.22301855023E+03  0.93131835711E+03  0.97269825294E+03  0.80375237682E+02 0.  0.
         -6    2    1    2    0  503 -0.17359949568E+03 -0.21063388206E+03  0.63343200236E+03  0.71189349652E+03  0.17621813642E+03 0.  0.
        -24    2    5    5    0    0 -0.41727908677E+02 -0.11546176974E+03  0.21294746827E+03  0.26103079034E+03  0.87851070717E+02 0.  0.
          5    1    3    3  501    0  0.23297944158E+02 -0.12384668163E+02  0.26257870445E+03  0.26394287306E+03  0.47000000000E+01 0. -1.
        -11    1    4    4    0    0  0.99360295793E+02  0.85333519483E+02  0.36991482522E+03  0.39241719616E+03  0.00000000000E+00 0.  1.
         12    1    4    4    0    0  0.50941255732E+02  0.13768503074E+03  0.56140353190E+03  0.58028105677E+03  0.00000000000E+00 0. -1.
         -5    1    5    5    0  503 -0.13187158701E+03 -0.95172112328E+02  0.42048453408E+03  0.45086270618E+03  0.47000000000E+01 0.  1.
         13    1    6    6    0    0 -0.52541808411E+02 -0.11713896733E+03  0.15134016876E+03  0.19845912924E+03  0.00000000000E+00 0. -1.
        -14    1    6    6    0    0  0.10813899734E+02  0.16771975910E+01  0.61607299513E+02  0.62571661098E+02  0.00000000000E+00 0.  1.
</event>
<event>
12    1  0.9028446E-003  0.3493754E+03  0.7818608E-02  0.1062926E+00
         21   -1    0    0  503  502  0.00000000000E+00  0.00000000000E+00  0.11500552762E+04  0.11500552762E+04  0.00000000000E+00 0.  1.
         21   -1    0    0  501  503 -0.00000000000E+00 -0.00000000000E+00 -0.14371039996E+03  0.14371039996E+03  0.00000000000E+00 0.  1.
          6    2    1    2  501    0  0.25926551221E+03  0.15784902980E+03  0.17141771992E+03  0.38868748690E+03  0.17192732692E+03 0.  0.
         24    2    3    3    0    0  0.19344227334E+03  0.10785293117E+03  0.19110725640E+03  0.30358709618E+03  0.81184811641E+02 0.  0.
         -6    2    1    2    0  502 -0.25926551221E+03 -0.15784902980E+03  0.83492715629E+03  0.90507818923E+03  0.17299783316E+03 0.  0.
        -24    2    5    5    0    0 -0.15816991746E+03 -0.22610257512E+02  0.46956615422E+03  0.50256036771E+03  0.80904903853E+02 0.  0.
          5    1    3    3  501    0  0.65823238869E+02  0.49996098632E+02 -0.19689536484E+02  0.85100390719E+02  0.47000000000E+01 0. -1.
        -11    1    4    4    0    0  0.10117540762E+02 -0.12329823577E+02  0.74131113674E+01  0.17588160809E+02  0.00000000000E+00 0.  1.
         12    1    4    4    0    0  0.18332473258E+03  0.12018275475E+03  0.18369414504E+03  0.28599893537E+03  0.00000000000E+00 0. -1.
         -5    1    5    5    0  502 -0.10109559475E+03 -0.13523877229E+03  0.36536100207E+03  0.40251782152E+03  0.47000000000E+01 0.  1.
         13    1    6    6    0    0 -0.52964873695E+02  0.10149914827E+02  0.26270062128E+03  0.26817888627E+03  0.00000000000E+00 0. -1.
        -14    1    6    6    0    0 -0.10520504377E+03 -0.32760172339E+02  0.20686553294E+03  0.23438148144E+03  0.00000000000E+00 0.  1.
</event>
<event>
12    1  0.9028446E-003  0.1840245E+03  0.7818608E-02  0.1164823E+00
         21   -1    0    0  503  502  0.00000000000E+00  0.00000000000E+00  0.23715410621E+02  0.23715410621E+02  0.00000000000E+00 0.  1.
         21   -1    0    0  501  503 -0.00000000000E+00 -0.00000000000E+00 -0.17464973307E+04  0.17464973307E+04  0.00000000000E+00 0.  1.
          6    2    1    2  501    0 -0.29730406474E+02  0.46046189170E+02 -0.12487352437E+04  0.12616999255E+04  0.17188032043E+03 0.  0.
         24    2    3    3    0    0 -0.35547066930E+01 -0.76029704309E+01 -0.10733305124E+04  0.10763561656E+04  0.80210754923E+02 0.  0.
         -6    2    1    2    0  502  0.29730406474E+02 -0.46046189170E+02 -0.47404667637E+03  0.50851281581E+03  0.17567266110E+03 0.  0.
        -24    2    5    5    0    0 -0.15414581142E+02 -0.78834171614E+02 -0.20347187651E+03  0.23220513582E+03  0.77884431345E+02 0.  0.
          5    1    3    3  501    0 -0.26175699781E+02  0.53649159601E+02 -0.17540473128E+03  0.18534375991E+03  0.47000000000E+01 0. -1.
        -13    1    4    4    0    0 -0.36085762353E+02  0.11949440239E+02 -0.35634438516E+03  0.35836614266E+03  0.00000000000E+00 0.  1.
         14    1    4    4    0    0  0.32531055660E+02 -0.19552410670E+02 -0.71698612722E+03  0.71799002290E+03  0.00000000000E+00 0. -1.
         -5    1    5    5    0  502  0.45144987616E+02  0.32787982444E+02 -0.27057479986E+03  0.27630767998E+03  0.47000000000E+01 0.  1.
         13    1    6    6    0    0 -0.19855486734E+02 -0.76596247903E+02 -0.20975985574E+03  0.22418836417E+03  0.00000000000E+00 0. -1.
        -14    1    6    6    0    0  0.44409055923E+01 -0.22379237112E+01  0.62879792306E+01  0.80167716583E+01  0.00000000000E+00 0.  1.
</event>
<event>
12    1  0.9028446E-003  0.2817533E+03  0.7818608E-02  0.1094774E+00
         21   -1    0    0  503  502  0.00000000000E+00  0.00000000000E+00  0.39162295830E+03  0.39162295830E+03  0.00000000000E+00 0.  1.
         21   -1    0    0  501  503 -0.00000000000E+00 -0.00000000000E+00 -0.31276255777E+03  0.31276255777E+03  0.00000000000E+00 0. -1.
          6    2    1    2  501    0  0.67350172193E+01 -0.22260911372E+03 -0.16969732878E+03  0.32866503946E+03  0.17211434223E+03 0.  0.
         24    2    3    3    0    0 -0.45571045865E+01 -0.19442501214E+03 -0.19694710733E+03  0.28759806943E+03  0.78119356807E+02 0.  0.
         -6    2    1    2    0  502 -0.67350172193E+01  0.22260911372E+03  0.24855772932E+03  0.37572047660E+03  0.17258259985E+03 0.  0.
        -24    2    5    5    0    0  0.38398270697E+02  0.86143242192E+02  0.52574638936E+02  0.13263322996E+03  0.77022046592E+02 0.  0.
          5    1    3    3  501    0  0.11292121806E+02 -0.28184101576E+02  0.27249778547E+02  0.41066970029E+02  0.47000000000E+01 0. -1.
        -11    1    4    4    0    0 -0.25573469012E+02 -0.29687315115E+02 -0.63215827439E+02  0.74374591325E+02  0.00000000000E+00 0.  1.
         12    1    4    4    0    0  0.21016364426E+02 -0.16473769703E+03 -0.13373127989E+03  0.21322347811E+03  0.00000000000E+00 0. -1.
         -5    1    5    5    0  502 -0.45133287916E+02  0.13646587152E+03  0.19598309038E+03  0.24308724665E+03  0.47000000000E+01 0.  1.
         11    1    6    6    0    0  0.44910427642E+02  0.34133043926E+02  0.56794102405E+02  0.80047368893E+02  0.00000000000E+00 0. -1.
        -12    1    6    6    0    0 -0.65121569457E+01  0.52010198265E+02 -0.42194634683E+01  0.52585861062E+02  0.00000000000E+00 0.  1.
</event>
<event>
12    1  0.9028446E-003  0.2542859E+03  0.7818608E-02  0.1110740E+00
         21   -1    0    0  501  502  0.00000000000E+00  0.00000000000E+00  0.10289194962E+03  0.10289194962E+03  0.00000000000E+00 0.  1.
         21   -1    0    0  502  503 -0.00000000000E+00 -0.00000000000E+00 -0.62666374768E+03  0.62666374768E+03  0.00000000000E+00 0.  1.
          6    2    1    2  501    0 -0.17287450326E+03 -0.69825090753E+02 -0.26446493138E+03  0.36637341216E+03  0.17183317501E+03 0.  0.
         24    2    3    3    0    0 -0.17100241877E+03 -0.98260286734E+02 -0.26111239568E+03  0.33729774250E+03  0.81811812989E+02 0.  0.
         -6    2    1    2    0  503  0.17287450326E+03  0.69825090753E+02 -0.25930686668E+03  0.36318228514E+03  0.17291669658E+03 0.  0.
        -24    2    5    5    0    0  0.17853888618E+03  0.36756775411E+02 -0.15170901952E+03  0.25037720801E+03  0.80286519842E+02 0.  0.
          5    1    3    3  501    0 -0.18720844985E+01  0.28435195981E+02 -0.33525357005E+01  0.29075669665E+02  0.47000000000E+01 0. -1.
        -11    1    4    4    0    0 -0.17955607350E+03 -0.89144384127E+02 -0.25093364031E+03  0.32117720434E+03  0.00000000000E+00 0.  1.
         12    1    4    4    0    0  0.85536547297E+01 -0.91159026069E+01 -0.10178755373E+02  0.16120538158E+02  0.00000000000E+00 0. -1.
         -5    1    5    5    0  503 -0.56643829202E+01  0.33068315342E+02 -0.10759784716E+03  0.11280507714E+03  0.47000000000E+01 0.  1.
         13    1    6    6    0    0 -0.67691105324E+00  0.16969748638E+02 -0.24103881621E+02  0.29486059191E+02  0.00000000000E+00 0. -1.
        -14    1    6    6    0    0  0.17921579724E+03  0.19787026772E+02 -0.12760513790E+03  0.22089114882E+03  0.00000000000E+00 0.  1.
</event>
<event>
12    1  0.9028446E-003  0.1819652E+03  0.7818608E-02  0.1166674E+00
         21   -1    0    0  501  502  0.00000000000E+00  0.00000000000E+00  0.67396082532E+03  0.67396082532E+03  0.00000000000E+00 0.  1.
         21   -1    0    0  502  503 -0.00000000000E+00 -0.00000000000E+00 -0.19125972146E+03  0.19125972146E+03  0.00000000000E+00 0.  1.
          6    2    1    2  501    0 -0.37699982425E+02 -0.39820080666E+02  0.61485566898E+03  0.64032910780E+03  0.17019678353E+03 0.  0.
         24    2    3    3    0    0  0.21019752106E+02 -0.65398815292E+02  0.26903307513E+03  0.28859392999E+03  0.78669091116E+02 0.  0.
         -6    2    1    2    0  503  0.37699982425E+02  0.39820080666E+02 -0.13215456512E+03  0.22489143897E+03  0.17350620376E+03 0.  0.
        -24    2    5    5    0    0  0.27057805424E+02 -0.93346217678E+01 -0.36574668764E+01  0.86822488954E+02  0.81887163379E+02 0.  0.
          5    1    3    3  501    0 -0.58719734531E+02  0.25578734626E+02  0.34582259385E+03  0.35173517781E+03  0.47000000000E+01 0. -1.
        -13    1    4    4    0    0  0.12014258991E+02 -0.24120440392E+01  0.17276519444E+03  0.17319922860E+03  0.00000000000E+00 0.  1.
         14    1    4    4    0    0  0.90054931150E+01 -0.62986771253E+02  0.96267880681E+02  0.11539470139E+03  0.00000000000E+00 0. -1.
         -5    1    5    5    0  503  0.10642177001E+02  0.49154702434E+02 -0.12849709824E+03  0.13806895002E+03  0.47000000000E+01 0.  1.
         11    1    6    6    0    0  0.41014393189E+02 -0.36138966327E+02  0.62478620076E+01  0.55020370005E+02  0.00000000000E+00 0. -1.
        -12    1    6    6    0    0 -0.13956587765E+02  0.26804344559E+02 -0.99053288841E+01  0.31802118948E+02  0.00000000000E+00 0.  1.
</event>
<event>
12    1  0.9028446E-003  0.2022188E+03  0.7818608E-02  0.1147980E+00
         21   -1    0    0  501  502  0.00000000000E+00  0.00000000000E+00  0.20931136401E+03  0.20931136401E+03  0.00000000000E+00 0. -1.
         21   -1    0    0  502  503 -0.00000000000E+00 -0.00000000000E+00 -0.19505969223E+03  0.19505969223E+03  0.00000000000E+00 0.  1.
          6    2    1    2  501    0 -0.36459825955E+02  0.99588303297E+02  0.14019185351E+01  0.20222361660E+03  0.17217803772E+03 0.  0.
         24    2    3    3    0    0 -0.10164417692E+02  0.40257769003E+02 -0.62699073229E+02  0.11088584817E+03  0.81489227443E+02 0.  0.
         -6    2    1    2    0  503  0.36459825955E+02 -0.99588303297E+02  0.12849753247E+02  0.20214743964E+03  0.17161387511E+03 0.  0.
        -24    2    5    5    0    0  0.43248137766E+01  0.17159645488E+01  0.43944273064E+02  0.91313451826E+02  0.79908690395E+02 0.  0.
          5    1    3    3  501    0 -0.26295408263E+02  0.59330534294E+02  0.64100991764E+02  0.91337768423E+02  0.47000000000E+01 0. -1.
        -11    1    4    4    0    0 -0.41984692880E+02  0.25377371827E+01 -0.27076694167E+02  0.50023013836E+02  0.00000000000E+00 0.  1.
         12    1    4    4    0    0  0.31820275188E+02  0.37720031820E+02 -0.35622379062E+02  0.60862834338E+02  0.00000000000E+00 0. -1.
         -5    1    5    5    0  503  0.32135012178E+02 -0.10130426785E+03 -0.31094519817E+02  0.11083398781E+03  0.47000000000E+01 0.  1.
         11    1    6    6    0    0 -0.26493817247E+02 -0.49253371148E+01 -0.10073439605E+02  0.28769002129E+02  0.00000000000E+00 0. -1.
        -12    1    6    6    0    0  0.30818631024E+02  0.66413016636E+01  0.54017712669E+02  0.62544449697E+02  0.00000000000E+00 0.  1.
</event>
<event>
12    1  0.9028446E-003  0.3075871E+03  0.7818608E-02  0.1082151E+00
         21   -1    0    0  501  502  0.00000000000E+00  0.00000000000E+00  0.16442699740E+04  0.16442699740E+04  0.00000000000E+00 0.  1.
         21   -1    0    0  502  503 -0.00000000000E+00 -0.00000000000E+00 -0.58127176329E+02  0.58127176329E+02  0.00000000000E+00 0.  1.
          6    2    1    2  501    0  0.13654904766E+03  0.20828656261E+03  0.64658031755E+03  0.71376804917E+03  0.17137615465E+03 0.  0.
         24    2    3    3    0    0  0.46607143654E+02  0.16276173247E+03  0.51703340493E+03  0.54955310215E+03  0.77598085432E+02 0.  0.
         -6    2    1    2    0  503 -0.13654904766E+03 -0.20828656261E+03  0.93956248009E+03  0.98862910113E+03  0.18050183110E+03 0.  0.
        -24    2    5    5    0    0 -0.71850999521E+02 -0.97507860170E+02  0.71752442365E+03  0.73215152540E+03  0.80834452299E+02 0.  0.
          5    1    3    3  501    0  0.89941904011E+02  0.45524830140E+02  0.12954691262E+03  0.16421494702E+03  0.47000000000E+01 0. -1.
        -13    1    4    4    0    0  0.62131971594E+02  0.80124825945E+02  0.25768061040E+03  0.27691093623E+03  0.00000000000E+00 0.  1.
         14    1    4    4    0    0 -0.15524827940E+02  0.82636906527E+02  0.25935279454E+03  0.27264216592E+03  0.00000000000E+00 0. -1.
         -5    1    5    5    0  503 -0.64698048143E+02 -0.11077870244E+03  0.22203805644E+03  0.25647757573E+03  0.47000000000E+01 0.  1.
         13    1    6    6    0    0 -0.13939503708E+02 -0.83579380488E+02  0.46867200543E+03  0.47627016628E+03  0.00000000000E+00 0. -1.
        -14    1    6    6    0    0 -0.57911495814E+02 -0.13928479682E+02  0.24885241822E+03  0.25588135912E+03  0.00000000000E+00 0.  1.
</event>
<event>
12    1  0.9028446E-003  0.2669459E+03  0.7818608E-02  0.1103283E+00
         21   -1    0    0  503  502  0.00000000000E+00  0.00000000000E+00  0.13854163460E+03  0.13854163460E+03  0.00000000000E+00 0. -1.
         21   -1    0    0  501  503 -0.00000000000E+00 -0.00000000000E+00 -0.78835382858E+03  0.78835382858E+03  0.00000000000E+00 0.  1.
          6    2    1    2  501    0 -0.20272780306E+03 -0.30212344780E+01 -0.59905734558E+03  0.65516738825E+03  0.17107575322E+03 0.  0.
         24    2    3    3    0    0 -0.72055073302E+02  0.48372368384E+02 -0.35340588092E+03  0.37217728806E+03  0.78028183778E+02 0.  0.
         -6    2    1    2    0  502  0.20272780306E+03  0.30212344780E+01 -0.50754848399E+02  0.27172807494E+03  0.17364447035E+03 0.  0.
        -24    2    5    5    0    0  0.21946006157E+03 -0.22983108307E+02 -0.51991040896E+02  0.24042611829E+03  0.80066897842E+02 0.  0.
          5    1    3    3  501    0 -0.13067272976E+03 -0.51393602862E+02 -0.24565146466E+03  0.28299010019E+03  0.47000000000E+01 0. -1.
        -13    1    4    4    0    0 -0.45568479849E+02  0.67437266282E+01 -0.65513212139E+02  0.80087109883E+02  0.00000000000E+00 0.  1.
         14    1    4    4    0    0 -0.26486593453E+02  0.41628641756E+02 -0.28789266878E+03  0.29209017818E+03  0.00000000000E+00 0. -1.
         -5    1    5    5    0  502 -0.16732258507E+02  0.26004342785E+02  0.12361924975E+01  0.31301956654E+02  0.47000000000E+01 0.  1.
         11    1    6    6    0    0  0.13054722261E+03 -0.79015769734E+01  0.97254792327E+01  0.13114723480E+03  0.00000000000E+00 0. -1.
        -12    1    6    6    0    0  0.88912838959E+02 -0.15081531334E+02 -0.61716520129E+02  0.10927888349E+03  0.00000000000E+00 0.  1.
</event>
<event>
12    1  0.9028446E-003  0.2384565E+03  0.7818608E-02  0.1120989E+00
         21   -1    0    0  501  502  0.00000000000E+00  0.00000000000E+00  0.35200657063E+03  0.35200657063E+03  0.00000000000E+00 0.  1.
         21   -1    0    0  502  503 -0.00000000000E+00 -0.00000000000E+00 -0.41772987428E+03  0.41772987428E+03  0.00000000000E+00 0. -1.
          6    2    1    2  501    0 -0.14545728300E+03 -0.77567354774E+02  0.26890273152E+03  0.35940254067E+03  0.17229913382E+03 0.  0.
         24    2    3    3    0    0 -0.18312711717E+02 -0.11632326949E+02  0.38817541139E+02  0.88340823097E+02  0.76332385556E+02 0.  0.
         -6    2    1    2    0  503  0.14545728300E+03  0.77567354774E+02 -0.33462603517E+03  0.41033390423E+03  0.17095266551E+03 0.  0.
        -24    2    5    5    0    0  0.88163626341E+02  0.11109932923E+01 -0.27026435485E+03  0.29504013078E+03  0.78941737692E+02 0.  0.
          5    1    3    3  501    0 -0.12714457129E+03 -0.65935027825E+02  0.23008519038E+03  0.27106171758E+03  0.47000000000E+01 0. -1.
        -11    1    4    4    0    0 -0.30983344275E+02  0.24230170382E+02  0.98953577571E+01  0.40558437893E+02  0.00000000000E+00 0.  1.
         12    1    4    4    0    0  0.12670632557E+02 -0.35862497331E+02  0.28922183382E+02  0.47782385204E+02  0.00000000000E+00 0. -1.
         -5    1    5    5    0  503  0.57293656661E+02  0.76456361482E+02 -0.64361680322E+02  0.11529377346E+03  0.47000000000E+01 0.  1.
         13    1    6    6    0    0  0.70488535007E+02 -0.24504124642E+02 -0.11792418766E+03  0.13955357297E+03  0.00000000000E+00 0. -1.
        -14    1    6    6    0    0  0.17675091334E+02  0.25615117935E+02 -0.15234016719E+03  0.15548655781E+03  0.00000000000E+00 0.  1.
</event>
<event>
12    1  0.9028446E-003  0.3035365E+03  0.7818608E-02  0.1083566E+00
         21   -1    0    0  501  502  0.00000000000E+00  0.00000000000E+00  0.14711466440E+03  0.14711466440E+03  0.00000000000E+00 0. -1.
         21   -1    0    0  502  503 -0.00000000000E+00 -0.00000000000E+00 -0.62557140685E+03  0.62557140685E+03  0.00000000000E+00 0.  1.
          6    2    1    2  501    0  0.15529150743E+03  0.19611965490E+03 -0.22663672372E+03  0.37829069535E+03  0.17076672490E+03 0.  0.
         24    2    3    3    0    0  0.14451047716E+03  0.14596382211E+03 -0.99979897077E+02  0.24155781740E+03  0.78520595737E+02 0.  0.
         -6    2    1    2    0  503 -0.15529150743E+03 -0.19611965490E+03 -0.25182001872E+03  0.39439537590E+03  0.17191864177E+03 0.  0.
        -24    2    5    5    0    0 -0.15916528448E+03 -0.12967969015E+03 -0.13096443481E+03  0.25634669889E+03  0.80072073914E+02 0.  0.
          5    1    3    3  501    0  0.10781030270E+02  0.50155832792E+02 -0.12665682665E+03  0.13673287795E+03  0.47000000000E+01 0. -1.
        -13    1    4    4    0    0  0.12552905396E+03  0.12118199989E+03 -0.11285033217E+03  0.20779272835E+03  0.00000000000E+00 0.  1.
         14    1    4    4    0    0  0.18981423198E+02  0.24781822220E+02  0.12870435090E+02  0.33765089050E+02  0.00000000000E+00 0. -1.
         -5    1    5    5    0  503  0.38737770570E+01 -0.66439964748E+02 -0.12085558391E+03  0.13804867701E+03  0.47000000000E+01 0.  1.
         11    1    6    6    0    0 -0.13365262848E+03 -0.60914061153E+02 -0.91664326391E+02  0.17313548648E+03  0.00000000000E+00 0. -1.
        -12    1    6    6    0    0 -0.25512656002E+02 -0.68765628999E+02 -0.39300108424E+02  0.83211212406E+02  0.00000000000E+00 0.  1.
</event>
<event>
12    1  0.9028446E-003  0.2129891E+03  0.7818608E-02  0.1140016E+00
         21   -1    0    0  503  502  0.00000000000E+00  0.00000000000E+00  0.95427524225E+02  0.95427524225E+02  0.00000000000E+00 0. -1.
         21   -1    0    0  501  503 -0.00000000000E+00 -0.00000000000E+00 -0.50364967872E+03  0.50364967872E+03  0.00000000000E+00 0. -1.
          6    2    1    2  501    0  0.96872530161E+02  0.79917975150E+02 -0.12082149304E+03  0.24135736233E+03  0.16698614709E+03 0.  0.
         24    2    3    3    0    0  0.69216344206E+02  0.10988114602E+03 -0.12897587802E+03  0.19950954011E+03  0.79400950420E+02 0.  0.
         -6    2    1    2    0  502 -0.96872530161E+02 -0.79917975150E+02 -0.28740066146E+03  0.35771984062E+03  0.17202666744E+03 0.  0.
        -24    2    5    5    0    0 -0.11269429235E+03 -0.99928970624E+02 -0.28452684554E+03  0.33162162388E+03  0.79571181312E+02 0.  0.
          5    1    3    3  501    0  0.27656185955E+02 -0.29963170868E+02  0.81543849868E+01  0.41847822220E+02  0.47000000000E+01 0. -1.
        -13    1    4    4    0    0  0.68692668537E+02  0.36618142746E+02 -0.78414094985E+02  0.11049136338E+03  0.00000000000E+00 0.  1.
         14    1    4    4    0    0  0.52367566872E+00  0.73263003272E+02 -0.50561783039E+02  0.89018176732E+02  0.00000000000E+00 0. -1.
         -5    1    5    5    0  502  0.15821762192E+02  0.20010995474E+02 -0.28738159197E+01  0.26098216733E+02  0.47000000000E+01 0.  1.
         13    1    6    6    0    0 -0.54391733189E+02 -0.94458653412E+02 -0.15517013260E+03  0.18962770867E+03  0.00000000000E+00 0. -1.
        -14    1    6    6    0    0 -0.58302559163E+02 -0.54703172119E+01 -0.12935671294E+03  0.14199391522E+03  0.00000000000E+00 0.  1.
</event>
<event>
12    1  0.9028446E-003  0.2141499E+03  0.7818608E-02  0.1139950E+00
         21   -1    0    0  503  502  0.00000000000E+00  0.00000000000E+00  0.51892738639E+02  0.51892738639E+02  0.00000000000E+00 0. -1.
         21   -1    0    0  501  503 -0.00000000000E+00 -0.00000000000E+00 -0.86953773964E+03  0.86953773964E+03  0.00000000000E+00 0.  1.
          6    2    1    2  501    0  0.85821385864E+02 -0.72727611797E+02 -0.47004724111E+03  0.51316046814E+03  0.17243735499E+03 0.  0.
         24    2    3    3    0    0  0.63582761989E+02 -0.10361773939E+03 -0.25734266807E+03  0.29702606142E+03  0.84969575820E+02 0.  0.
         -6    2    1    2    0  502 -0.85821385864E+02  0.72727611797E+02 -0.34759775989E+03  0.40827001014E+03  0.18222399049E+03 0.  0.
        -24    2    5    5    0    0  0.21039891505E+01 -0.89260040262E+00 -0.66729924186E+02  0.10485669740E+03  0.80850607305E+02 0.  0.
          5    1    3    3  501    0  0.22238623876E+02  0.30890127594E+02 -0.21270457304E+03  0.21613440672E+03  0.47000000000E+01 0. -1.
        -11    1    4    4    0    0  0.66263987571E+02 -0.52578428100E+02 -0.96839794191E+02  0.12858208619E+03  0.00000000000E+00 0.  1.
         12    1    4    4    0    0 -0.26812255828E+01 -0.51039311291E+02 -0.16050287388E+03  0.16844397523E+03  0.00000000000E+00 0. -1.
         -5    1    5    5    0  502 -0.87925375015E+02  0.73620212200E+02 -0.28086783570E+03  0.30341331274E+03  0.47000000000E+01 0.  1.
         11    1    6    6    0    0 -0.30589910864E+02  0.59556027399E+01 -0.64191966466E+02  0.71356992716E+02  0.00000000000E+00 0. -1.
        -12    1    6    6    0    0  0.32693900015E+02 -0.68482031425E+01 -0.25379577207E+01  0.33499704683E+02  0.00000000000E+00 0.  1.
</event>
<event>
12    1  0.9028446E-003  0.1754934E+03  0.7818608E-02  0.1173153E+00
         21   -1    0    0  503  502  0.00000000000E+00  0.00000000000E+00  0.58618683661E+03  0.58618683661E+03  0.00000000000E+00 0.  1.
         21   -1    0    0  501  503 -0.00000000000E+00 -0.00000000000E+00 -0.55323815209E+02  0.55323815209E+02  0.00000000000E+00 0.  1.
          6    2    1    2  501    0 -0.16910999609E+02  0.33159719920E+02  0.17810235413E+03  0.24750809027E+03  0.16779230395E+03 0.  0.
         24    2    3    3    0    0  0.12604535309E+02  0.42297807202E+02  0.29293815675E+02  0.95453026032E+02  0.79405124125E+02 0.  0.
         -6    2    1    2    0  502  0.16910999609E+02 -0.33159719920E+02  0.35276066726E+03  0.39400256155E+03  0.17150038253E+03 0.  0.
        -24    2    5    5    0    0 -0.53085791217E+02 -0.16229903568E+02  0.25394802561E+03  0.27164163005E+03  0.78854704774E+02 0.  0.
          5    1    3    3  501    0 -0.29515534918E+02 -0.91380872815E+01  0.14880853846E+03  0.15205506423E+03  0.47000000000E+01 0. -1.
        -11    1    4    4    0    0 -0.29293982390E+02 -0.51314119809E+00  0.18318257980E+02  0.34553716060E+02  0.00000000000E+00 0.  1.
         12    1    4    4    0    0  0.41898517699E+02  0.42810948400E+02  0.10975557695E+02  0.60899309971E+02  0.00000000000E+00 0. -1.
         -5    1    5    5    0  502  0.69996790826E+02 -0.16929816352E+02  0.98812641650E+02  0.12236093150E+03  0.47000000000E+01 0.  1.
         13    1    6    6    0    0 -0.37153389601E+01 -0.42421466051E+01 -0.51334878423E+01  0.76257621806E+01  0.00000000000E+00 0. -1.
        -14    1    6    6    0    0 -0.49370452257E+02 -0.11987756963E+02  0.25908151346E+03  0.26401586787E+03  0.00000000000E+00 0.  1.
</event>
<event>
12    1  0.9028446E-003  0.1797998E+03  0.7818608E-02  0.1168162E+00
         21   -1    0    0  501  502  0.00000000000E+00  0.00000000000E+00  0.29686526910E+03  0.29686526910E+03  0.00000000000E+00 0.  1.
         21   -1    0    0  502  503 -0.00000000000E+00 -0.00000000000E+00 -0.11280106453E+03  0.11280106453E+03  0.00000000000E+00 0.  1.
          6    2    1    2  501    0 -0.47739617020E+02  0.72008790522E+01  0.13225820238E+03  0.22320435179E+03  0.17319649785E+03 0.  0.
         24    2    3    3    0    0 -0.74863457420E+02  0.24908957302E+02  0.28341050886E+02  0.11425416534E+03  0.77626063412E+02 0.  0.
         -6    2    1    2    0  503  0.47739617020E+02 -0.72008790522E+01  0.51806002192E+02  0.18646198184E+03  0.17249140592E+03 0.  0.
        -24    2    5    5    0    0  0.79414617243E+02 -0.51912414272E+02  0.35478794748E+02  0.12909391822E+03  0.80030710706E+02 0.  0.
          5    1    3    3  501    0  0.27123840400E+02 -0.17708078250E+02  0.10391715150E+03  0.10895018645E+03  0.47000000000E+01 0. -1.
        -13    1    4    4    0    0 -0.24257963535E+01 -0.19500502968E+02  0.21324086037E+02  0.28997771454E+02  0.00000000000E+00 0.  1.
         14    1    4    4    0    0 -0.72437661067E+02  0.44409460270E+02  0.70169648488E+01  0.85256393883E+02  0.00000000000E+00 0. -1.
         -5    1    5    5    0  503 -0.31675000223E+02  0.44711535219E+02  0.16327207444E+02  0.57368063622E+02  0.47000000000E+01 0.  1.
         11    1    6    6    0    0  0.16983772405E+02 -0.13585259152E+01  0.45077526171E+02  0.48190014354E+02  0.00000000000E+00 0. -1.
        -12    1    6    6    0    0  0.62430844838E+02 -0.50553888356E+02 -0.95987314222E+01  0.80903903862E+02  0.00000000000E+00 0.  1.
</event>
<event>
12    1  0.9028446E-003  0.1775796E+03  0.7818608E-02  0.1171479E+00
         21   -1    0    0  503  502  0.00000000000E+00  0.00000000000E+00  0.25476670310E+02  0.25476670310E+02  0.00000000000E+00 0. -1.
         21   -1    0    0  501  503 -0.00000000000E+00 -0.00000000000E+00 -0.13247808697E+04  0.13247808697E+04  0.00000000000E+00 0. -1.
          6    2    1    2  501    0 -0.67509256813E+01 -0.41122401396E+02 -0.86443050910E+03  0.88248207588E+03  0.17262063112E+03 0.  0.
         24    2    3    3    0    0  0.41293076040E+02 -0.38814263349E+02 -0.76798993606E+03  0.77460980080E+03  0.83666818012E+02 0.  0.
         -6    2    1    2    0  502  0.67509256813E+01  0.41122401396E+02 -0.43487369033E+03  0.46777546417E+03  0.16721881307E+03 0.  0.
        -24    2    5    5    0    0 -0.27681859835E+02  0.49078674276E+02 -0.13836065366E+03  0.16912685809E+03  0.79279392120E+02 0.  0.
          5    1    3    3  501    0 -0.48044001721E+02 -0.23081380462E+01 -0.96440573047E+02  0.10787227509E+03  0.47000000000E+01 0. -1.
        -13    1    4    4    0    0  0.39472448207E+02  0.16522452875E+02 -0.24623850421E+03  0.24992892304E+03  0.00000000000E+00 0.  1.
         14    1    4    4    0    0  0.18206278324E+01 -0.55336716224E+02 -0.52175143185E+03  0.52468087776E+03  0.00000000000E+00 0. -1.
         -5    1    5    5    0  502  0.34432785516E+02 -0.79562728799E+01 -0.29651303667E+03  0.29864860608E+03  0.47000000000E+01 0.  1.
         13    1    6    6    0    0 -0.49492581178E+02  0.73153537597E+01 -0.67092798741E+02  0.83692733467E+02  0.00000000000E+00 0. -1.
        -14    1    6    6    0    0  0.21810721343E+02  0.41763320516E+02 -0.71267854918E+02  0.85434124626E+02  0.00000000000E+00 0.  1.
</event>
<event>
12    1  0.9028446E-003  0.1839138E+03  0.7818608E-02  0.1164101E+00
         21   -1    0    0  501  502  0.00000000000E+00  0.00000000000E+00  0.23723746116E+03  0.23723746116E+03  0.00000000000E+00 0. -1.
         21   -1    0    0  502  503 -0.00000000000E+00 -0.00000000000E+00 -0.17595406495E+03  0.17595406495E+03  0.00000000000E+00 0. -1.
          6    2    1    2  501    0 -0.29401932680E+02  0.60121749452E+02  0.12075903893E+03  0.21989992966E+03  0.17115529551E+03 0.  0.
         24    2    3    3    0    0  0.15554270052E+02 -0.28034668475E+02  0.51787781775E+02  0.99186473499E+02  0.78282208903E+02 0.  0.
         -6    2    1    2    0  503  0.29401932680E+02 -0.60121749452E+02 -0.59475642713E+02  0.19329159645E+03  0.17130438050E+03 0.  0.
        -24    2    5    5    0    0  0.32743973923E+02 -0.10059762969E+01 -0.91916841671E+02  0.12561320060E+03  0.79099877151E+02 0.  0.
          5    1    3    3  501    0 -0.44956202732E+02  0.88156417926E+02  0.68971257153E+02  0.12071345616E+03  0.47000000000E+01 0. -1.
        -11    1    4    4    0    0  0.24993332230E+02 -0.32783551168E+02 -0.49072919612E+01  0.41515170691E+02  0.00000000000E+00 0.  1.
         12    1    4    4    0    0 -0.94390621779E+01  0.47488826932E+01  0.56695073736E+02  0.57671302808E+02  0.00000000000E+00 0. -1.
         -5    1    5    5    0  503 -0.33420412426E+01 -0.59115773155E+02  0.32441198957E+02  0.67678395852E+02  0.47000000000E+01 0.  1.
         13    1    6    6    0    0  0.42637822608E+02  0.49143895079E+01 -0.11582241060E+02  0.44455409670E+02  0.00000000000E+00 0. -1.
        -14    1    6    6    0    0 -0.98938486851E+01 -0.59203658048E+01 -0.80334600611E+02  0.81157790928E+02  0.00000000000E+00 0.  1.
</event>
<event>
12    1  0.9028446E-003  0.2297539E+03  0.7818608E-02  0.1127073E+00
         21   -1    0    0  503  502  0.00000000000E+00  0.00000000000E+00  0.13789314551E+03  0.13789314551E+03  0.00000000000E+00 0.  1.
         21   -1    0    0  501  503 -0.00000000000E+00 -0.00000000000E+00 -0.38105947432E+03  0.38105947432E+03  0.00000000000E+00 0.  1.
          6    2    1    2  501    0 -0.93130732412E+02  0.12050508852E+03 -0.11009824353E+03  0.25344561347E+03  0.17005365648E+03 0.  0.
         24    2    3    3    0    0 -0.15930313866E+02  0.11950773206E+03 -0.98867798725E+02  0.17528480338E+03  0.80087750306E+02 0.  0.
         -6    2    1    2    0  502  0.93130732412E+02 -0.12050508852E+03 -0.13306808529E+03  0.26550700635E+03  0.17202338627E+03 0.  0.
        -24    2    5    5    0    0  0.63150187546E+02 -0.11134034526E+03 -0.23963135780E+02  0.15189008157E+03  0.78177658791E+02 0.  0.
          5    1    3    3  501    0 -0.77200418546E+02  0.99735645310E+00 -0.11230444805E+02  0.78160810091E+02  0.47000000000E+01 0. -1.
        -13    1    4    4    0    0  0.23884613931E+02  0.62507436937E+01 -0.16723590299E+02  0.29819876791E+02  0.00000000000E+00 0.  1.
         14    1    4    4    0    0 -0.39814927797E+02  0.11325698837E+03 -0.82144208426E+02  0.14546492659E+03  0.00000000000E+00 0. -1.
         -5    1    5    5    0  502  0.29980544866E+02 -0.91647432557E+01 -0.10910494951E+03  0.11361692478E+03  0.47000000000E+01 0.  1.
         11    1    6    6    0    0  0.65091198682E+00 -0.61692454989E+02  0.14364209873E+02  0.63345980253E+02  0.00000000000E+00 0. -1.
        -12    1    6    6    0    0  0.62499275559E+02 -0.49647890273E+02 -0.38327345652E+02  0.88544101321E+02  0.00000000000E+00 0.  1.
</event>
<event>
12    1  0.9028446E-003  0.1843562E+03  0.7818608E-02  0.1163853E+00
         21   -1    0    0  501  502  0.00000000000E+00  0.00000000000E+00  0.24600207923E+02  0.24600207923E+02  0.00000000000E+00 0.  1.
         21   -1    0    0  502  503 -0.00000000000E+00 -0.00000000000E+00 -0.15987206103E+04  0.15987206103E+04  0.00000000000E+00 0.  1.
          6    2    1    2  501    0 -0.62575771366E+02  0.29741513463E+02 -0.48198429260E+03  0.51573403854E+03  0.16991896717E+03 0.  0.
         24    2    3    3    0    0 -0.24112622238E+02  0.44787911992E+02 -0.12174296907E+03  0.15310239467E+03  0.77663486436E+02 0.  0.
         -6    2    1    2    0  503  0.62575771366E+02 -0.29741513463E+02 -0.10921361097E+04  0.11075867796E+04  0.17084176150E+03 0.  0.
        -24    2    5    5    0    0 -0.32085982109E+02 -0.33059357184E+01 -0.47966171065E+03  0.48725890918E+03  0.79406853943E+02 0.  0.
          5    1    3    3  501    0 -0.38463149128E+02 -0.15046398529E+02 -0.36024132354E+03  0.36263164387E+03  0.47000000000E+01 0. -1.
        -13    1    4    4    0    0 -0.27955236124E+02 -0.69222021142E+01 -0.11013890837E+02  0.30833713695E+02  0.00000000000E+00 0.  1.
         14    1    4    4    0    0  0.38426138855E+01  0.51710114106E+02 -0.11072907823E+03  0.12226868098E+03  0.00000000000E+00 0. -1.
         -5    1    5    5    0  503  0.94661753475E+02 -0.26435577744E+02 -0.61247439908E+03  0.62032787046E+03  0.47000000000E+01 0.  1.
         11    1    6    6    0    0  0.86039683829E+01  0.30174164835E+02 -0.22723490995E+03  0.22939096058E+03  0.00000000000E+00 0. -1.
        -12    1    6    6    0    0 -0.40689950492E+02 -0.33480100554E+02 -0.25242680069E+03  0.25786794859E+03  0.00000000000E+00 0.  1.
</event>
<event>
12    1  0.9028446E-003  0.1835273E+03  0.7818608E-02  0.1164694E+00
         21   -1    0    0  503  502  0.00000000000E+00  0.00000000000E+00  0.25249390045E+04  0.25249390045E+04  0.00000000000E+00 0. -1.
         21   -1    0    0  501  503 -0.00000000000E+00 -0.00000000000E+00 -0.13476734245E+02  0.13476734245E+02  0.00000000000E+00 0. -1.
          6    2    1    2  501    0 -0.60360867054E+02 -0.12211290144E+02  0.14205803125E+04  0.14323863641E+04  0.17288644286E+03 0.  0.
         24    2    3    3    0    0 -0.10297788066E+02 -0.69845647692E+02  0.74136843720E+03  0.74888150493E+03  0.78815543015E+02 0.  0.
         -6    2    1    2    0  502  0.60360867054E+02  0.12211290144E+02  0.10908819577E+04  0.11060293746E+04  0.17171191509E+03 0.  0.
        -24    2    5    5    0    0  0.97767612515E+02  0.33931047602E+02  0.66852050974E+03  0.68143274806E+03  0.81982291669E+02 0.  0.
          5    1    3    3  501    0 -0.50063078988E+02  0.57634357548E+02  0.67921187528E+03  0.68350485921E+03  0.47000000000E+01 0. -1.
        -11    1    4    4    0    0  0.60658144972E-01 -0.52151656653E+02  0.70657030205E+03  0.70849233638E+03  0.00000000000E+00 0.  1.
         12    1    4    4    0    0 -0.10358446211E+02 -0.17693991040E+02  0.34798135150E+02  0.40389168557E+02  0.00000000000E+00 0. -1.
         -5    1    5    5    0  502 -0.37406745461E+02 -0.21719757458E+02  0.42236144801E+03  0.42459662650E+03  0.47000000000E+01 0.  1.
         11    1    6    6    0    0  0.10450833653E+02  0.32609889114E+02  0.33218226678E+03  0.33394263452E+03  0.00000000000E+00 0. -1.
        -12    1    6    6    0    0  0.87316778862E+02  0.13211584886E+01  0.33633824296E+03  0.34749011354E+03  0.00000000000E+00 0.  1.
</event>
<event>
12    1  0.9028446E-003  0.2165190E+03  0.7818608E-02  0.1139507E+00
         21   -1    0    0  501  502  0.00000000000E+00  0.00000000000E+00  0.14119277552E+04  0.14119277552E+04  0.00000000000E+00 0.  1.
         21   -1    0    0  502  503 -0.00000000000E+00 -0.00000000000E+00 -0.31325907270E+02  0.31325907270E+02  0.00000000000E+00 0.  1.
          6    2    1    2  501    0  0.86032888343E+02  0.58283977017E+02  0.63264454065E+03  0.66867000759E+03  0.18995205811E+03 0.  0.
         24    2    3    3    0    0 -0.10345978356E+02 -0.22960352369E+02  0.17581511272E+03  0.19474517892E+03  0.79878118431E+02 0.  0.
         -6    2    1    2    0  503 -0.86032888343E+02 -0.58283977017E+02  0.74795730733E+03  0.77458365493E+03  0.17245586404E+03 0.  0.
        -24    2    5    5    0    0 -0.54454373907E+01 -0.83261554083E+02  0.47783922714E+03  0.49155700627E+03  0.79597890931E+02 0.  0.
          5    1    3    3  501    0  0.96378866699E+02  0.81244329386E+02  0.45682942793E+03  0.47392482866E+03  0.47000000000E+01 0. -1.
        -13    1    4    4    0    0 -0.26616561847E+02  0.19561061790E+02  0.10898511749E+03  0.11388078124E+03  0.00000000000E+00 0.  1.
         14    1    4    4    0    0  0.16270583491E+02 -0.42521414160E+02  0.66829995233E+02  0.80864397680E+02  0.00000000000E+00 0. -1.
         -5    1    5    5    0  503 -0.80587450952E+02  0.24977577066E+02  0.27011808018E+03  0.28302664866E+03  0.47000000000E+01 0.  1.
         11    1    6    6    0    0  0.22703344880E+02 -0.61784908243E+02  0.18069772746E+03  0.19231350828E+03  0.00000000000E+00 0. -1.
        -12    1    6    6    0    0 -0.28148782271E+02 -0.21476645840E+02  0.29714149968E+03  0.29924349799E+03  0.00000000000E+00 0.  1.
</event>
<event>
12    1  0.9028446E-003  0.1860224E+03  0.7818608E-02  0.1162186E+00
         21   -1    0    0  503  502  0.00000000000E+00  0.00000000000E+00  0.13971415870E+03  0.13971415870E+03  0.00000000000E+00 0. -1.
         21   -1    0    0  501  503 -0.00000000000E+00 -0.00000000000E+00 -0.24994350068E+03  0.24994350068E+03  0.00000000000E+00 0. -1.
          6    2    1    2  501    0 -0.64150991169E+02 -0.23274486370E+02 -0.75658867558E+02  0.20081979411E+03  0.17305280721E+03 0.  0.
         24    2    3    3    0    0 -0.37901804978E+02  0.54625947433E+02 -0.42041501219E+02  0.11188321738E+03  0.79560200807E+02 0.  0.
         -6    2    1    2    0  502  0.64150991169E+02  0.23274486370E+02 -0.34570474415E+02  0.18883786527E+03  0.17264869033E+03 0.  0.
        -24    2    5    5    0    0  0.11040520521E+03  0.20515828522E+02 -0.37822678219E+02  0.14215029369E+03  0.78523515271E+02 0.  0.
          5    1    3    3  501    0 -0.26249186191E+02 -0.77900433802E+02 -0.33617366340E+02  0.88936576738E+02  0.47000000000E+01 0. -1.
        -11    1    4    4    0    0  0.55333297446E+01  0.40367725938E+02 -0.51021120584E+02  0.65294148138E+02  0.00000000000E+00 0.  1.
         12    1    4    4    0    0 -0.43435134723E+02  0.14258221494E+02  0.89796193651E+01  0.46589069238E+02  0.00000000000E+00 0. -1.
         -5    1    5    5    0  502 -0.46254214045E+02  0.27586578474E+01  0.32522038039E+01  0.46687571575E+02  0.47000000000E+01 0.  1.
         11    1    6    6    0    0  0.38250961734E+02 -0.27031661428E+02  0.22636967734E+01  0.46893188377E+02  0.00000000000E+00 0. -1.
        -12    1    6    6    0    0  0.72154243481E+02  0.47547489950E+02 -0.40086374992E+02  0.95257105314E+02  0.00000000000E+00 0.  1.
</event>
<event>
12    1  0.9028446E-003  0.2371286E+03  0.7818608E-02  0.1123038E+00
         21   -1    0    0  501  502  0.00000000000E+00  0.00000000000E+00  0.38514431013E+03  0.38514431013E+03  0.00000000000E+00 0. -1.
         21   -1    0    0  502  503 -0.00000000000E+00 -0.00000000000E+00 -0.15742726313E+03  0.15742726313E+03  0.00000000000E+00 0. -1.
          6    2    1    2  501    0 -0.11686085473E+03 -0.10551860574E+03  0.20229092446E+03  0.31169147003E+03  0.17731136131E+03 0.  0.
         24    2    3    3    0    0 -0.17815096366E+02  0.12138369743E+02  0.79237488038E+02  0.11466998810E+03  0.80036922614E+02 0.  0.
         -6    2    1    2    0  503  0.11686085473E+03  0.10551860574E+03  0.25426122551E+02  0.23088010323E+03  0.16693860797E+03 0.  0.
        -24    2    5    5    0    0  0.13435871917E+03  0.84788211461E+02 -0.18848461223E+02  0.17874323263E+03  0.79703026931E+02 0.  0.
          5    1    3    3  501    0 -0.99045758362E+02 -0.11765697548E+03  0.12305343642E+03  0.19702148193E+03  0.47000000000E+01 0. -1.
        -11    1    4    4    0    0  0.43677973582E+01  0.35788259642E+02  0.87772566406E+01  0.37106837861E+02  0.00000000000E+00 0.  1.
         12    1    4    4    0    0 -0.22182893724E+02 -0.23649889898E+02  0.70460231397E+02  0.77563150237E+02  0.00000000000E+00 0. -1.
         -5    1    5    5    0  503 -0.17497864441E+02  0.20730394279E+02  0.44274583774E+02  0.52136870593E+02  0.47000000000E+01 0.  1.
         13    1    6    6    0    0  0.13038716355E+03  0.51825154489E+02  0.51052965085E+00  0.14031008409E+03  0.00000000000E+00 0. -1.
        -14    1    6    6    0    0  0.39715556132E+01  0.32963056972E+02 -0.19358990874E+02  0.38433148539E+02  0.00000000000E+00 0.  1.
</event>
<event>
12    1  0.9028446E-003  0.1753417E+03  0.7818608E-02  0.1174352E+00
         21   -1    0    0  503  502  0.00000000000E+00  0.00000000000E+00  0.11599756624E+04  0.11599756624E+04  0.00000000000E+00 0.  1.
         21   -1    0    0  501  503 -0.00000000000E+00 -0.00000000000E+00 -0.26615591893E+02  0.26615591893E+02  0.00000000000E+00 0.  1.
          6    2    1    2  501    0  0.22964174748E+02 -0.18958657511E+02  0.42582592184E+03  0.45765416890E+03  0.16502375157E+03 0.  0.
         24    2    3    3    0    0  0.30094512979E+02  0.14689438084E+02  0.11838104002E+03  0.14825558872E+03  0.82729617718E+02 0.  0.
         -6    2    1    2    0  502 -0.22964174748E+02  0.18958657511E+02  0.70753414867E+03  0.72893708540E+03  0.17279444121E+03 0.  0.
        -24    2    5    5    0    0  0.58263546110E+01  0.60762284125E+02  0.61421852344E+03  0.62260584026E+03  0.81533037575E+02 0.  0.
          5    1    3    3  501    0 -0.71303382309E+01 -0.33648095594E+02  0.30744488181E+03  0.30939858017E+03  0.47000000000E+01 0. -1.
        -13    1    4    4    0    0 -0.59007528142E+01  0.23841258022E+02  0.39699640854E+00  0.24563836712E+02  0.00000000000E+00 0.  1.
         14    1    4    4    0    0  0.35995265793E+02 -0.91518199384E+01  0.11798404362E+03  0.12369175201E+03  0.00000000000E+00 0. -1.
         -5    1    5    5    0  502 -0.28790529359E+02 -0.41803626614E+02  0.93315625235E+02  0.10633124513E+03  0.47000000000E+01 0.  1.
         13    1    6    6    0    0 -0.19753936989E+02  0.33569918682E+02  0.10451959496E+03  0.11154148644E+03  0.00000000000E+00 0. -1.
        -14    1    6    6    0    0  0.25580291599E+02  0.27192365443E+02  0.50969892848E+03  0.51106435382E+03  0.00000000000E+00 0.  1.
</event>
<event>
12    1  0.9028446E-003  0.1856209E+03  0.7818608E-02  0.1162646E+00
         21   -1    0    0  503  502  0.00000000000E+00  0.00000000000E+00  0.15521392354E+03  0.15521392354E+03  0.00000000000E+00 0. -1.
         21   -1    0    0  501  503 -0.00000000000E+00 -0.00000000000E+00 -0.22109139891E+03  0.22109139891E+03  0.00000000000E+00 0. -1.
          6    2    1    2  501    0  0.69265792481E+02 -0.70162377812E+01 -0.32395487879E+02  0.18768884872E+03  0.17126195928E+03 0.  0.
         24    2    3    3    0    0 -0.14875930303E+02 -0.35887301545E+02  0.15683576059E+02  0.86461114251E+02  0.75633048365E+02 0.  0.
         -6    2    1    2    0  502 -0.69265792481E+02  0.70162377812E+01 -0.33481987489E+02  0.18861647374E+03  0.17207019811E+03 0.  0.
        -24    2    5    5    0    0 -0.92466434758E+02 -0.28831297677E+02 -0.58943931998E+02  0.13867935109E+03  0.79851675098E+02 0.  0.
          5    1    3    3  501    0  0.84141722784E+02  0.28871063764E+02 -0.48079063937E+02  0.10122773447E+03  0.47000000000E+01 0. -1.
        -11    1    4    4    0    0  0.85174065945E+01 -0.53251402196E+02  0.18914375671E+02  0.57149030245E+02  0.00000000000E+00 0.  1.
         12    1    4    4    0    0 -0.23393336898E+02  0.17364100651E+02 -0.32307996127E+01  0.29312084006E+02  0.00000000000E+00 0. -1.
         -5    1    5    5    0  502  0.23200642277E+02  0.35847535458E+02  0.25461944509E+02  0.49937122651E+02  0.47000000000E+01 0.  1.
         13    1    6    6    0    0 -0.90861823297E+02 -0.10128007464E+02 -0.17364780327E+02  0.93059029997E+02  0.00000000000E+00 0. -1.
        -14    1    6    6    0    0 -0.16046114605E+01 -0.18703290212E+02 -0.41579151671E+02  0.45620321090E+02  0.00000000000E+00 0.  1.
</event>
<event>
12    1  0.9028446E-003  0.1894735E+03  0.7818608E-02  0.1159206E+00
         21   -1    0    0  501  502  0.00000000000E+00  0.00000000000E+00  0.23048742500E+03  0.23048742500E+03  0.00000000000E+00 0.  1.
         21   -1    0    0  502  503 -0.00000000000E+00 -0.00000000000E+00 -0.16272225943E+03  0.16272225943E+03  0.00000000000E+00 0.  1.
          6    2    1    2  501    0  0.33596647513E+02 -0.71948379022E+02  0.77408099586E+02  0.20467591145E+03  0.17203171475E+03 0.  0.
         24    2    3    3    0    0  0.58826464650E+01  0.95084784230E+01  0.86940586505E+02  0.11797963826E+03  0.78965263059E+02 0.  0.
         -6    2    1    2    0  503 -0.33596647513E+02  0.71948379022E+02 -0.96429340149E+01  0.18853377299E+03  0.17072402705E+03 0.  0.
        -24    2    5    5    0    0  0.41355110227E+00  0.47987994927E+02  0.57574027600E+02  0.10934410482E+03  0.79613729485E+02 0.  0.
          5    1    3    3  501    0  0.27714001048E+02 -0.81456857445E+02 -0.95324869194E+01  0.86696273195E+02  0.47000000000E+01 0. -1.
        -13    1    4    4    0    0 -0.30437241500E+02 -0.13220468500E+02  0.56131949316E+02  0.65207378352E+02  0.00000000000E+00 0.  1.
         14    1    4    4    0    0  0.36319887965E+02  0.22728946923E+02  0.30808637189E+02  0.52772259905E+02  0.00000000000E+00 0. -1.
         -5    1    5    5    0  503 -0.34010198615E+02  0.23960384095E+02 -0.67216961615E+02  0.79189668168E+02  0.47000000000E+01 0.  1.
         13    1    6    6    0    0 -0.20619856238E+01 -0.32546396930E+01  0.57912570120E+02  0.58040591332E+02  0.00000000000E+00 0. -1.
        -14    1    6    6    0    0  0.24755367261E+01  0.51242634620E+02 -0.33854251994E+00  0.51303513485E+02  0.00000000000E+00 0.  1.
</event>
<event>
12    1  0.9028446E-003  0.2001001E+03  0.7818608E-02  0.1149671E+00
         21   -1    0    0  501  502  0.00000000000E+00  0.00000000000E+00  0.57590377738E+02  0.57590377738E+02  0.00000000000E+00 0.  1.
         21   -1    0    0  502  503 -0.00000000000E+00 -0.00000000000E+00 -0.70093612922E+03  0.70093612922E+03  0.00000000000E+00 0.  1.
          6    2    1    2  501    0 -0.25789727379E+02 -0.99264100658E+02 -0.35655565757E+03  0.40882860656E+03  0.17172775221E+03 0.  0.
         24    2    3    3    0    0  0.23054035011E+02 -0.64557822694E+02 -0.32417919350E+03  0.34056028096E+03  0.78676263687E+02 0.  0.
         -6    2    1    2    0  503  0.25789727379E+02  0.99264100658E+02 -0.28679009391E+03  0.34969790040E+03  0.17181848521E+03 0.  0.
        -24    2    5    5    0    0 -0.14969426222E+02  0.31323559769E+01 -0.19186389621E+03  0.20850408344E+03  0.80176697146E+02 0.  0.
          5    1    3    3  501    0 -0.48843762391E+02 -0.34706277964E+02 -0.32376464070E+02  0.68268325600E+02  0.47000000000E+01 0. -1.
        -11    1    4    4    0    0 -0.22348680571E+02  0.33740446656E+01 -0.74273672306E+02  0.77636499783E+02  0.00000000000E+00 0.  1.
         12    1    4    4    0    0  0.45402715582E+02 -0.67931867360E+02 -0.24990552119E+03  0.26292378118E+03  0.00000000000E+00 0. -1.
         -5    1    5    5    0  503  0.40759153602E+02  0.96131744681E+02 -0.94926197702E+02  0.14119381696E+03  0.47000000000E+01 0.  1.
         11    1    6    6    0    0 -0.39400863493E+02  0.35760550917E+01 -0.17345667423E+03  0.17791130950E+03  0.00000000000E+00 0. -1.
        -12    1    6    6    0    0  0.24431437270E+02 -0.44369911473E+00 -0.18407221982E+02  0.30592773936E+02  0.00000000000E+00 0.  1.
</event>
<event>
12    1  0.9028446E-003  0.1739732E+03  0.7818608E-02  0.1175078E+00
         21   -1    0    0  503  502  0.00000000000E+00  0.00000000000E+00  0.59307545716E+03  0.59307545716E+03  0.00000000000E+00 0.  1.
         21   -1    0    0  501  503 -0.00000000000E+00 -0.00000000000E+00 -0.50510598540E+02  0.50510598540E+02  0.00000000000E+00 0.  1.
          6    2    1    2  501    0 -0.16868624328E+02 -0.12979637010E+02  0.31173861516E+03  0.35454033781E+03  0.16752571591E+03 0.  0.
         24    2    3    3    0    0 -0.36620537925E+02 -0.27686650155E+01  0.39756857714E+02  0.81610734393E+02  0.61081706991E+02 0.  0.
         -6    2    1    2    0  502  0.16868624328E+02  0.12979637010E+02  0.23082624346E+03  0.28904571788E+03  0.17266629924E+03 0.  0.
        -24    2    5    5    0    0 -0.34581867721E+02  0.48447028213E+02  0.18732141442E+03  0.21275778227E+03  0.81446556087E+02 0.  0.
          5    1    3    3  501    0  0.19751913597E+02 -0.10210971995E+02  0.27198175744E+03  0.27292960342E+03  0.47000000000E+01 0. -1.
        -11    1    4    4    0    0 -0.18664717252E+02  0.17351455922E+02 -0.80474597129E+01  0.26724638455E+02  0.00000000000E+00 0.  1.
         12    1    4    4    0    0 -0.17955820673E+02 -0.20120120937E+02  0.47804317427E+02  0.54886095938E+02  0.00000000000E+00 0. -1.
         -5    1    5    5    0  502  0.51450492049E+02 -0.35467391203E+02  0.43504829040E+02  0.76287935617E+02  0.47000000000E+01 0.  1.
         11    1    6    6    0    0 -0.52823029719E+02  0.42013093449E+01  0.10104576827E+03  0.11409719872E+03  0.00000000000E+00 0. -1.
        -12    1    6    6    0    0  0.18241161998E+02  0.44245718868E+02  0.86275646144E+02  0.98660583552E+02  0.00000000000E+00 0.  1.
</event>
<event>
12    1  0.9028446E-003  0.1907643E+03  0.7818608E-02  0.1157921E+00
         21   -1    0    0  503  502  0.00000000000E+00  0.00000000000E+00  0.52564424843E+03  0.52564424843E+03  0.00000000000E+00 0.  1.
         21   -1    0    0  501  503 -0.00000000000E+00 -0.00000000000E+00 -0.94700023988E+02  0.94700023988E+02  0.00000000000E+00 0. -1.
          6    2    1    2  501    0  0.39213778917E+02 -0.73181515514E+02  0.53602279485E+02  0.19752284620E+03  0.17102285150E+03 0.  0.
         24    2    3    3    0    0 -0.62371715328E+01  0.19978620341E+02  0.45687459461E+02  0.93458759287E+02  0.78798148176E+02 0.  0.
         -6    2    1    2    0  502 -0.39213778917E+02  0.73181515514E+02  0.37734194496E+03  0.42282142622E+03  0.17174912044E+03 0.  0.
        -24    2    5    5    0    0 -0.59588498121E+02 -0.12504810573E+02  0.23279743901E+03  0.25349192536E+03  0.79726715825E+02 0.  0.
          5    1    3    3  501    0  0.45450950450E+02 -0.93160135856E+02  0.79148200241E+01  0.10406408692E+03  0.47000000000E+01 0. -1.
        -11    1    4    4    0    0 -0.22588745454E+02 -0.30973890452E+01  0.58219248896E+02  0.62524604614E+02  0.00000000000E+00 0.  1.
         12    1    4    4    0    0  0.16351573921E+02  0.23076009387E+02 -0.12531789435E+02  0.30934154673E+02  0.00000000000E+00 0. -1.
         -5    1    5    5    0  502  0.20374719204E+02  0.85686326088E+02  0.14454450594E+03  0.16932950085E+03  0.47000000000E+01 0.  1.
         13    1    6    6    0    0 -0.54763565400E+02 -0.22596343493E+02  0.23477382404E+03  0.24213300331E+03  0.00000000000E+00 0. -1.
        -14    1    6    6    0    0 -0.48249327217E+01  0.10091532920E+02 -0.19763850301E+01  0.11358922054E+02  0.00000000000E+00 0.  1.
</event>
<event>
12    1  0.9028446E-003  0.2307034E+03  0.7818608E-02  0.1126361E+00
         21   -1    0    0  501  502  0.00000000000E+00  0.00000000000E+00  0.16845579386E+03  0.16845579386E+03  0.00000000000E+00 0.  1.
         21   -1    0    0  502  503 -0.00000000000E+00 -0.00000000000E+00 -0.32515491927E+03  0.32515491927E+03  0.00000000000E+00 0. -1.
          6    2    1    2  501    0  0.13376500751E+03 -0.78576425384E+02 -0.33009386587E+02  0.23184129932E+03  0.16909593905E+03 0.  0.
         24    2    3    3    0    0  0.96283344788E+02 -0.27470516680E+02 -0.81540168152E+02  0.15187870991E+03  0.79957687131E+02 0.  0.
         -6    2    1    2    0  503 -0.13376500751E+03  0.78576425384E+02 -0.12368973882E+03  0.26176941381E+03  0.17075345576E+03 0.  0.
        -24    2    5    5    0    0 -0.13739468053E+03  0.10904940975E+03 -0.81524919426E+02  0.20940779335E+03  0.80226176656E+02 0.  0.
          5    1    3    3  501    0  0.37481662724E+02 -0.51105908705E+02  0.48530781566E+02  0.79962589406E+02  0.47000000000E+01 0. -1.
        -11    1    4    4    0    0  0.10693155828E+03 -0.24080010795E+02 -0.54065162054E+02  0.12221802986E+03  0.00000000000E+00 0.  1.
         12    1    4    4    0    0 -0.10648213490E+02 -0.33905058846E+01 -0.27475006099E+02  0.29660680047E+02  0.00000000000E+00 0. -1.
         -5    1    5    5    0  503  0.36296730174E+01 -0.30472984370E+02 -0.42164819396E+02  0.52361620461E+02  0.47000000000E+01 0.  1.
         11    1    6    6    0    0 -0.70819898421E+02  0.89149098912E+01 -0.42070030932E+02  0.82854216147E+02  0.00000000000E+00 0. -1.
        -12    1    6    6    0    0 -0.66574782108E+02  0.10013449986E+03 -0.39454888494E+02  0.12655357720E+03  0.00000000000E+00 0.  1.
</event>
<event>
12    1  0.9028446E-003  0.2881489E+03  0.7818608E-02  0.1091373E+00
         21   -1    0    0  503  502  0.00000000000E+00  0.00000000000E+00  0.82352808101E+02  0.82352808101E+02  0.00000000000E+00 0.  1.
         21   -1    0    0  501  503 -0.00000000000E+00 -0.00000000000E+00 -0.12149431311E+04  0.12149431311E+04  0.00000000000E+00 0. -1.
          6    2    1    2  501    0 -0.19892650985E+03 -0.11917212102E+03 -0.83443818703E+03  0.88265814533E+03  0.17036596726E+03 0.  0.
         24    2    3    3    0    0 -0.12174807660E+03 -0.97954074735E+02 -0.34849864454E+03  0.39014820127E+03  0.79666296469E+02 0.  0.
         -6    2    1    2    0  502  0.19892650985E+03  0.11917212102E+03 -0.29815213600E+03  0.41463779390E+03  0.17104400949E+03 0.  0.
        -24    2    5    5    0    0  0.12479655320E+03  0.14381350333E+03 -0.20107466419E+03  0.28994387373E+03  0.85906495117E+02 0.  0.
          5    1    3    3  501    0 -0.77178433243E+02 -0.21218046281E+02 -0.48593954249E+03  0.49250994406E+03  0.47000000000E+01 0. -1.
        -13    1    4    4    0    0 -0.41902420952E+01 -0.75216048670E+01 -0.10275735242E+03  0.10311743861E+03  0.00000000000E+00 0.  1.
         14    1    4    4    0    0 -0.11755783451E+03 -0.90432469868E+02 -0.24574129211E+03  0.28703076266E+03  0.00000000000E+00 0. -1.
         -5    1    5    5    0  502  0.74129956645E+02 -0.24641382312E+02 -0.97077471810E+02  0.12469392017E+03  0.47000000000E+01 0.  1.
         13    1    6    6    0    0  0.34867986452E+02  0.10254083420E+03 -0.12311328649E+03  0.16397341391E+03  0.00000000000E+00 0. -1.
        -14    1    6    6    0    0  0.89928566749E+02  0.41272669124E+02 -0.77961377692E+02  0.12597045981E+03  0.00000000000E+00 0.  1.
</event>
<event>
12    1  0.9028446E-003  0.2194339E+03  0.7818608E-02  0.1134511E+00
         21   -1    0    0  501  502  0.00000000000E+00  0.00000000000E+00  0.10321707274E+03  0.10321707274E+03  0.00000000000E+00 0. -1.
         21   -1    0    0  502  503 -0.00000000000E+00 -0.00000000000E+00 -0.50406203283E+03  0.50406203283E+03  0.00000000000E+00 0. -1.
          6    2    1    2  501    0  0.75519612903E+02  0.11307332810E+03 -0.11455506626E+03  0.24656711297E+03  0.17083234041E+03 0.  0.
         24    2    3    3    0    0 -0.14042189391E+02  0.36104617500E+02 -0.83091580605E+02  0.12426609183E+03  0.83887569542E+02 0.  0.
         -6    2    1    2    0  503 -0.75519612903E+02 -0.11307332810E+03 -0.28628989382E+03  0.36071199260E+03  0.17222789798E+03 0.  0.
        -24    2    5    5    0    0 -0.26039497771E+02 -0.11003796091E+03 -0.87205704597E+02  0.15549479146E+03  0.61541749808E+02 0.  0.
          5    1    3    3  501    0  0.89561802293E+02  0.76968710604E+02 -0.31463485658E+02  0.12230102114E+03  0.47000000000E+01 0. -1.
        -11    1    4    4    0    0 -0.82577826108E+01 -0.24176651785E+02 -0.47735781507E+02  0.54142463015E+02  0.00000000000E+00 0.  1.
         12    1    4    4    0    0 -0.57844067799E+01  0.60281269285E+02 -0.35355799098E+02  0.70123628816E+02  0.00000000000E+00 0. -1.
         -5    1    5    5    0  503 -0.49480115132E+02 -0.30353671901E+01 -0.19908418922E+03  0.20521720115E+03  0.47000000000E+01 0.  1.
         11    1    6    6    0    0 -0.37749541715E+02 -0.79090538993E+02 -0.36470993891E+02  0.94923520021E+02  0.00000000000E+00 0. -1.
        -12    1    6    6    0    0  0.11710043945E+02 -0.30947421921E+02 -0.50734710707E+02  0.60571271435E+02  0.00000000000E+00 0.  1.
</event>
<event>
12    1  0.9028446E-003  0.1816276E+03  0.7818608E-02  0.1166285E+00
         21   -1    0    0  503  502  0.00000000000E+00  0.00000000000E+00  0.27415006525E+03  0.27415006525E+03  0.00000000000E+00 0.  1.
         21   -1    0    0  501  503 -0.00000000000E+00 -0.00000000000E+00 -0.12768396191E+03  0.12768396191E+03  0.00000000000E+00 0.  1.
          6    2    1    2  501    0 -0.31072836809E+02 -0.49139383717E+02  0.12192197225E+03  0.21875458404E+03  0.17207091707E+03 0.  0.
         24    2    3    3    0    0 -0.19699844479E+02 -0.90947166684E+02  0.12589328418E+03  0.17499276289E+03  0.78191285078E+02 0.  0.
         -6    2    1    2    0  502  0.31072836809E+02  0.49139383717E+02  0.24544131089E+02  0.18307944312E+03  0.17185886041E+03 0.  0.
        -24    2    5    5    0    0 -0.37597038927E+02  0.81570054794E+02  0.15666921348E+02  0.10647529759E+03  0.54993866897E+02 0.  0.
          5    1    3    3  501    0 -0.11372992331E+02  0.41807782968E+02 -0.39713119357E+01  0.43761821142E+02  0.47000000000E+01 0. -1.
        -13    1    4    4    0    0 -0.48052825188E+02 -0.39150400675E+02  0.56422916217E+02  0.83817500297E+02  0.00000000000E+00 0.  1.
         14    1    4    4    0    0  0.28352980709E+02 -0.51796766010E+02  0.69470367967E+02  0.91175262597E+02  0.00000000000E+00 0. -1.
         -5    1    5    5    0  502  0.68669875736E+02 -0.32430671077E+02  0.88772097409E+01  0.76604145533E+02  0.47000000000E+01 0.  1.
         13    1    6    6    0    0 -0.81951976172E+01  0.34184633588E+02 -0.19839363600E+02  0.40365217522E+02  0.00000000000E+00 0. -1.
        -14    1    6    6    0    0 -0.29401841309E+02  0.47385421206E+02  0.35506284948E+02  0.66110080064E+02  0.00000000000E+00 0.  1.
</event>
<event>
12    1  0.9028446E-003  0.2674799E+03  0.7818608E-02  0.1103169E+00
         21   -1    0    0  501  502  0.00000000000E+00  0.00000000000E+00  0.23057209073E+03  0.23057209073E+03  0.00000000000E+00 0.  1.
         21   -1    0    0  502  503 -0.00000000000E+00 -0.00000000000E+00 -0.36162799995E+03  0.36162799995E+03  0.00000000000E+00 0. -1.
          6    2    1    2  501    0  0.81187338211E+02  0.18453310270E+03  0.50065936193E+02  0.26916662547E+03  0.17117308322E+03 0.  0.
         24    2    3    3    0    0  0.39822366179E+02  0.10620449359E+03 -0.38401239635E+02  0.14388708557E+03  0.79772319029E+02 0.  0.
         -6    2    1    2    0  503 -0.81187338211E+02 -0.18453310270E+03 -0.18112184541E+03  0.32303346520E+03  0.17578864263E+03 0.  0.
        -24    2    5    5    0    0 -0.44893045970E+02 -0.21461680102E+02 -0.10333905060E+03  0.13869188637E+03  0.77977501092E+02 0.  0.
          5    1    3    3  501    0  0.41364972032E+02  0.78328609116E+02  0.88467175828E+02  0.12527953989E+03  0.47000000000E+01 0. -1.
        -11    1    4    4    0    0  0.29130766327E+02  0.91722262018E+02  0.55452176222E+01  0.96396702926E+02  0.00000000000E+00 0.  1.
         12    1    4    4    0    0  0.10691599852E+02  0.14482231570E+02 -0.43946457257E+02  0.47490382649E+02  0.00000000000E+00 0. -1.
         -5    1    5    5    0  503 -0.36294292241E+02 -0.16307142260E+03 -0.77782794815E+02  0.18434157884E+03  0.47000000000E+01 0.  1.
         11    1    6    6    0    0 -0.21425879790E+02 -0.29700673659E+02 -0.10741697565E+03  0.11348834741E+03  0.00000000000E+00 0. -1.
        -12    1    6    6    0    0 -0.23467166180E+02  0.82389935568E+01  0.40779250486E+01  0.25203538959E+02  0.00000000000E+00 0.  1.
</event>
<event>
12    1  0.9028446E-003  0.1927916E+03  0.7818608E-02  0.1157713E+00
         21   -1    0    0  503  502  0.00000000000E+00  0.00000000000E+00  0.37688647675E+02  0.37688647675E+02  0.00000000000E+00 0.  1.
         21   -1    0    0  501  503 -0.00000000000E+00 -0.00000000000E+00 -0.10149921570E+04  0.10149921570E+04  0.00000000000E+00 0.  1.
          6    2    1    2  501    0  0.14308307518E+02 -0.70803003360E+02 -0.61542185866E+03  0.64264796506E+03  0.17039527556E+03 0.  0.
         24    2    3    3    0    0  0.59922580461E+02 -0.87157581539E+02 -0.43103672343E+03  0.45194373801E+03  0.85283795113E+02 0.  0.
         -6    2    1    2    0  502 -0.14308307518E+02  0.70803003360E+02 -0.36188165068E+03  0.41003283962E+03  0.17874788817E+03 0.  0.
        -24    2    5    5    0    0  0.50711986235E+01  0.97910006412E+02 -0.19562449673E+03  0.24040416837E+03  0.99564722857E+02 0.  0.
          5    1    3    3  501    0 -0.45614272943E+02  0.16354578180E+02 -0.18438513523E+03  0.19070422705E+03  0.47000000000E+01 0. -1.
        -11    1    4    4    0    0 -0.13858146791E+02 -0.52283524780E+02 -0.16076504399E+03  0.16962020683E+03  0.00000000000E+00 0.  1.
         12    1    4    4    0    0  0.73780727252E+02 -0.34874056759E+02 -0.27027167944E+03  0.28232353117E+03  0.00000000000E+00 0. -1.
         -5    1    5    5    0  502 -0.19379506142E+02 -0.27107003052E+02 -0.16625715395E+03  0.16962867125E+03  0.47000000000E+01 0.  1.
         11    1    6    6    0    0  0.22968510155E+02 -0.97104563444E+00 -0.30528115562E+01  0.23190839717E+02  0.00000000000E+00 0. -1.
        -12    1    6    6    0    0 -0.17897311531E+02  0.98881052046E+02 -0.19257168517E+03  0.21721332865E+03  0.00000000000E+00 0.  1.
</event>
<event>
12    1  0.9028446E-003  0.1945297E+03  0.7818608E-02  0.1154539E+00
         21   -1    0    0  501  502  0.00000000000E+00  0.00000000000E+00  0.19245912809E+04  0.19245912809E+04  0.00000000000E+00 0. -1.
         21   -1    0    0  502  503 -0.00000000000E+00 -0.00000000000E+00 -0.20202072987E+02  0.20202072987E+02  0.00000000000E+00 0. -1.
          6    2    1    2  501    0 -0.74859754717E+02  0.53286562579E+02  0.11167627569E+04  0.11334997895E+04  0.17093647056E+03 0.  0.
         24    2    3    3    0    0 -0.33846647178E+01  0.48608592439E+02  0.32118053934E+03  0.33468583945E+03  0.80519693638E+02 0.  0.
         -6    2    1    2    0  503  0.74859754717E+02 -0.53286562579E+02  0.78762645098E+03  0.81129356436E+03  0.17145955982E+03 0.  0.
        -24    2    5    5    0    0  0.10874513151E+03 -0.67476217248E+02  0.52802907644E+03  0.54906760849E+03  0.79259003327E+02 0.  0.
          5    1    3    3  501    0 -0.71475089999E+02  0.46779701403E+01  0.79558221754E+03  0.79881395003E+03  0.47000000000E+01 0. -1.
        -13    1    4    4    0    0  0.28113839001E+02 -0.42786425973E+01  0.15239722493E+03  0.15502776814E+03  0.00000000000E+00 0.  1.
         14    1    4    4    0    0 -0.31498503718E+02  0.52887235036E+02  0.16878331441E+03  0.17965807132E+03  0.00000000000E+00 0. -1.
         -5    1    5    5    0  503 -0.33885376794E+02  0.14189654668E+02  0.25959737455E+03  0.26222595587E+03  0.47000000000E+01 0.  1.
         13    1    6    6    0    0  0.59356163266E+02 -0.83167551342E-01  0.13858178068E+03  0.15075831974E+03  0.00000000000E+00 0. -1.
        -14    1    6    6    0    0  0.49388968244E+02 -0.67393049696E+02  0.38944729575E+03  0.39830928874E+03  0.00000000000E+00 0.  1.
</event>
<event>
12    1  0.9028446E-003  0.3473955E+03  0.7818608E-02  0.1063796E+00
         21   -1    0    0  503  502  0.00000000000E+00  0.00000000000E+00  0.18839757738E+03  0.18839757738E+03  0.00000000000E+00 0. -1.
         21   -1    0    0  501  503 -0.00000000000E+00 -0.00000000000E+00 -0.73059063921E+03  0.73059063921E+03  0.00000000000E+00 0. -1.
          6    2    1    2  501    0  0.17883466513E+03  0.24251746830E+03 -0.43372015307E+03  0.55505144541E+03  0.17079922712E+03 0.  0.
         24    2    3    3    0    0  0.10187981146E+03  0.23386429895E+03 -0.36277895210E+03  0.44992451814E+03  0.75838628843E+02 0.  0.
         -6    2    1    2    0  502 -0.17883466513E+03 -0.24251746830E+03 -0.10847290876E+03  0.36393677118E+03  0.17287869040E+03 0.  0.
        -24    2    5    5    0    0 -0.14266570841E+03 -0.25901832173E+03 -0.90804527225E+02  0.32017910557E+03  0.82614781540E+02 0.  0.
          5    1    3    3  501    0  0.76954853670E+02  0.86531693574E+01 -0.70941200964E+02  0.10512692727E+03  0.47000000000E+01 0. -1.
        -13    1    4    4    0    0  0.65734433049E+02  0.13191608934E+03 -0.14496261163E+03  0.20672936193E+03  0.00000000000E+00 0.  1.
         14    1    4    4    0    0  0.36145378411E+02  0.10194820961E+03 -0.21781634047E+03  0.24319515620E+03  0.00000000000E+00 0. -1.
         -5    1    5    5    0  502 -0.36168956715E+02  0.16500853422E+02 -0.17668381537E+02  0.43757665610E+02  0.47000000000E+01 0.  1.
         13    1    6    6    0    0 -0.15177164577E+03 -0.22388524423E+03 -0.75749012225E+02  0.28088636118E+03  0.00000000000E+00 0. -1.
        -14    1    6    6    0    0  0.91059373557E+01 -0.35133077492E+02 -0.15055515000E+02  0.39292744382E+02  0.00000000000E+00 0.  1.
</event>
<event>
12    1  0.9028446E-003  0.1859187E+03  0.7818608E-02  0.1162321E+00
         21   -1    0    0  501  502  0.00000000000E+00  0.00000000000E+00  0.14169829047E+04  0.14169829047E+04  0.00000000000E+00 0. -1.
         21   -1    0    0  502  503 -0.00000000000E+00 -0.00000000000E+00 -0.28692665702E+02  0.28692665702E+02  0.00000000000E+00 0. -1.
          6    2    1    2  501    0  0.22269202446E+02  0.66786547328E+02  0.97710271675E+03  0.99463334871E+03  0.17207387660E+03 0.  0.
         24    2    3    3    0    0  0.74807687756E+02  0.75039177629E+02  0.72574553445E+03  0.73766852341E+03  0.78874592477E+02 0.  0.
         -6    2    1    2    0  503 -0.22269202446E+02 -0.66786547328E+02  0.41118752230E+03  0.45104222174E+03  0.17148628813E+03 0.  0.
        -24    2    5    5    0    0 -0.57280614726E+02 -0.96204466636E+02  0.29778474558E+03  0.32867599791E+03  0.82557789937E+02 0.  0.
          5    1    3    3  501    0 -0.52538485310E+02 -0.82526303014E+01  0.25135718230E+03  0.25696482530E+03  0.47000000000E+01 0. -1.
        -13    1    4    4    0    0 -0.83066139940E+01  0.55939969335E+01  0.23052801895E+03  0.23074544450E+03  0.00000000000E+00 0.  1.
         14    1    4    4    0    0  0.83114301750E+02  0.69445180696E+02  0.49521751550E+03  0.50692307891E+03  0.00000000000E+00 0. -1.
         -5    1    5    5    0  503  0.35011412281E+02  0.29417919308E+02  0.11340277672E+03  0.12236622383E+03  0.47000000000E+01 0.  1.
         11    1    6    6    0    0  0.31541212836E+01 -0.32861535655E+02  0.22877279142E+02  0.40164647485E+02  0.00000000000E+00 0. -1.
        -12    1    6    6    0    0 -0.60434736010E+02 -0.63342930981E+02  0.27490746644E+03  0.28851135043E+03  0.00000000000E+00 0.  1.
</event>
<event>
12    1  0.9028446E-003  0.2135205E+03  0.7818608E-02  0.1139019E+00
         21   -1    0    0  501  502  0.00000000000E+00  0.00000000000E+00  0.43882669358E+02  0.43882669358E+02  0.00000000000E+00 0.  1.
         21   -1    0    0  502  503 -0.00000000000E+00 -0.00000000000E+00 -0.11483791643E+04  0.11483791643E+04  0.00000000000E+00 0. -1.
          6    2    1    2  501    0  0.11410597697E+03 -0.52481665080E+02 -0.74192888567E+03  0.77204240593E+03  0.17267456679E+03 0.  0.
         24    2    3    3    0    0  0.65016842784E+02  0.17884448178E+02 -0.22092343849E+03  0.24399894278E+03  0.78621085400E+02 0.  0.
         -6    2    1    2    0  503 -0.11410597697E+03  0.52481665080E+02 -0.36256760932E+03  0.42021942777E+03  0.17133183301E+03 0.  0.
        -24    2    5    5    0    0 -0.13192010263E+03  0.51700939894E+02 -0.36681277291E+03  0.40129684816E+03  0.80072775100E+02 0.  0.
          5    1    3    3  501    0  0.49089134185E+02 -0.70366113259E+02 -0.52100544718E+03  0.52804346316E+03  0.47000000000E+01 0. -1.
        -13    1    4    4    0    0  0.52257440412E+02 -0.11422823305E+01 -0.21366799969E+03  0.21996854089E+03  0.00000000000E+00 0.  1.
         14    1    4    4    0    0  0.12759402372E+02  0.19026730509E+02 -0.72554387955E+01  0.24030401887E+02  0.00000000000E+00 0. -1.
         -5    1    5    5    0  503  0.17814125665E+02  0.78072518609E+00  0.42451635928E+01  0.18922579607E+02  0.47000000000E+01 0.  1.
         11    1    6    6    0    0 -0.54175185106E+02 -0.10057900143E+02 -0.75072740544E+02  0.93123726350E+02  0.00000000000E+00 0. -1.
        -12    1    6    6    0    0 -0.77744917528E+02  0.61758840037E+02 -0.29174003236E+03  0.30817312181E+03  0.00000000000E+00 0.  1.
</event>
<event>
12    1  0.9028446E-003  0.2171934E+03  0.7818608E-02  0.1136072E+00
         21   -1    0    0  503  502  0.00000000000E+00  0.00000000000E+00  0.44999389960E+02  0.44999389960E+02  0.00000000000E+00 0.  1.
         21   -1    0    0  501  503 -0.00000000000E+00 -0.00000000000E+00 -0.10606103294E+04  0.10606103294E+04  0.00000000000E+00 0. -1.
          6    2    1    2  501    0 -0.12535935823E+03 -0.45086790010E+02 -0.57156941509E+03  0.61129619074E+03  0.17100774607E+03 0.  0.
         24    2    3    3    0    0 -0.76913834335E+02  0.12148194424E+02 -0.17117278098E+03  0.20391140110E+03  0.78844289630E+02 0.  0.
         -6    2    1    2    0  502  0.12535935823E+03  0.45086790010E+02 -0.44404152436E+03  0.49431352863E+03  0.17153775649E+03 0.  0.
        -24    2    5    5    0    0  0.15885516545E+03  0.45101153288E+02 -0.38443306051E+03  0.42577720053E+03  0.78920015576E+02 0.  0.
          5    1    3    3  501    0 -0.48445523895E+02 -0.57234984434E+02 -0.40039663411E+03  0.40738478964E+03  0.47000000000E+01 0. -1.
        -11    1    4    4    0    0 -0.62486987251E+02 -0.11984777368E+02 -0.16246153872E+03  0.17447638817E+03  0.00000000000E+00 0.  1.
         12    1    4    4    0    0 -0.14426847084E+02  0.24132971792E+02 -0.87112422610E+01  0.29435012927E+02  0.00000000000E+00 0. -1.
         -5    1    5    5    0  502 -0.33495807217E+02 -0.14363277850E-01 -0.59608463845E+02  0.68536328100E+02  0.47000000000E+01 0.  1.
         13    1    6    6    0    0  0.60355801409E+02  0.66682609818E+01 -0.23501838845E+03  0.24273634128E+03  0.00000000000E+00 0. -1.
        -14    1    6    6    0    0  0.98499364039E+02  0.38432892306E+02 -0.14941467206E+03  0.18304085924E+03  0.00000000000E+00 0.  1.
</event>
<event>
12    1  0.9028446E-003  0.2028928E+03  0.7818608E-02  0.1147448E+00
         21   -1    0    0  501  502  0.00000000000E+00  0.00000000000E+00  0.18759904014E+03  0.18759904014E+03  0.00000000000E+00 0. -1.
         21   -1    0    0  502  503 -0.00000000000E+00 -0.00000000000E+00 -0.25671016252E+03  0.25671016252E+03  0.00000000000E+00 0. -1.
          6    2    1    2  501    0  0.59443645017E+02  0.87806598248E+02  0.50891166057E+02  0.20858471428E+03  0.17226179675E+03 0.  0.
         24    2    3    3    0    0  0.77961599952E+02  0.28054960926E+02 -0.18268615704E+02  0.11521267226E+03  0.77943092256E+02 0.  0.
         -6    2    1    2    0  503 -0.59443645017E+02 -0.87806598248E+02 -0.12000228844E+03  0.23572448837E+03  0.17297959290E+03 0.  0.
        -24    2    5    5    0    0  0.24297884266E+02 -0.58325479062E+02 -0.45783481293E+02  0.11991299737E+03  0.91053561660E+02 0.  0.
          5    1    3    3  501    0 -0.18517954935E+02  0.59751637322E+02  0.69159781761E+02  0.93372042019E+02  0.47000000000E+01 0. -1.
        -13    1    4    4    0    0  0.43019587329E+02  0.49391242358E+02 -0.30823518748E+02  0.72389702469E+02  0.00000000000E+00 0.  1.
         14    1    4    4    0    0  0.34942012623E+02 -0.21336281431E+02  0.12554903044E+02  0.42822969793E+02  0.00000000000E+00 0. -1.
         -5    1    5    5    0  503 -0.83741529283E+02 -0.29481119186E+02 -0.74218807143E+02  0.11581149101E+03  0.47000000000E+01 0.  1.
         13    1    6    6    0    0 -0.28676691362E+02 -0.44792058956E+02 -0.88121579345E+01  0.53910437769E+02  0.00000000000E+00 0. -1.
        -14    1    6    6    0    0  0.52974575628E+02 -0.13533420105E+02 -0.36971323358E+02  0.66002559599E+02  0.00000000000E+00 0.  1.
</event>
<event>
12    1  0.9028446E-003  0.1780433E+03  0.7818608E-02  0.1169784E+00
         21   -1    0    0  501  502  0.00000000000E+00  0.00000000000E+00  0.58853647744E+02  0.58853647744E+02  0.00000000000E+00 0. -1.
         21   -1    0    0  502  503 -0.00000000000E+00 -0.00000000000E+00 -0.61035451027E+03  0.61035451027E+03  0.00000000000E+00 0. -1.
          6    2    1    2  501    0  0.43744906088E+02  0.32700093934E+01 -0.16052003590E+03  0.23972084479E+03  0.17255460508E+03 0.  0.
         24    2    3    3    0    0 -0.14981238882E+02  0.38770051660E+02 -0.14733466905E+03  0.16968544658E+03  0.73198986699E+02 0.  0.
         -6    2    1    2    0  503 -0.43744906088E+02 -0.32700093934E+01 -0.39098082662E+03  0.42948731322E+03  0.17224701930E+03 0.  0.
        -24    2    5    5    0    0  0.95596531755E+01 -0.58729415662E+02 -0.21372524597E+03  0.23620318905E+03  0.81073636407E+02 0.  0.
          5    1    3    3  501    0  0.58726144970E+02 -0.35500042266E+02 -0.13185366853E+02  0.70035398214E+02  0.47000000000E+01 0. -1.
        -13    1    4    4    0    0  0.23718024847E+02  0.38784405136E+02 -0.81192567517E+02  0.93053789845E+02  0.00000000000E+00 0.  1.
         14    1    4    4    0    0 -0.38699263730E+02 -0.14353476302E-01 -0.66142101529E+02  0.76631656734E+02  0.00000000000E+00 0. -1.
         -5    1    5    5    0  503 -0.53304559263E+02  0.55459406269E+02 -0.17725558066E+03  0.19328412417E+03  0.47000000000E+01 0.  1.
         13    1    6    6    0    0 -0.34364880317E+02 -0.27630231754E+02 -0.12361538608E+03  0.13124457468E+03  0.00000000000E+00 0. -1.
        -14    1    6    6    0    0  0.43924533493E+02 -0.31099183908E+02 -0.90109859885E+02  0.10495861437E+03  0.00000000000E+00 0.  1.
</event>
<event>
12    1  0.9028446E-003  0.2023087E+03  0.7818608E-02  0.1148104E+00
         21   -1    0    0  501  502  0.00000000000E+00  0.00000000000E+00  0.23938769362E+03  0.23938769362E+03  0.00000000000E+00 0. -1.
         21   -1    0    0  502  503 -0.00000000000E+00 -0.00000000000E+00 -0.24537121614E+03  0.24537121614E+03  0.00000000000E+00 0. -1.
          6    2    1    2  501    0  0.43466503642E+02 -0.96926995973E+02  0.13155578942E+03  0.24012477791E+03  0.17049575873E+03 0.  0.
         24    2    3    3    0    0 -0.23414031124E+02 -0.36078102382E+02  0.11737021881E+03  0.14847918775E+03  0.80127739305E+02 0.  0.
         -6    2    1    2    0  503 -0.43466503642E+02  0.96926995973E+02 -0.13753931194E+03  0.24463413186E+03  0.17217612103E+03 0.  0.
        -24    2    5    5    0    0 -0.28288572746E+02  0.73395205745E+02 -0.76472701261E+01  0.11167493788E+03  0.78903177599E+02 0.  0.
          5    1    3    3  501    0  0.66880534766E+02 -0.60848893592E+02  0.14185570617E+02  0.91645590159E+02  0.47000000000E+01 0. -1.
        -11    1    4    4    0    0  0.19481433449E+02 -0.63593668285E+01  0.84169745482E+02  0.86628597185E+02  0.00000000000E+00 0.  1.
         12    1    4    4    0    0 -0.42895464573E+02 -0.29718735553E+02  0.33200473325E+02  0.61850590561E+02  0.00000000000E+00 0. -1.
         -5    1    5    5    0  503 -0.15177930896E+02  0.23531790228E+02 -0.12989204181E+03  0.13295919398E+03  0.47000000000E+01 0.  1.
         11    1    6    6    0    0 -0.24368419793E+02  0.85180939413E+02 -0.23379287444E+02  0.91630799429E+02  0.00000000000E+00 0. -1.
        -12    1    6    6    0    0 -0.39201529525E+01 -0.11785733668E+02  0.15732017318E+02  0.20044138449E+02  0.00000000000E+00 0.  1.
</event>
<event>
12    1  0.9028446E-003  0.2535731E+03  0.7818608E-02  0.1111288E+00
         21   -1    0    0  501  502  0.00000000000E+00  0.00000000000E+00  0.33788581229E+03  0.33788581229E+03  0.00000000000E+00 0.  1.
         21   -1    0    0  502  503 -0.00000000000E+00 -0.00000000000E+00 -0.27198782962E+03  0.27198782962E+03  0.00000000000E+00 0. -1.
          6    2    1    2  501    0 -0.13037611989E+03  0.13234984861E+03  0.20108384856E+03  0.32251581419E+03  0.17049141088E+03 0.  0.
         24    2    3    3    0    0 -0.70656262244E+02  0.16047184435E+02  0.40711942860E+02  0.11555202695E+03  0.80280689569E+02 0.  0.
         -6    2    1    2    0  503  0.13037611989E+03 -0.13234984861E+03 -0.13518586589E+03  0.28735782773E+03  0.17258298802E+03 0.  0.
        -24    2    5    5    0    0  0.47883479486E+01 -0.19957883815E+02 -0.55020412316E+02  0.10066869532E+03  0.81766099595E+02 0.  0.
          5    1    3    3  501    0 -0.59719857649E+02  0.11630266418E+03  0.16037190570E+03  0.20696378724E+03  0.47000000000E+01 0. -1.
        -13    1    4    4    0    0 -0.41237080431E+02  0.84581328313E+01  0.64461283796E+02  0.76988920775E+02  0.00000000000E+00 0.  1.
         14    1    4    4    0    0 -0.29419181812E+02  0.75890516034E+01 -0.23749340936E+02  0.38563106172E+02  0.00000000000E+00 0. -1.
         -5    1    5    5    0  503  0.12558777194E+03 -0.11239196480E+03 -0.80165453576E+02  0.18668913241E+03  0.47000000000E+01 0.  1.
         11    1    6    6    0    0  0.38147515695E+02  0.99842119768E+01 -0.27379486888E+02  0.48005767828E+02  0.00000000000E+00 0. -1.
        -12    1    6    6    0    0 -0.33359167747E+02 -0.29942095792E+02 -0.27640925427E+02  0.52662927488E+02  0.00000000000E+00 0.  1.
</event>
<event>
12    1  0.9028446E-003  0.1757586E+03  0.7818608E-02  0.1172163E+00
         21   -1    0    0  501  502  0.00000000000E+00  0.00000000000E+00  0.85206277600E+02  0.85206277600E+02  0.00000000000E+00 0. -1.
         21   -1    0    0  502  503 -0.00000000000E+00 -0.00000000000E+00 -0.52034125518E+03  0.52034125518E+03  0.00000000000E+00 0. -1.
          6    2    1    2  501    0  0.22292708276E+02 -0.22270517775E+02 -0.49676105738E+02  0.18190895973E+03  0.17213428870E+03 0.  0.
         24    2    3    3    0    0  0.22078802700E+02 -0.78541826949E+02 -0.16323970683E+02  0.11632724807E+03  0.81297383200E+02 0.  0.
         -6    2    1    2    0  503 -0.22292708276E+02  0.22270517775E+02 -0.38545887184E+03  0.42363857305E+03  0.17291083797E+03 0.  0.
        -24    2    5    5    0    0 -0.11269280251E+02  0.67001402166E+01 -0.39424794324E+03  0.40211439133E+03  0.78055457255E+02 0.  0.
          5    1    3    3  501    0  0.21390557583E+00  0.56271309174E+02 -0.33352135055E+02  0.65581711662E+02  0.47000000000E+01 0. -1.
        -13    1    4    4    0    0 -0.19818743376E+02 -0.41762852686E+02 -0.34507934816E+02  0.57686359035E+02  0.00000000000E+00 0.  1.
         14    1    4    4    0    0  0.41897546076E+02 -0.36778974263E+02  0.18183964133E+02  0.58640889034E+02  0.00000000000E+00 0. -1.
         -5    1    5    5    0  503 -0.11023428025E+02  0.15570377558E+02  0.87890713983E+01  0.21524181721E+02  0.47000000000E+01 0.  1.
         11    1    6    6    0    0 -0.32275735703E+02  0.22277811892E+02 -0.11219780928E+03  0.11885441693E+03  0.00000000000E+00 0. -1.
        -12    1    6    6    0    0  0.21006455452E+02 -0.15577671676E+02 -0.28205013396E+03  0.28325997439E+03  0.00000000000E+00 0.  1.
</event>
<event>
12    1  0.9028446E-003  0.2235273E+03  0.7818608E-02  0.1131315E+00
         21   -1    0    0  501  502  0.00000000000E+00  0.00000000000E+00  0.24480714337E+03  0.24480714337E+03  0.00000000000E+00 0. -1.
         21   -1    0    0  502  503 -0.00000000000E+00 -0.00000000000E+00 -0.25963335124E+03  0.25963335124E+03  0.00000000000E+00 0. -1.
          6    2    1    2  501    0  0.14742415538E+01 -0.14394645034E+03  0.10942417698E+03  0.24870115816E+03  0.17075087587E+03 0.  0.
         24    2    3    3    0    0  0.20685661253E+02 -0.16286507956E+03  0.12058077408E+03  0.21914523089E+03  0.80820655914E+02 0.  0.
         -6    2    1    2    0  503 -0.14742415538E+01  0.14394645034E+03 -0.12425038485E+03  0.25573933645E+03  0.17100203543E+03 0.  0.
        -24    2    5    5    0    0 -0.50320527560E+02  0.59167943936E+02 -0.11040254688E+03  0.15680902046E+03  0.79795648116E+02 0.  0.
          5    1    3    3  501    0 -0.19211419699E+02  0.18918629216E+02 -0.11156597100E+02  0.29555927275E+02  0.47000000000E+01 0. -1.
        -13    1    4    4    0    0 -0.22471422564E+02 -0.84401272200E+02  0.31538415892E+02  0.92861247343E+02  0.00000000000E+00 0.  1.
         14    1    4    4    0    0  0.43157083817E+02 -0.78463807359E+02  0.89042358184E+02  0.12628398354E+03  0.00000000000E+00 0. -1.
         -5    1    5    5    0  503  0.48846286007E+02  0.84778506408E+02 -0.13847837972E+02  0.98930315990E+02  0.47000000000E+01 0.  1.
         11    1    6    6    0    0 -0.31583568517E+02  0.71949197723E+02 -0.52177555720E+02  0.94322352463E+02  0.00000000000E+00 0. -1.
        -12    1    6    6    0    0 -0.18736959044E+02 -0.12781253787E+02 -0.58224991157E+02  0.62486668001E+02  0.00000000000E+00 0.  1.
</event>
<event>
12    1  0.9028446E-003  0.2021061E+03  0.7818608E-02  0.1148191E+00
         21   -1    0    0  503  502  0.00000000000E+00  0.00000000000E+00  0.40797395828E+02  0.40797395828E+02  0.00000000000E+00 0.  1.
         21   -1    0    0  501  503 -0.00000000000E+00 -0.00000000000E+00 -0.11160487776E+04  0.11160487776E+04  0.00000000000E+00 0.  1.
          6    2    1    2  501    0 -0.29647109320E+02  0.10369003000E+03 -0.72850100497E+03  0.75601625382E+03  0.17092772855E+03 0.  0.
         24    2    3    3    0    0  0.53386705881E+01  0.12336562280E+03 -0.41554081808E+03  0.44045753928E+03  0.77981370354E+02 0.  0.
         -6    2    1    2    0  502  0.29647109320E+02 -0.10369003000E+03 -0.34675037676E+03  0.40082991956E+03  0.16970040431E+03 0.  0.
        -24    2    5    5    0    0  0.12295421362E+02 -0.30972001524E+02 -0.29878337943E+03  0.31188097031E+03  0.82992707824E+02 0.  0.
          5    1    3    3  501    0 -0.34985779908E+02 -0.19675592796E+02 -0.31296018688E+03  0.31555871454E+03  0.47000000000E+01 0. -1.
        -11    1    4    4    0    0 -0.35118694912E+02  0.47252163891E+02 -0.19407570788E+03  0.20280894979E+03  0.00000000000E+00 0.  1.
         12    1    4    4    0    0  0.40457365501E+02  0.76113458904E+02 -0.22146511020E+03  0.23764858949E+03  0.00000000000E+00 0. -1.
         -5    1    5    5    0  502  0.17351687958E+02 -0.72718028474E+02 -0.47966997321E+02  0.88948949247E+02  0.47000000000E+01 0.  1.
         11    1    6    6    0    0 -0.29791187133E+01 -0.58161995876E+02 -0.19655587257E+03  0.20500220476E+03  0.00000000000E+00 0. -1.
        -12    1    6    6    0    0  0.15274540075E+02  0.27189994352E+02 -0.10222750686E+03  0.10687876555E+03  0.00000000000E+00 0.  1.
</event>
<event>
12    1  0.9028446E-003  0.1961642E+03  0.7818608E-02  0.1153127E+00
         21   -1    0    0  503  502  0.00000000000E+00  0.00000000000E+00  0.62819093451E+03  0.62819093451E+03  0.00000000000E+00 0.  1.
         21   -1    0    0  501  503 -0.00000000000E+00 -0.00000000000E+00 -0.62672804023E+02  0.62672804023E+02  0.00000000000E+00 0. -1.
          6    2    1    2  501    0  0.14441992863E+02 -0.92404107931E+02  0.22761150790E+03  0.30014483001E+03  0.17185118601E+03 0.  0.
         24    2    3    3    0    0  0.39082833064E+00 -0.29880252421E+02  0.21989993491E+03  0.23542832446E+03  0.78597279562E+02 0.  0.
         -6    2    1    2    0  502 -0.14441992863E+02  0.92404107931E+02  0.33790662258E+03  0.39071890852E+03  0.17243343518E+03 0.  0.
        -24    2    5    5    0    0  0.31821673810E+02 -0.48649400887E+01  0.11768260830E+03  0.14552041541E+03  0.79313986395E+02 0.  0.
          5    1    3    3  501    0  0.14051164533E+02 -0.62523855510E+02  0.77115729908E+01  0.64716505550E+02  0.47000000000E+01 0. -1.
        -13    1    4    4    0    0  0.27661784609E+02  0.12611678330E+02  0.11588912847E+03  0.11981034536E+03  0.00000000000E+00 0.  1.
         14    1    4    4    0    0 -0.27270956278E+02 -0.42491930751E+02  0.10401080644E+03  0.11561797910E+03  0.00000000000E+00 0. -1.
         -5    1    5    5    0  502 -0.46263666673E+02  0.97269048020E+02  0.22022401428E+03  0.24519849311E+03  0.47000000000E+01 0.  1.
         13    1    6    6    0    0  0.40186038676E+02 -0.77890239045E+01  0.16796609133E+02  0.44246047012E+02  0.00000000000E+00 0. -1.
        -14    1    6    6    0    0 -0.83643648657E+01  0.29240838158E+01  0.10088599917E+03  0.10127436840E+03  0.00000000000E+00 0.  1.
</event>
<event>
12    1  0.9028446E-003  0.1895605E+03  0.7818608E-02  0.1159121E+00
         21   -1    0    0  501  502  0.00000000000E+00  0.00000000000E+00  0.10767817689E+03  0.10767817689E+03  0.00000000000E+00 0.  1.
         21   -1    0    0  502  503 -0.00000000000E+00 -0.00000000000E+00 -0.40896446586E+03  0.40896446586E+03  0.00000000000E+00 0.  1.
          6    2    1    2  501    0 -0.42352345597E+02  0.64121006930E+02 -0.37966675112E+02  0.19218865294E+03  0.17201681660E+03 0.  0.
         24    2    3    3    0    0 -0.61571493761E+02  0.80380881242E+02  0.17782868438E+02  0.13083834101E+03  0.80933961688E+02 0.  0.
         -6    2    1    2    0  503  0.42352345597E+02 -0.64121006930E+02 -0.26331961385E+03  0.32445398980E+03  0.17328574018E+03 0.  0.
        -24    2    5    5    0    0  0.65346829765E+02 -0.69520278713E+00 -0.87153622306E+02  0.13575283583E+03  0.81008561808E+02 0.  0.
          5    1    3    3  501    0  0.19219148164E+02 -0.16259874312E+02 -0.55749543550E+02  0.61350311937E+02  0.47000000000E+01 0. -1.
        -13    1    4    4    0    0 -0.41177536294E+02 -0.46720058304E+01 -0.67929130693E+00  0.41447298710E+02  0.00000000000E+00 0.  1.
         14    1    4    4    0    0 -0.20393957467E+02  0.85052887072E+02  0.18462159745E+02  0.89391042297E+02  0.00000000000E+00 0. -1.
         -5    1    5    5    0  503 -0.22994484168E+02 -0.63425804143E+02 -0.17616599155E+03  0.18870115397E+03  0.47000000000E+01 0.  1.
         11    1    6    6    0    0  0.69473036894E+00 -0.66797539131E+01  0.14015219222E+02  0.15541175389E+02  0.00000000000E+00 0. -1.
        -12    1    6    6    0    0  0.64652099396E+02  0.59845511260E+01 -0.10116884153E+03  0.12021166044E+03  0.00000000000E+00 0.  1.
</event>
<event>
12    1  0.9028446E-003  0.1733119E+03  0.7818608E-02  0.1174543E+00
         21   -1    0    0  503  502  0.00000000000E+00  0.00000000000E+00  0.13207370349E+03  0.13207370349E+03  0.00000000000E+00 0.  1.
         21   -1    0    0  501  503 -0.00000000000E+00 -0.00000000000E+00 -0.26258584393E+03  0.26258584393E+03  0.00000000000E+00 0.  1.
          6    2    1    2  501    0 -0.17131960393E+02  0.13166964254E+02 -0.13808497902E+03  0.22159532130E+03  0.17195973941E+03 0.  0.
         24    2    3    3    0    0 -0.71098251774E+01 -0.38047339460E+02 -0.23126917676E+02  0.95259285403E+02  0.83912618123E+02 0.  0.
         -6    2    1    2    0  502  0.17131960393E+02 -0.13166964254E+02  0.75728385774E+01  0.17306422612E+03  0.17154301345E+03 0.  0.
        -24    2    5    5    0    0 -0.50197464108E+02  0.17465204091E+02 -0.71794155615E+01  0.97491081790E+02  0.81413440315E+02 0.  0.
          5    1    3    3  501    0 -0.10022135216E+02  0.51214303714E+02 -0.11495806134E+03  0.12633603590E+03  0.47000000000E+01 0. -1.
        -11    1    4    4    0    0  0.17430991277E+02  0.20773679388E+02 -0.15050340695E+02  0.31014479961E+02  0.00000000000E+00 0.  1.
         12    1    4    4    0    0 -0.24540816455E+02 -0.58821018848E+02 -0.80765769807E+01  0.64244805442E+02  0.00000000000E+00 0. -1.
         -5    1    5    5    0  502  0.67329424501E+02 -0.30632168345E+02  0.14752254139E+02  0.75573144326E+02  0.47000000000E+01 0.  1.
         11    1    6    6    0    0  0.28466213161E+01  0.37413921720E+02  0.89391887785E+01  0.38572190597E+02  0.00000000000E+00 0. -1.
        -12    1    6    6    0    0 -0.53044085424E+02 -0.19948717629E+02 -0.16118604340E+02  0.58918891193E+02  0.00000000000E+00 0.  1.
</event>
<event>
12    1  0.9028446E-003  0.1936485E+03  0.7818608E-02  0.1155704E+00
         21   -1    0    0  501  502  0.00000000000E+00  0.00000000000E+00  0.18571938831E+03  0.18571938831E+03  0.00000000000E+00 0.  1.
         21   -1    0    0  502  503 -0.00000000000E+00 -0.00000000000E+00 -0.25335964778E+03  0.25335964778E+03  0.00000000000E+00 0. -1.
          6    2    1    2  501    0  0.36283193719E+02 -0.82324762091E+02  0.67151644080E+02  0.20496114384E+03  0.17148145842E+03 0.  0.
         24    2    3    3    0    0  0.62161806977E+01  0.96648787623E+01  0.70998312733E+02  0.10799204486E+03  0.80557250194E+02 0.  0.
         -6    2    1    2    0  503 -0.36283193719E+02  0.82324762091E+02 -0.13479190355E+03  0.23411789226E+03  0.16896299480E+03 0.  0.
        -24    2    5    5    0    0 -0.72598881266E+02  0.61259851865E+02 -0.40033156279E+02  0.13036882098E+03  0.79812335332E+02 0.  0.
          5    1    3    3  501    0  0.30067013021E+02 -0.91989640853E+02 -0.38466686535E+01  0.96969098975E+02  0.47000000000E+01 0. -1.
        -11    1    4    4    0    0  0.33360930913E+01 -0.31094307985E+02  0.56606936849E+02  0.64670942513E+02  0.00000000000E+00 0.  1.
         12    1    4    4    0    0  0.28800876064E+01  0.40759186747E+02  0.14391375885E+02  0.43321102350E+02  0.00000000000E+00 0. -1.
         -5    1    5    5    0  503  0.36315687548E+02  0.21064910226E+02 -0.94758747275E+02  0.10374907127E+03  0.47000000000E+01 0.  1.
         11    1    6    6    0    0 -0.38648220805E+02  0.41742342626E+02 -0.63069707092E+02  0.84934657779E+02  0.00000000000E+00 0. -1.
        -12    1    6    6    0    0 -0.33950660461E+02  0.19517509239E+02  0.23036550814E+02  0.45434163204E+02  0.00000000000E+00 0.  1.
</event>
<event>
12    1  0.9028446E-003  0.2496871E+03  0.7818608E-02  0.1113601E+00
         21   -1    0    0  503  502  0.00000000000E+00  0.00000000000E+00  0.38552488357E+03  0.38552488357E+03  0.00000000000E+00 0.  1.
         21   -1    0    0  501  503 -0.00000000000E+00 -0.00000000000E+00 -0.16165215889E+03  0.16165215889E+03  0.00000000000E+00 0. -1.
          6    2    1    2  501    0  0.14568099405E+03  0.10670066028E+03  0.12440987716E+03  0.27840852154E+03  0.17153863821E+03 0.  0.
         24    2    3    3    0    0  0.28607192990E+02 -0.32314613771E+01  0.28518866259E+02  0.91302876944E+02  0.81817331734E+02 0.  0.
         -6    2    1    2    0  502 -0.14568099405E+03 -0.10670066028E+03  0.99462847522E+02  0.26876852092E+03  0.17244035743E+03 0.  0.
        -24    2    5    5    0    0 -0.11300841366E+03 -0.90324831489E+02  0.13829680534E+03  0.21523505889E+03  0.79187419874E+02 0.  0.
          5    1    3    3  501    0  0.11707380106E+03  0.10993212166E+03  0.95891010897E+02  0.18710564459E+03  0.47000000000E+01 0. -1.
        -11    1    4    4    0    0  0.14003912938E+02 -0.65198483199E-01  0.57239467359E+02  0.58927671361E+02  0.00000000000E+00 0.  1.
         12    1    4    4    0    0  0.14603280051E+02 -0.31662628939E+01 -0.28720601100E+02  0.32375205583E+02  0.00000000000E+00 0. -1.
         -5    1    5    5    0  502 -0.32672580396E+02 -0.16375828791E+02 -0.38833957813E+02  0.53533462037E+02  0.47000000000E+01 0.  1.
         11    1    6    6    0    0 -0.11336838287E+02 -0.42961053634E+02  0.11394133943E+02  0.45869405054E+02  0.00000000000E+00 0. -1.
        -12    1    6    6    0    0 -0.10167157537E+03 -0.47363777854E+02  0.12690267139E+03  0.16936565383E+03  0.00000000000E+00 0.  1.
</event>
<event>
12    1  0.9028446E-003  0.1870038E+03  0.7818608E-02  0.1161445E+00
         21   -1    0    0  503  502  0.00000000000E+00  0.00000000000E+00  0.29210638036E+02  0.29210638036E+02  0.00000000000E+00 0. -1.
         21   -1    0    0  501  503 -0.00000000000E+00 -0.00000000000E+00 -0.11946879830E+04  0.11946879830E+04  0.00000000000E+00 0.  1.
          6    2    1    2  501    0  0.65195930340E+02  0.27058186346E+02 -0.61868705002E+03  0.64601451769E+03  0.17198382606E+03 0.  0.
         24    2    3    3    0    0  0.38973081174E+02  0.39973224906E+02 -0.60230794684E+03  0.61217960879E+03  0.94192626179E+02 0.  0.
         -6    2    1    2    0  502 -0.65195930340E+02 -0.27058186346E+02 -0.54679029491E+03  0.57788410331E+03  0.17316973023E+03 0.  0.
        -24    2    5    5    0    0 -0.51679818251E+01 -0.55926919975E+01 -0.47428384776E+03  0.48122285498E+03  0.81069610013E+02 0.  0.
          5    1    3    3  501    0  0.26222849167E+02 -0.12915038560E+02 -0.16379103181E+02  0.33834908902E+02  0.47000000000E+01 0. -1.
        -13    1    4    4    0    0  0.41997370632E+02  0.50392303692E+01 -0.99076650303E+02  0.10772815611E+03  0.00000000000E+00 0.  1.
         14    1    4    4    0    0 -0.30242894584E+01  0.34933994537E+02 -0.50323129654E+03  0.50445145269E+03  0.00000000000E+00 0. -1.
         -5    1    5    5    0  502 -0.60027948515E+02 -0.21465494348E+02 -0.72506447148E+02  0.96661248329E+02  0.47000000000E+01 0.  1.
         13    1    6    6    0    0 -0.11190794751E+02 -0.14591279835E+02 -0.21423450665E+02  0.28233022735E+02  0.00000000000E+00 0. -1.
        -14    1    6    6    0    0  0.60228129258E+01  0.89985878374E+01 -0.45286039709E+03  0.45298983224E+03  0.00000000000E+00 0.  1.
</event>
<event>
12    1  0.9028446E-003  0.1989888E+03  0.7818608E-02  0.1151078E+00
         21   -1    0    0  503  502  0.00000000000E+00  0.00000000000E+00  0.92928603661E+02  0.92928603661E+02  0.00000000000E+00 0.  1.
         21   -1    0    0  501  503 -0.00000000000E+00 -0.00000000000E+00 -0.43612626757E+03  0.43612626757E+03  0.00000000000E+00 0.  1.
          6    2    1    2  501    0 -0.16976091890E+02  0.96806466900E+02 -0.22136314724E+03  0.29765448852E+03  0.17302274952E+03 0.  0.
         24    2    3    3    0    0  0.45492531816E+02  0.98297035065E+02 -0.15847417571E+03  0.20887575525E+03  0.82359815507E+02 0.  0.
         -6    2    1    2    0  502  0.16976091890E+02 -0.96806466900E+02 -0.12183451666E+03  0.23140038270E+03  0.17041950574E+03 0.  0.
        -24    2    5    5    0    0 -0.34192072079E+02 -0.21861934078E+02 -0.10947312884E+03  0.13969565048E+03  0.76703760459E+02 0.  0.
          5    1    3    3  501    0 -0.62468623706E+02 -0.14905681651E+01 -0.62888971532E+02  0.88778733273E+02  0.47000000000E+01 0. -1.
        -13    1    4    4    0    0  0.21929113679E+02  0.10796028916E+03 -0.12185361011E+03  0.16426993748E+03  0.00000000000E+00 0.  1.
         14    1    4    4    0    0  0.23563418137E+02 -0.96632540968E+01 -0.36620565602E+02  0.44605817771E+02  0.00000000000E+00 0. -1.
         -5    1    5    5    0  502  0.51168163969E+02 -0.74944532822E+02 -0.12361387817E+02  0.91704732226E+02  0.47000000000E+01 0.  1.
         13    1    6    6    0    0  0.78080941223E+01  0.18353100339E+02 -0.60398136420E+02  0.63606112197E+02  0.00000000000E+00 0. -1.
        -14    1    6    6    0    0 -0.42000166202E+02 -0.40215034417E+02 -0.49074992425E+02  0.76089538280E+02  0.00000000000E+00 0.  1.
</event>
<event>
12    1  0.9028446E-003  0.1769364E+03  0.7818608E-02  0.1170961E+00
         21   -1    0    0  501  502  0.00000000000E+00  0.00000000000E+00  0.40013320419E+03  0.40013320419E+03  0.00000000000E+00 0. -1.
         21   -1    0    0  502  503 -0.00000000000E+00 -0.00000000000E+00 -0.81330675363E+02  0.81330675363E+02  0.00000000000E+00 0. -1.
          6    2    1    2  501    0  0.21819261039E+02 -0.33309489310E+02  0.20871572451E+03  0.27362153053E+03  0.17239746541E+03 0.  0.
         24    2    3    3    0    0  0.19687300448E+02  0.23788828641E+02  0.29330142022E+02  0.85297234764E+02  0.73904417056E+02 0.  0.
         -6    2    1    2    0  503 -0.21819261039E+02  0.33309489310E+02  0.11008680431E+03  0.20784234903E+03  0.17173740226E+03 0.  0.
        -24    2    5    5    0    0  0.53282379677E+02  0.21856451751E+02  0.54278120760E+02  0.11345947098E+03  0.81303263745E+02 0.  0.
          5    1    3    3  501    0  0.21319605914E+01 -0.57098317950E+02  0.17938558249E+03  0.18832429576E+03  0.47000000000E+01 0. -1.
        -13    1    4    4    0    0  0.40820062185E+02  0.36644016945E+02  0.15712326332E+02  0.57060832919E+02  0.00000000000E+00 0.  1.
         14    1    4    4    0    0 -0.21132761738E+02 -0.12855188304E+02  0.13617815690E+02  0.28236401845E+02  0.00000000000E+00 0. -1.
         -5    1    5    5    0  503 -0.75101640716E+02  0.11453037559E+02  0.55808683554E+02  0.94382878042E+02  0.47000000000E+01 0.  1.
         13    1    6    6    0    0  0.32840829657E+02  0.48415950370E+02  0.12367693238E+02  0.59796188665E+02  0.00000000000E+00 0. -1.
        -14    1    6    6    0    0  0.20441550019E+02 -0.26559498619E+02  0.41910427522E+02  0.53663282319E+02  0.00000000000E+00 0.  1.
</event>
<event>
12    1  0.9028446E-003  0.2171408E+03  0.7818608E-02  0.1136184E+00
         21   -1    0    0  503  502  0.00000000000E+00  0.00000000000E+00  0.52344949729E+03  0.52344949729E+03  0.00000000000E+00 0. -1.
         21   -1    0    0  501  503 -0.00000000000E+00 -0.00000000000E+00 -0.94282051847E+02  0.94282051847E+02  0.00000000000E+00 0.  1.
          6    2    1    2  501    0 -0.12725161406E+03  0.33655924429E+02  0.14720658967E+03  0.26233551871E+03  0.17269756745E+03 0.  0.
         24    2    3    3    0    0 -0.15147278084E+03  0.16482053853E+02  0.87240146789E+02  0.19525593148E+03  0.85430522253E+02 0.  0.
         -6    2    1    2    0  502  0.12725161406E+03 -0.33655924429E+02  0.28196085577E+03  0.35539603043E+03  0.17169367993E+03 0.  0.
        -24    2    5    5    0    0  0.62855497018E+02 -0.47705941197E+02  0.68704787002E+02  0.13213720366E+03  0.80704538311E+02 0.  0.
          5    1    3    3  501    0  0.24221166779E+02  0.17173870577E+02  0.59966442878E+02  0.67079587224E+02  0.47000000000E+01 0. -1.
        -13    1    4    4    0    0 -0.10175389409E+03  0.23134037308E+02  0.12294372557E+02  0.10507230958E+03  0.00000000000E+00 0.  1.
         14    1    4    4    0    0 -0.49718886752E+02 -0.66519834551E+01  0.74945774232E+02  0.90183621900E+02  0.00000000000E+00 0. -1.
         -5    1    5    5    0  502  0.64396117043E+02  0.14050016768E+02  0.21325606877E+03  0.22325882677E+03  0.47000000000E+01 0.  1.
         13    1    6    6    0    0  0.43546594898E+02 -0.12835763412E+01  0.69299440437E+02  0.81855763025E+02  0.00000000000E+00 0. -1.
        -14    1    6    6    0    0  0.19308902120E+02 -0.46422364856E+02 -0.59465343519E+00  0.50281440638E+02  0.00000000000E+00 0.  1.
</event>
<event>
12    1  0.9028446E-003  0.2763183E+03  0.7818608E-02  0.1097816E+00
         21   -1    0    0  503  502  0.00000000000E+00  0.00000000000E+00  0.39048166808E+03  0.39048166808E+03  0.00000000000E+00 0. -1.
         21   -1    0    0  501  503 -0.00000000000E+00 -0.00000000000E+00 -0.20696452239E+03  0.20696452239E+03  0.00000000000E+00 0. -1.
          6    2    1    2  501    0  0.20673702205E+03 -0.61754015332E+02  0.19908931241E+02  0.27632402765E+03  0.17147841851E+03 0.  0.
         24    2    3    3    0    0  0.22864482422E+03 -0.63520688520E+02  0.73540446648E+01  0.25057935622E+03  0.80141114808E+02 0.  0.
         -6    2    1    2    0  502 -0.20673702205E+03  0.61754015332E+02  0.16360821445E+03  0.32112216282E+03  0.17262109060E+03 0.  0.
        -24    2    5    5    0    0 -0.12032342505E+03 -0.28532232180E+02  0.10844676277E+03  0.18443349471E+03  0.83445783167E+02 0.  0.
          5    1    3    3  501    0 -0.21907802161E+02  0.17666731881E+01  0.12554886577E+02  0.25744671422E+02  0.47000000000E+01 0. -1.
        -11    1    4    4    0    0  0.40761934080E+02 -0.43985048678E+02 -0.10352415513E+02  0.60855503319E+02  0.00000000000E+00 0.  1.
         12    1    4    4    0    0  0.18788289014E+03 -0.19535639841E+02  0.17706460178E+02  0.18972385291E+03  0.00000000000E+00 0. -1.
         -5    1    5    5    0  502 -0.86413597002E+02  0.90286247511E+02  0.55161451679E+02  0.13668866810E+03  0.47000000000E+01 0.  1.
         13    1    6    6    0    0 -0.87793537681E+02  0.16254444269E+02  0.88170736676E+02  0.12548303082E+03  0.00000000000E+00 0. -1.
        -14    1    6    6    0    0 -0.32529887372E+02 -0.44786676448E+02  0.20276026092E+02  0.58950463898E+02  0.00000000000E+00 0.  1.
</event>
<event>
12    1  0.9028446E-003  0.1727317E+03  0.7818608E-02  0.1175791E+00
         21   -1    0    0  503  502  0.00000000000E+00  0.00000000000E+00  0.20054427213E+03  0.20054427213E+03  0.00000000000E+00 0. -1.
         21   -1    0    0  501  503 -0.00000000000E+00 -0.00000000000E+00 -0.14751945836E+03  0.14751945836E+03  0.00000000000E+00 0. -1.
          6    2    1    2  501    0  0.51129394503E+01 -0.15041871767E+02  0.42956780870E+02  0.17799304268E+03  0.17199952955E+03 0.  0.
         24    2    3    3    0    0  0.33600578771E+02  0.13109430682E+02  0.83637056013E+02  0.12071288722E+03  0.79218608523E+02 0.  0.
         -6    2    1    2    0  502 -0.51129394503E+01  0.15041871767E+02  0.10068032903E+02  0.17007068781E+03  0.16902743419E+03 0.  0.
        -24    2    5    5    0    0  0.17369733193E+02  0.68587557528E+02  0.26353080336E+02  0.10957354901E+03  0.79409804938E+02 0.  0.
          5    1    3    3  501    0 -0.28487639321E+02 -0.28151302450E+02 -0.40680275143E+02  0.57280155459E+02  0.47000000000E+01 0. -1.
        -11    1    4    4    0    0  0.26800079503E+02 -0.26217133067E+02  0.13185378571E+02  0.39742125455E+02  0.00000000000E+00 0.  1.
         12    1    4    4    0    0  0.68004992678E+01  0.39326563750E+02  0.70451677442E+02  0.80970761766E+02  0.00000000000E+00 0. -1.
         -5    1    5    5    0  502 -0.22482672643E+02 -0.53545685760E+02 -0.16285047433E+02  0.60497138797E+02  0.47000000000E+01 0.  1.
         13    1    6    6    0    0  0.18510979988E+02  0.36048341990E+02  0.53546647334E+02  0.67151938029E+02  0.00000000000E+00 0. -1.
        -14    1    6    6    0    0 -0.11412467946E+01  0.32539215538E+02 -0.27193566998E+02  0.42421610980E+02  0.00000000000E+00 0.  1.
</event>
<event>
12    1  0.9028446E-003  0.2364058E+03  0.7818608E-02  0.1122230E+00
         21   -1    0    0  503  502  0.00000000000E+00  0.00000000000E+00  0.30790908469E+03  0.30790908469E+03  0.00000000000E+00 0. -1.
         21   -1    0    0  501  503 -0.00000000000E+00 -0.00000000000E+00 -0.22280257461E+03  0.22280257461E+03  0.00000000000E+00 0. -1.
          6    2    1    2  501    0 -0.99411871631E+02  0.12866910871E+03  0.15690689083E+03  0.28364282413E+03  0.17144975804E+03 0.  0.
         24    2    3    3    0    0 -0.77955422165E+02  0.13820650223E+03  0.17841998234E+03  0.25145207692E+03  0.78843971146E+02 0.  0.
         -6    2    1    2    0  502  0.99411871631E+02 -0.12866910871E+03 -0.71800380750E+02  0.24706883517E+03  0.17160785204E+03 0.  0.
        -24    2    5    5    0    0  0.32203892444E+02 -0.23946584316E+02 -0.82318167273E+02  0.12210310621E+03  0.80761118709E+02 0.  0.
          5    1    3    3  501    0 -0.21456449466E+02 -0.95373935226E+01 -0.21513091516E+02  0.32190747203E+02  0.47000000000E+01 0. -1.
        -11    1    4    4    0    0 -0.30327645544E+01 -0.10141829625E+02  0.69806415431E+01  0.12680052261E+02  0.00000000000E+00 0.  1.
         12    1    4    4    0    0 -0.74922657611E+02  0.14834833185E+03  0.17143934080E+03  0.23877202466E+03  0.00000000000E+00 0. -1.
         -5    1    5    5    0  502  0.67207979187E+02 -0.10472252439E+03  0.10517786523E+02  0.12496572896E+03  0.47000000000E+01 0.  1.
         13    1    6    6    0    0  0.55896947583E+02 -0.18679749802E+02 -0.77491016834E+02  0.97356353115E+02  0.00000000000E+00 0. -1.
        -14    1    6    6    0    0 -0.23693055139E+02 -0.52668345138E+01 -0.48271504386E+01  0.24746753100E+02  0.00000000000E+00 0.  1.
</event>
<event>
12    1  0.9028446E-003  0.2140251E+03  0.7818608E-02  0.1138930E+00
         21   -1    0    0  503  502  0.00000000000E+00  0.00000000000E+00  0.67020593387E+02  0.67020593387E+02  0.00000000000E+00 0.  1.
         21   -1    0    0  501  503 -0.00000000000E+00 -0.00000000000E+00 -0.75359196699E+03  0.75359196699E+03  0.00000000000E+00 0. -1.
          6    2    1    2  501    0  0.12451294599E+03  0.52996078118E+01 -0.47762862837E+03  0.52338879551E+03  0.17399760074E+03 0.  0.
         24    2    3    3    0    0  0.28853605691E+02  0.60180813645E+02 -0.24412919713E+03  0.26511233407E+03  0.78938101677E+02 0.  0.
         -6    2    1    2    0  502 -0.12451294599E+03 -0.52996078118E+01 -0.20894274524E+03  0.29722376487E+03  0.17074348027E+03 0.  0.
        -24    2    5    5    0    0 -0.22434189105E+02  0.41698090597E+02 -0.12175720053E+03  0.15491331034E+03  0.83254394718E+02 0.  0.
          5    1    3    3  501    0  0.95659340299E+02 -0.54881205833E+02 -0.23349943124E+03  0.25827646143E+03  0.47000000000E+01 0. -1.
        -11    1    4    4    0    0 -0.14999910214E+02  0.45462671133E+02 -0.69028973499E+02  0.84005065058E+02  0.00000000000E+00 0.  1.
         12    1    4    4    0    0  0.43853515905E+02  0.14718142512E+02 -0.17510022363E+03  0.18110726902E+03  0.00000000000E+00 0. -1.
         -5    1    5    5    0  502 -0.10207875688E+03 -0.46997698409E+02 -0.87185544706E+02  0.14231045453E+03  0.47000000000E+01 0.  1.
         13    1    6    6    0    0  0.23961312686E+02  0.33407938106E+02 -0.27300531775E+02  0.49351330978E+02  0.00000000000E+00 0. -1.
        -14    1    6    6    0    0 -0.46395501792E+02  0.82901524914E+01 -0.94456668756E+02  0.10556197936E+03  0.00000000000E+00 0.  1.
</event>
<event>
12    1  0.9028446E-003  0.1738538E+03  0.7818608E-02  0.1176363E+00
         21   -1    0    0  501  502  0.00000000000E+00  0.00000000000E+00  0.15291376705E+04  0.15291376705E+04  0.00000000000E+00 0. -1.
         21   -1    0    0  502  503 -0.00000000000E+00 -0.00000000000E+00 -0.30907609887E+02  0.30907609887E+02  0.00000000000E+00 0. -1.
          6    2    1    2  501    0  0.14420535476E+02 -0.13200630216E+02  0.12518950680E+04  0.12639091798E+04  0.17275110715E+03 0.  0.
         24    2    3    3    0    0  0.41670922616E+02 -0.46198832412E+02  0.46734458922E+03  0.47817830431E+03  0.79829366340E+02 0.  0.
         -6    2    1    2    0  503 -0.14420535476E+02  0.13200630216E+02  0.24633499254E+03  0.29613610052E+03  0.16319758882E+03 0.  0.
        -24    2    5    5    0    0  0.48655320696E+02  0.28844732179E+02  0.16675315780E+03  0.19328348762E+03  0.79702773757E+02 0.  0.
          5    1    3    3  501    0 -0.27250387140E+02  0.32998202196E+02  0.78455047883E+03  0.78573087554E+03  0.47000000000E+01 0. -1.
        -13    1    4    4    0    0 -0.65927042233E+01  0.92089658361E+01  0.10441826931E+02  0.15404562649E+02  0.00000000000E+00 0.  1.
         14    1    4    4    0    0  0.48263626840E+02 -0.55407798248E+02  0.45690276229E+03  0.46277374166E+03  0.00000000000E+00 0. -1.
         -5    1    5    5    0  503 -0.63075856173E+02 -0.15644101963E+02  0.79581834746E+02  0.10285261290E+03  0.47000000000E+01 0.  1.
         13    1    6    6    0    0  0.23122226899E+01 -0.11984809435E+02 -0.30628677847E+01  0.12584243721E+02  0.00000000000E+00 0. -1.
        -14    1    6    6    0    0  0.46343098007E+02  0.40829541614E+02  0.16981602558E+03  0.18069924390E+03  0.00000000000E+00 0.  1.
</event>
<event>
12    1  0.9028446E-003  0.2126840E+03  0.7818608E-02  0.1139640E+00
         21   -1    0    0  503  502  0.00000000000E+00  0.00000000000E+00  0.57566984485E+02  0.57566984485E+02  0.00000000000E+00 0.  1.
         21   -1    0    0  501  503 -0.00000000000E+00 -0.00000000000E+00 -0.13756095361E+04  0.13756095361E+04  0.00000000000E+00 0.  1.
          6    2    1    2  501    0 -0.10442962276E+03  0.66543513020E+02 -0.11304459187E+04  0.11502792892E+04  0.17291871799E+03 0.  0.
         24    2    3    3    0    0 -0.45804476431E+02  0.89868868917E+02 -0.48741788889E+03  0.50414608544E+03  0.80078794847E+02 0.  0.
         -6    2    1    2    0  502  0.10442962276E+03 -0.66543513020E+02 -0.18759663295E+03  0.28289723132E+03  0.17176950126E+03 0.  0.
        -24    2    5    5    0    0  0.23934572772E+02  0.12867231044E+02 -0.30727585523E+02  0.89466346030E+02  0.79508572816E+02 0.  0.
          5    1    3    3  501    0 -0.58625146334E+02 -0.23325355897E+02 -0.64302802976E+03  0.64613320381E+03  0.47000000000E+01 0. -1.
        -11    1    4    4    0    0 -0.53238185482E+02  0.19521180888E+02 -0.18128148812E+03  0.18994304102E+03  0.00000000000E+00 0.  1.
         12    1    4    4    0    0  0.74337090510E+01  0.70347688029E+02 -0.30613640077E+03  0.31420304442E+03  0.00000000000E+00 0. -1.
         -5    1    5    5    0  502  0.80495049992E+02 -0.79410744064E+02 -0.15686904742E+03  0.19343088529E+03  0.47000000000E+01 0.  1.
         13    1    6    6    0    0  0.17297614943E+00  0.30839641144E+02 -0.46468050010E+02  0.55770897952E+02  0.00000000000E+00 0. -1.
        -14    1    6    6    0    0  0.23761596623E+02 -0.17972410100E+02  0.15740464487E+02  0.33695448078E+02  0.00000000000E+00 0.  1.
</event>
<event>
12    1  0.9028446E-003  0.2137555E+03  0.7818608E-02  0.1138929E+00
         21   -1    0    0  503  502  0.00000000000E+00  0.00000000000E+00  0.22511751449E+03  0.22511751449E+03  0.00000000000E+00 0.  1.
         21   -1    0    0  501  503 -0.00000000000E+00 -0.00000000000E+00 -0.26821146642E+03  0.26821146642E+03  0.00000000000E+00 0. -1.
          6    2    1    2  501    0 -0.12385740782E+03  0.10409263611E+02 -0.14463389525E+03  0.25808989034E+03  0.17390347207E+03 0.  0.
         24    2    3    3    0    0 -0.14339396397E+03 -0.19661579839E+02 -0.14806109160E+03  0.22176127452E+03  0.79420207793E+02 0.  0.
         -6    2    1    2    0  502  0.12385740782E+03 -0.10409263611E+02  0.10153994332E+03  0.23523909057E+03  0.17198272995E+03 0.  0.
        -24    2    5    5    0    0  0.14429153905E+03  0.29640120575E+01  0.41408411306E+02  0.17016767316E+03  0.80084623088E+02 0.  0.
          5    1    3    3  501    0  0.19536556153E+02  0.30070843449E+02  0.34271963564E+01  0.36328615814E+02  0.47000000000E+01 0. -1.
        -11    1    4    4    0    0 -0.49826167828E+02  0.65591575972E+01 -0.73979983819E+01  0.50797637040E+02  0.00000000000E+00 0.  1.
         12    1    4    4    0    0 -0.93567796147E+02 -0.26220737436E+02 -0.14066309322E+03  0.17096363748E+03  0.00000000000E+00 0. -1.
         -5    1    5    5    0  502 -0.20434131226E+02 -0.13373275668E+02  0.60131532010E+02  0.65071417403E+02  0.47000000000E+01 0.  1.
         11    1    6    6    0    0  0.56288022435E+02  0.39360277886E+02  0.75649468780E+01  0.69099937527E+02  0.00000000000E+00 0. -1.
        -12    1    6    6    0    0  0.88003516612E+02 -0.36396265829E+02  0.33843464428E+02  0.10106773564E+03  0.00000000000E+00 0.  1.
</event>
<event>
12    1  0.9028446E-003  0.1805170E+03  0.7818608E-02  0.1167712E+00
         21   -1    0    0  501  502  0.00000000000E+00  0.00000000000E+00  0.90323220203E+03  0.90323220203E+03  0.00000000000E+00 0. -1.
         21   -1    0    0  502  503 -0.00000000000E+00 -0.00000000000E+00 -0.36459678380E+02  0.36459678380E+02  0.00000000000E+00 0. -1.
          6    2    1    2  501    0  0.99385699571E+01  0.52309134459E+02  0.50130726106E+03  0.53281831528E+03  0.17248584400E+03 0.  0.
         24    2    3    3    0    0 -0.25615368606E+02  0.37920775293E+01  0.38953553430E+03  0.40580258293E+03  0.11075773954E+03 0.  0.
         -6    2    1    2    0  503 -0.99385699571E+01 -0.52309134459E+02  0.36546526259E+03  0.40687356514E+03  0.17072263800E+03 0.  0.
        -24    2    5    5    0    0 -0.60736740831E+02  0.29407211891E+01  0.17313845808E+03  0.20036765615E+03  0.80452920622E+02 0.  0.
          5    1    3    3  501    0  0.35553938563E+02  0.48517056930E+02  0.11177172676E+03  0.12701573235E+03  0.47000000000E+01 0. -1.
        -13    1    4    4    0    0 -0.30702964444E+02  0.27028761516E+01  0.21150386980E+02  0.37380696015E+02  0.00000000000E+00 0.  1.
         14    1    4    4    0    0  0.50875958373E+01  0.10892013777E+01  0.36838514732E+03  0.36842188691E+03  0.00000000000E+00 0. -1.
         -5    1    5    5    0  503  0.50798170874E+02 -0.55249855648E+02  0.19232680451E+03  0.20650590898E+03  0.47000000000E+01 0.  1.
         11    1    6    6    0    0  0.19310794876E+01 -0.10639930592E+02 -0.43465497511E+01  0.11654599338E+02  0.00000000000E+00 0. -1.
        -12    1    6    6    0    0 -0.62667820319E+02  0.13580651781E+02  0.17748500783E+03  0.18871305681E+03  0.00000000000E+00 0.  1.
</event>
<event>
12    1  0.9028446E-003  0.1812380E+03  0.7818608E-02  0.1166634E+00
         21   -1    0    0  503  502  0.00000000000E+00  0.00000000000E+00  0.15103144731E+04  0.15103144731E+04  0.00000000000E+00 0.  1.
         21   -1    0    0  501  503 -0.00000000000E+00 -0.00000000000E+00 -0.26636671230E+02  0.26636671230E+02  0.00000000000E+00 0.  1.
          6    2    1    2  501    0  0.44146750060E+02 -0.37345372532E+02  0.41208181090E+03  0.45013690449E+03  0.17166304644E+03 0.  0.
         24    2    3    3    0    0  0.67308499326E+02 -0.72813902801E+01  0.13838257861E+03  0.17377903972E+03  0.80411217242E+02 0.  0.
         -6    2    1    2    0  502 -0.44146750060E+02  0.37345372532E+02  0.10715959909E+04  0.10868142398E+04  0.17176615407E+03 0.  0.
        -24    2    5    5    0    0  0.23998683834E+01  0.71218514053E+02  0.46095537888E+03  0.47344809754E+03  0.81212090401E+02 0.  0.
          5    1    3    3  501    0 -0.23161749266E+02 -0.30063982252E+02  0.27369923229E+03  0.27635786476E+03  0.47000000000E+01 0. -1.
        -11    1    4    4    0    0 -0.27035644354E+01 -0.18126175982E+01 -0.95147202313E+01  0.10056079967E+02  0.00000000000E+00 0.  1.
         12    1    4    4    0    0  0.70012063762E+02 -0.54687726819E+01  0.14789729884E+03  0.16372295976E+03  0.00000000000E+00 0. -1.
         -5    1    5    5    0  502 -0.46546618444E+02 -0.33873141521E+02  0.61064061206E+03  0.61336614228E+03  0.47000000000E+01 0.  1.
         11    1    6    6    0    0  0.33920680960E+02  0.97802440393E+01  0.10268664640E+03  0.10858551063E+03  0.00000000000E+00 0. -1.
        -12    1    6    6    0    0 -0.31520812576E+02  0.61438270014E+02  0.35826873249E+03  0.36486258691E+03  0.00000000000E+00 0.  1.
</event>
<event>
12    1  0.9028446E-003  0.2700092E+03  0.7818608E-02  0.1101345E+00
         21   -1    0    0  501  502  0.00000000000E+00  0.00000000000E+00  0.11847584622E+04  0.11847584622E+04  0.00000000000E+00 0.  1.
         21   -1    0    0  502  503 -0.00000000000E+00 -0.00000000000E+00 -0.65157677851E+02  0.65157677851E+02  0.00000000000E+00 0. -1.
          6    2    1    2  501    0  0.20021942239E+03  0.53993322709E+02  0.70893052712E+03  0.75843364401E+03  0.17215110826E+03 0.  0.
         24    2    3    3    0    0  0.11446726768E+03  0.65385454244E+02  0.59833059887E+03  0.61794290827E+03  0.80473097012E+02 0.  0.
         -6    2    1    2    0  503 -0.20021942239E+03 -0.53993322709E+02  0.41067025721E+03  0.49148249603E+03  0.17292162313E+03 0.  0.
        -24    2    5    5    0    0 -0.62897548316E+02 -0.43516696730E+02  0.28217203707E+03  0.30306556640E+03  0.79861596253E+02 0.  0.
          5    1    3    3  501    0  0.85752154706E+02 -0.11392131534E+02  0.11059992825E+03  0.14049073573E+03  0.47000000000E+01 0. -1.
        -11    1    4    4    0    0  0.61073289374E+02  0.38896927105E+02  0.48018928382E+03  0.48561781877E+03  0.00000000000E+00 0.  1.
         12    1    4    4    0    0  0.53393978308E+02  0.26488527139E+02  0.11814131505E+03  0.13232508950E+03  0.00000000000E+00 0. -1.
         -5    1    5    5    0  503 -0.13732187407E+03 -0.10476625980E+02  0.12849822014E+03  0.18841692963E+03  0.47000000000E+01 0.  1.
         11    1    6    6    0    0 -0.67653004768E+02 -0.13990386794E+01  0.15881696719E+03  0.17263173355E+03  0.00000000000E+00 0. -1.
        -12    1    6    6    0    0  0.47554564515E+01 -0.42117658050E+02  0.12335506988E+03  0.13043383285E+03  0.00000000000E+00 0.  1.
</event>
<event>
12    1  0.9028446E-003  0.2344648E+03  0.7818608E-02  0.1123563E+00
         21   -1    0    0  503  502  0.00000000000E+00  0.00000000000E+00  0.54795640265E+02  0.54795640265E+02  0.00000000000E+00 0.  1.
         21   -1    0    0  501  503 -0.00000000000E+00 -0.00000000000E+00 -0.10205222262E+04  0.10205222262E+04  0.00000000000E+00 0.  1.
          6    2    1    2  501    0  0.15086448190E+03  0.50598647496E+02 -0.55433785002E+03  0.60188387484E+03  0.17220171833E+03 0.  0.
         24    2    3    3    0    0  0.16026202181E+03  0.58896417594E+02 -0.36102720707E+03  0.40811013714E+03  0.84026996532E+02 0.  0.
         -6    2    1    2    0  502 -0.15086448190E+03 -0.50598647496E+02 -0.41138873591E+03  0.47343399162E+03  0.17198470096E+03 0.  0.
        -24    2    5    5    0    0  0.21561373109E+01 -0.47999246442E+02 -0.18801988585E+03  0.20262446453E+03  0.58280524730E+02 0.  0.
          5    1    3    3  501    0 -0.93975399179E+01 -0.82977700977E+01 -0.19331064295E+03  0.19377373770E+03  0.47000000000E+01 0. -1.
        -13    1    4    4    0    0  0.37650701398E+02  0.56211064379E+02 -0.12915665776E+03  0.14580363959E+03  0.00000000000E+00 0.  1.
         14    1    4    4    0    0  0.12261132042E+03  0.26853532144E+01 -0.23187054931E+03  0.26230649754E+03  0.00000000000E+00 0. -1.
         -5    1    5    5    0  502 -0.15302061921E+03 -0.25994010534E+01 -0.22336885006E+03  0.27080952709E+03  0.47000000000E+01 0.  1.
         11    1    6    6    0    0 -0.23850628010E+02 -0.42329558292E+02 -0.13026687756E+03  0.13903274201E+03  0.00000000000E+00 0. -1.
        -12    1    6    6    0    0  0.26006765321E+02 -0.56696881501E+01 -0.57753008294E+02  0.63591722521E+02  0.00000000000E+00 0.  1.
</event>
<event>
12    1  0.9028446E-003  0.1779139E+03  0.7818608E-02  0.1170370E+00
         21   -1    0    0  503  502  0.00000000000E+00  0.00000000000E+00  0.28549823960E+02  0.28549823960E+02  0.00000000000E+00 0. -1.
         21   -1    0    0  501  503 -0.00000000000E+00 -0.00000000000E+00 -0.11602416887E+04  0.11602416887E+04  0.00000000000E+00 0. -1.
          6    2    1    2  501    0 -0.37139883205E+02 -0.23101057214E+02 -0.42850526649E+03  0.46397210415E+03  0.17245382062E+03 0.  0.
         24    2    3    3    0    0 -0.19831161651E+02  0.50195327265E+02 -0.17830933344E+03  0.20264463385E+03  0.79735709579E+02 0.  0.
         -6    2    1    2    0  502  0.37139883205E+02  0.23101057214E+02 -0.70318659825E+03  0.72481940851E+03  0.17023146958E+03 0.  0.
        -24    2    5    5    0    0  0.12636911555E+02  0.26569486946E+01 -0.68083584043E+03  0.68557652931E+03  0.79441708334E+02 0.  0.
          5    1    3    3  501    0 -0.17308721554E+02 -0.73296384479E+02 -0.25019593305E+03  0.26132747030E+03  0.47000000000E+01 0. -1.
        -13    1    4    4    0    0 -0.14799788239E+01  0.13256934295E+02 -0.15438967111E+03  0.15496485792E+03  0.00000000000E+00 0.  1.
         14    1    4    4    0    0 -0.18351182827E+02  0.36938392970E+02 -0.23919662333E+02  0.47679775928E+02  0.00000000000E+00 0. -1.
         -5    1    5    5    0  502  0.24502971650E+02  0.20444108520E+02 -0.22350757820E+02  0.39242879201E+02  0.47000000000E+01 0.  1.
         11    1    6    6    0    0 -0.25493175619E+02 -0.14236937002E+02 -0.13359030564E+03  0.13674414847E+03  0.00000000000E+00 0. -1.
        -12    1    6    6    0    0  0.38130087174E+02  0.16893885697E+02 -0.54724553479E+03  0.54883238085E+03  0.00000000000E+00 0.  1.
</event>
<event>
12    1  0.9028446E-003  0.1913081E+03  0.7818608E-02  0.1157603E+00
         21   -1    0    0  501  502  0.00000000000E+00  0.00000000000E+00  0.12375886757E+04  0.12375886757E+04  0.00000000000E+00 0.  1.
         21   -1    0    0  502  503 -0.00000000000E+00 -0.00000000000E+00 -0.29452795860E+02  0.29452795860E+02  0.00000000000E+00 0.  1.
          6    2    1    2  501    0 -0.14185421310E+02  0.81097095655E+02  0.56984877618E+03  0.60110434159E+03  0.17268710622E+03 0.  0.
         24    2    3    3    0    0 -0.56296182020E+02  0.97292609157E+02  0.34394222038E+03  0.37068847238E+03  0.80489630962E+02 0.  0.
         -6    2    1    2    0  503  0.14185421310E+02 -0.81097095655E+02  0.63828710368E+03  0.66593713000E+03  0.17112530287E+03 0.  0.
        -24    2    5    5    0    0 -0.33286434760E+02 -0.36108849501E+02  0.18485531370E+03  0.20778868508E+03  0.81196150738E+02 0.  0.
          5    1    3    3  501    0  0.42110760710E+02 -0.16195513503E+02  0.22590655581E+03  0.23041586921E+03  0.47000000000E+01 0. -1.
        -13    1    4    4    0    0 -0.54992891653E+01  0.85736301941E+02  0.20326898859E+03  0.22067903701E+03  0.00000000000E+00 0.  1.
         14    1    4    4    0    0 -0.50796892855E+02  0.11556307216E+02  0.14067323178E+03  0.15000943537E+03  0.00000000000E+00 0. -1.
         -5    1    5    5    0  503  0.47471856070E+02 -0.44988246154E+02  0.45343178998E+03  0.45814844491E+03  0.47000000000E+01 0.  1.
         11    1    6    6    0    0 -0.20117741320E+02 -0.55509894396E+02  0.17016900599E+03  0.18012096628E+03  0.00000000000E+00 0. -1.
        -12    1    6    6    0    0 -0.13168693440E+02  0.19401044895E+02  0.14686307704E+02  0.27667718805E+02  0.00000000000E+00 0.  1.
</event>
<event>
12    1  0.9028446E-003  0.1962191E+03  0.7818608E-02  0.1153168E+00
         21   -1    0    0  503  502  0.00000000000E+00  0.00000000000E+00  0.35168010430E+03  0.35168010430E+03  0.00000000000E+00 0.  1.
         21   -1    0    0  501  503 -0.00000000000E+00 -0.00000000000E+00 -0.11034881255E+03  0.11034881255E+03  0.00000000000E+00 0.  1.
          6    2    1    2  501    0  0.89130586607E+02 -0.88690510466E+00  0.95102183229E+02  0.21805131121E+03  0.17480532314E+03 0.  0.
         24    2    3    3    0    0  0.94790265181E+02  0.58108240224E+02  0.68820438432E+02  0.15304916322E+03  0.79536354340E+02 0.  0.
         -6    2    1    2    0  502 -0.89130586607E+02  0.88690510466E+00  0.14622910852E+03  0.24397760564E+03  0.17377304683E+03 0.  0.
        -24    2    5    5    0    0 -0.10205072145E+03 -0.51109389885E+02  0.85295552086E+02  0.16270317622E+03  0.78552357458E+02 0.  0.
          5    1    3    3  501    0 -0.56596785737E+01 -0.58995145329E+02  0.26281744797E+02  0.65002147992E+02  0.47000000000E+01 0. -1.
        -11    1    4    4    0    0  0.58225358721E+02  0.73574855595E+02  0.62775073159E+02  0.11289004201E+03  0.00000000000E+00 0.  1.
         12    1    4    4    0    0  0.36564906459E+02 -0.15466615371E+02  0.60453652724E+01  0.40159121214E+02  0.00000000000E+00 0. -1.
         -5    1    5    5    0  502  0.12920134847E+02  0.51996294990E+02  0.60933556438E+02  0.81274429418E+02  0.47000000000E+01 0.  1.
         13    1    6    6    0    0  0.86778282783E+01 -0.15116577814E+02 -0.14784678085E+01  0.17492898431E+02  0.00000000000E+00 0. -1.
        -14    1    6    6    0    0 -0.11072854973E+03 -0.35992812071E+02  0.86774019895E+02  0.14521027779E+03  0.00000000000E+00 0.  1.
</event>
<event>
12    1  0.9028446E-003  0.1765071E+03  0.7818608E-02  0.1171319E+00
         21   -1    0    0  501  502  0.00000000000E+00  0.00000000000E+00  0.99079544226E+02  0.99079544226E+02  0.00000000000E+00 0.  1.
         21   -1    0    0  502  503 -0.00000000000E+00 -0.00000000000E+00 -0.32400371110E+03  0.32400371110E+03  0.00000000000E+00 0.  1.
          6    2    1    2  501    0 -0.31874034720E+02  0.48290488239E+01 -0.74767323104E+02  0.19134666720E+03  0.17315923494E+03 0.  0.
         24    2    3    3    0    0  0.10808062750E+02 -0.42609943439E+02 -0.86879170933E+02  0.12622365830E+03  0.80324342955E+02 0.  0.
         -6    2    1    2    0  503  0.31874034720E+02 -0.48290488239E+01 -0.15015684377E+03  0.23173658812E+03  0.17353816509E+03 0.  0.
        -24    2    5    5    0    0 -0.35214383603E+02 -0.12329913827E+02 -0.13894137961E+03  0.16314361848E+03  0.76935386485E+02 0.  0.
          5    1    3    3  501    0 -0.42682097470E+02  0.47438992263E+02  0.12111847829E+02  0.65123008908E+02  0.47000000000E+01 0. -1.
        -13    1    4    4    0    0 -0.19922150714E+00 -0.62646268971E+02 -0.40731201126E+02  0.74723660579E+02  0.00000000000E+00 0.  1.
         14    1    4    4    0    0  0.11007284257E+02  0.20036325531E+02 -0.46147969807E+02  0.51499997716E+02  0.00000000000E+00 0. -1.
         -5    1    5    5    0  503  0.67088418323E+02  0.75008650033E+01 -0.11215464160E+02  0.68592969648E+02  0.47000000000E+01 0.  1.
         11    1    6    6    0    0 -0.45348125771E+01 -0.37907427920E+02 -0.10131456811E+03  0.10826901370E+03  0.00000000000E+00 0. -1.
        -12    1    6    6    0    0 -0.30679571026E+02  0.25577514093E+02 -0.37626811506E+02  0.54874604778E+02  0.00000000000E+00 0.  1.
</event>
<event>
12    1  0.9028446E-003  0.1963258E+03  0.7818608E-02  0.1152909E+00
         21   -1    0    0  503  502  0.00000000000E+00  0.00000000000E+00  0.48726253796E+02  0.48726253796E+02  0.00000000000E+00 0.  1.
         21   -1    0    0  501  503 -0.00000000000E+00 -0.00000000000E+00 -0.85659940421E+03  0.85659940421E+03  0.00000000000E+00 0. -1.
          6    2    1    2  501    0 -0.95089837449E+02 -0.11122172236E+02 -0.52961474459E+03  0.56477966104E+03  0.17122648140E+03 0.  0.
         24    2    3    3    0    0 -0.75233917676E+01 -0.72124796598E+01 -0.11021882683E+03  0.13629606282E+03  0.79497205401E+02 0.  0.
         -6    2    1    2    0  502  0.95089837449E+02  0.11122172236E+02 -0.27825840582E+03  0.34054599697E+03  0.17140027929E+03 0.  0.
        -24    2    5    5    0    0  0.24136700754E+02 -0.47601466271E+02 -0.18957791552E+03  0.21260408559E+03  0.80076408780E+02 0.  0.
          5    1    3    3  501    0 -0.87566445681E+02 -0.39096925761E+01 -0.41939591776E+03  0.42848359822E+03  0.47000000000E+01 0. -1.
        -11    1    4    4    0    0 -0.70430575709E+00  0.31747448519E+02 -0.81351909452E+02  0.87330004612E+02  0.00000000000E+00 0.  1.
         12    1    4    4    0    0 -0.68190860105E+01 -0.38959928179E+02 -0.28866917380E+02  0.48966058211E+02  0.00000000000E+00 0. -1.
         -5    1    5    5    0  502  0.70953136695E+02  0.58723638507E+02 -0.88680490302E+02  0.12794191138E+03  0.47000000000E+01 0.  1.
         11    1    6    6    0    0 -0.16853535171E+02 -0.32693020616E+02 -0.30893074162E+02  0.48033917974E+02  0.00000000000E+00 0. -1.
        -12    1    6    6    0    0  0.40990235925E+02 -0.14908445655E+02 -0.15868484136E+03  0.16457016762E+03  0.00000000000E+00 0.  1.
</event>
<event>
12    1  0.9028446E-003  0.2588916E+03  0.7818608E-02  0.1107904E+00
         21   -1    0    0  503  502  0.00000000000E+00  0.00000000000E+00  0.18293627750E+04  0.18293627750E+04  0.00000000000E+00 0.  1.
         21   -1    0    0  501  503 -0.00000000000E+00 -0.00000000000E+00 -0.37018817568E+02  0.37018817568E+02  0.00000000000E+00 0. -1.
          6    2    1    2  501    0  0.19192537435E+03  0.26613499174E+02  0.79031579984E+03  0.83144908360E+03  0.17077730375E+03 0.  0.
         24    2    3    3    0    0  0.16250505099E+03  0.32519087512E+02  0.77647512390E+03  0.79807116109E+03  0.80861470925E+02 0.  0.
         -6    2    1    2    0  502 -0.19192537435E+03 -0.26613499174E+02  0.10020281575E+04  0.10349325089E+04  0.17170102463E+03 0.  0.
        -24    2    5    5    0    0 -0.62357759291E+02 -0.15879068424E+02  0.22542473337E+03  0.24750761516E+03  0.79391902554E+02 0.  0.
          5    1    3    3  501    0  0.29420323365E+02 -0.59055883378E+01  0.13840675946E+02  0.33377922511E+02  0.47000000000E+01 0. -1.
        -11    1    4    4    0    0  0.11333966445E+03  0.56702970576E+02  0.47267994696E+03  0.48937453823E+03  0.00000000000E+00 0.  1.
         12    1    4    4    0    0  0.49165386533E+02 -0.24183883064E+02  0.30379517694E+03  0.30869662286E+03  0.00000000000E+00 0. -1.
         -5    1    5    5    0  502 -0.12956761506E+03 -0.10734430750E+02  0.77660342418E+03  0.78742489377E+03  0.47000000000E+01 0.  1.
         11    1    6    6    0    0 -0.76141191018E+02  0.53377890892E+01  0.17994366657E+03  0.19546277421E+03  0.00000000000E+00 0. -1.
        -12    1    6    6    0    0  0.13783431727E+02 -0.21216857513E+02  0.45481066794E+02  0.52044840951E+02  0.00000000000E+00 0.  1.
</event>
<event>
12    1  0.9028446E-003  0.1822957E+03  0.7818608E-02  0.1165844E+00
         21   -1    0    0  501  502  0.00000000000E+00  0.00000000000E+00  0.88057651376E+03  0.88057651376E+03  0.00000000000E+00 0.  1.
         21   -1    0    0  502  503 -0.00000000000E+00 -0.00000000000E+00 -0.44843464181E+02  0.44843464181E+02  0.00000000000E+00 0. -1.
          6    2    1    2  501    0 -0.37086536663E+02 -0.49173167744E+02  0.60575393937E+03  0.63258956036E+03  0.17157594582E+03 0.  0.
         24    2    3    3    0    0 -0.52114048372E+02 -0.67903428528E+02  0.24573825556E+03  0.27174328926E+03  0.78296713644E+02 0.  0.
         -6    2    1    2    0  503  0.37086536663E+02  0.49173167744E+02  0.22997911021E+03  0.29283041759E+03  0.17048709835E+03 0.  0.
        -24    2    5    5    0    0  0.88418725583E+02  0.43449618401E+02  0.15594446586E+03  0.20243699304E+03  0.83404552318E+02 0.  0.
          5    1    3    3  501    0  0.15027511708E+02  0.18730260784E+02  0.36001568381E+03  0.36084627110E+03  0.47000000000E+01 0. -1.
        -11    1    4    4    0    0 -0.45318644528E+02 -0.46432458648E+02  0.23984257061E+03  0.24846370245E+03  0.00000000000E+00 0.  1.
         12    1    4    4    0    0 -0.67954038434E+01 -0.21470969880E+02  0.58956849511E+01  0.23279586809E+02  0.00000000000E+00 0. -1.
         -5    1    5    5    0  503 -0.51332188920E+02  0.57235493425E+01  0.74034644353E+02  0.90393424544E+02  0.47000000000E+01 0.  1.
         13    1    6    6    0    0  0.72245507988E+02  0.23904648906E+02  0.44526089815E+02  0.88166991204E+02  0.00000000000E+00 0. -1.
        -14    1    6    6    0    0  0.16173217595E+02  0.19544969496E+02  0.11141837605E+03  0.11427000184E+03  0.00000000000E+00 0.  1.
</event>
<event>
12    1  0.9028446E-003  0.1927011E+03  0.7818608E-02  0.1156081E+00
         21   -1    0    0  501  502  0.00000000000E+00  0.00000000000E+00  0.13456794901E+04  0.13456794901E+04  0.00000000000E+00 0. -1.
         21   -1    0    0  502  503 -0.00000000000E+00 -0.00000000000E+00 -0.27604464350E+02  0.27604464350E+02  0.00000000000E+00 0. -1.
          6    2    1    2  501    0 -0.81950510151E+02 -0.33305425131E+02  0.68248895140E+03  0.70917196218E+03  0.17119744655E+03 0.  0.
         24    2    3    3    0    0 -0.89213667482E+02 -0.79329899649E+02  0.45408989103E+03  0.47602131027E+03  0.78398643182E+02 0.  0.
         -6    2    1    2    0  503  0.81950510151E+02  0.33305425131E+02  0.63558607430E+03  0.66411199222E+03  0.17102614685E+03 0.  0.
        -24    2    5    5    0    0  0.21203337027E+02  0.34092316364E+02  0.15138945804E+03  0.17609632501E+03  0.80493975804E+02 0.  0.
          5    1    3    3  501    0  0.72631573308E+01  0.46024474518E+02  0.22839906037E+03  0.23315065191E+03  0.47000000000E+01 0. -1.
        -11    1    4    4    0    0  0.29009681368E+01 -0.36089136125E+02  0.18107166680E+03  0.18465586880E+03  0.00000000000E+00 0.  1.
         12    1    4    4    0    0 -0.92114635619E+02 -0.43240763524E+02  0.27301822422E+03  0.29136544147E+03  0.00000000000E+00 0. -1.
         -5    1    5    5    0  503  0.60747173124E+02 -0.78689123304E+00  0.48419661626E+03  0.48801566721E+03  0.47000000000E+01 0.  1.
         13    1    6    6    0    0  0.51182104280E+02  0.20998288110E+02  0.76823270645E+02  0.94669693221E+02  0.00000000000E+00 0. -1.
        -14    1    6    6    0    0 -0.29978767253E+02  0.13094028255E+02  0.74566187395E+02  0.81426631790E+02  0.00000000000E+00 0.  1.
</event>
<event>
12    1  0.9028446E-003  0.2381241E+03  0.7818608E-02  0.1121108E+00
         21   -1    0    0  501  502  0.00000000000E+00  0.00000000000E+00  0.91391776035E+02  0.91391776035E+02  0.00000000000E+00 0. -1.
         21   -1    0    0  502  503 -0.00000000000E+00 -0.00000000000E+00 -0.62226583320E+03  0.62226583320E+03  0.00000000000E+00 0. -1.
          6    2    1    2  501    0  0.16058526542E+03  0.23782849796E+02 -0.28928640609E+03  0.37468614451E+03  0.17421202806E+03 0.  0.
         24    2    3    3    0    0  0.97317518109E+02  0.82590626383E+02 -0.16664406816E+03  0.22460484823E+03  0.79907330701E+02 0.  0.
         -6    2    1    2    0  503 -0.16058526542E+03 -0.23782849796E+02 -0.24158765107E+03  0.33897146473E+03  0.17373488232E+03 0.  0.
        -24    2    5    5    0    0 -0.10150628228E+03 -0.76773117661E+02 -0.19231171456E+03  0.24543803404E+03  0.84014261038E+02 0.  0.
          5    1    3    3  501    0  0.63267747315E+02 -0.58807776587E+02 -0.12264233793E+03  0.15008129627E+03  0.47000000000E+01 0. -1.
        -11    1    4    4    0    0 -0.12452018467E+02 -0.34818619842E-02 -0.20866740226E+02  0.24299663037E+02  0.00000000000E+00 0.  1.
         12    1    4    4    0    0  0.10976953658E+03  0.82594108245E+02 -0.14577732793E+03  0.20030518519E+03  0.00000000000E+00 0. -1.
         -5    1    5    5    0  503 -0.59078983140E+02  0.52990267864E+02 -0.49275936510E+02  0.93533430687E+02  0.47000000000E+01 0.  1.
         11    1    6    6    0    0 -0.33115294433E+02  0.14232331256E+02 -0.28478177436E+02  0.45936788835E+02  0.00000000000E+00 0. -1.
        -12    1    6    6    0    0 -0.68390987851E+02 -0.91005448917E+02 -0.16383353712E+03  0.19950124520E+03  0.00000000000E+00 0.  1.
</event>
<event>
12    1  0.9028446E-003  0.1891443E+03  0.7818608E-02  0.1159998E+00
         21   -1    0    0  503  502  0.00000000000E+00  0.00000000000E+00  0.30863863790E+03  0.30863863790E+03  0.00000000000E+00 0.  1.
         21   -1    0    0  501  503 -0.00000000000E+00 -0.00000000000E+00 -0.11409308076E+03  0.11409308076E+03  0.00000000000E+00 0.  1.
          6    2    1    2  501    0  0.23784524501E+02 -0.67024781378E+02  0.89027890155E+02  0.20904912214E+03  0.17526421574E+03 0.  0.
         24    2    3    3    0    0 -0.15605519844E+02 -0.10463762299E+03  0.75433253062E+02  0.15271790872E+03  0.80249732601E+02 0.  0.
         -6    2    1    2    0  502 -0.23784524501E+02  0.67024781378E+02  0.10551766698E+03  0.21368259652E+03  0.17166318501E+03 0.  0.
        -24    2    5    5    0    0  0.17703840908E+02  0.69555977368E+02  0.10694917155E+02  0.11004314794E+03  0.82726375392E+02 0.  0.
          5    1    3    3  501    0  0.39390044346E+02  0.37612841612E+02  0.13594637093E+02  0.56331213420E+02  0.47000000000E+01 0. -1.
        -13    1    4    4    0    0 -0.45083468648E+00 -0.33763313436E+02  0.72735684892E+02  0.80191299047E+02  0.00000000000E+00 0.  1.
         14    1    4    4    0    0 -0.15154685158E+02 -0.70874309555E+02  0.26975681697E+01  0.72526609676E+02  0.00000000000E+00 0. -1.
         -5    1    5    5    0  502 -0.41488365409E+02 -0.25311959892E+01  0.94822749825E+02  0.10363944858E+03  0.47000000000E+01 0.  1.
         13    1    6    6    0    0  0.50308336950E+02  0.51932802354E+02  0.98378321377E+01  0.72970731586E+02  0.00000000000E+00 0. -1.
        -14    1    6    6    0    0 -0.32604496042E+02  0.17623175014E+02  0.85708501690E+00  0.37072416356E+02  0.00000000000E+00 0.  1.
</event>
<event>
12    1  0.9028446E-003  0.1851396E+03  0.7818608E-02  0.1163025E+00
         21   -1    0    0  501  502  0.00000000000E+00  0.00000000000E+00  0.13076711629E+04  0.13076711629E+04  0.00000000000E+00 0. -1.
         21   -1    0    0  502  503 -0.00000000000E+00 -0.00000000000E+00 -0.27572490726E+02  0.27572490726E+02  0.00000000000E+00 0.  1.
          6    2    1    2  501    0  0.66183675667E+02 -0.22431068751E+02  0.48756876925E+03  0.52137614107E+03  0.17095714070E+03 0.  0.
         24    2    3    3    0    0  0.61369995182E+02  0.30723162526E+02  0.17982057010E+03  0.20899882451E+03  0.81454786170E+02 0.  0.
         -6    2    1    2    0  503 -0.66183675667E+02  0.22431068751E+02  0.79252990289E+03  0.81386751253E+03  0.17144459512E+03 0.  0.
        -24    2    5    5    0    0  0.11921109336E+02  0.10151106436E+02  0.20280595585E+03  0.21884853919E+03  0.80741993831E+02 0.  0.
          5    1    3    3  501    0  0.48136804848E+01 -0.53154231277E+02  0.30774819915E+03  0.31237731656E+03  0.47000000000E+01 0. -1.
        -11    1    4    4    0    0 -0.25046632682E+01  0.18492018517E+02  0.96453402544E+00  0.18685781033E+02  0.00000000000E+00 0.  1.
         12    1    4    4    0    0  0.63874658450E+02  0.12231144008E+02  0.17885603608E+03  0.19031304348E+03  0.00000000000E+00 0. -1.
         -5    1    5    5    0  503 -0.78104785003E+02  0.12279962315E+02  0.58972394704E+03  0.59501897334E+03  0.47000000000E+01 0.  1.
         11    1    6    6    0    0 -0.30502084763E+02  0.22504802305E+02  0.10037306785E+03  0.10729210620E+03  0.00000000000E+00 0. -1.
        -12    1    6    6    0    0  0.42423194099E+02 -0.12353695868E+02  0.10243288800E+03  0.11155643299E+03  0.00000000000E+00 0.  1.
</event>
<event>
12    1  0.9028446E-003  0.1752813E+03  0.7818608E-02  0.1172575E+00
         21   -1    0    0  501  502  0.00000000000E+00  0.00000000000E+00  0.58697436036E+02  0.58697436036E+02  0.00000000000E+00 0. -1.
         21   -1    0    0  502  503 -0.00000000000E+00 -0.00000000000E+00 -0.15430250098E+04  0.15430250098E+04  0.00000000000E+00 0.  1.
          6    2    1    2  501    0  0.31203388651E+02  0.66427092234E+01 -0.91038389765E+02  0.19751336038E+03  0.17235359605E+03 0.  0.
         24    2    3    3    0    0  0.82988106255E+01  0.43516605685E+02 -0.11502495322E+03  0.14769620309E+03  0.81368687563E+02 0.  0.
         -6    2    1    2    0  503 -0.31203388651E+02 -0.66427092234E+01 -0.13932891840E+04  0.14042090855E+04  0.17184477988E+03 0.  0.
        -24    2    5    5    0    0 -0.80528335975E+01  0.33312658541E+01 -0.27820532710E+03  0.28883043841E+03  0.77128935300E+02 0.  0.
          5    1    3    3  501    0  0.22904578025E+02 -0.36873896461E+02  0.23986563453E+02  0.49817157296E+02  0.47000000000E+01 0. -1.
        -11    1    4    4    0    0  0.34685728822E+02  0.22846078241E+00 -0.76586009276E+02  0.84074780969E+02  0.00000000000E+00 0.  1.
         12    1    4    4    0    0 -0.26386918197E+02  0.43288144902E+02 -0.38438943942E+02  0.63621422119E+02  0.00000000000E+00 0. -1.
         -5    1    5    5    0  503 -0.23150555053E+02 -0.99739750775E+01 -0.11150838569E+04  0.11153786471E+04  0.47000000000E+01 0.  1.
         13    1    6    6    0    0 -0.61095366124E+01 -0.22478641013E+02 -0.24492802325E+02  0.33801081420E+02  0.00000000000E+00 0. -1.
        -14    1    6    6    0    0 -0.19432969850E+01  0.25809906868E+02 -0.25371252478E+03  0.25502935699E+03  0.00000000000E+00 0.  1.
</event>
<event>
12    1  0.9028446E-003  0.1820732E+03  0.7818608E-02  0.1165947E+00
         21   -1    0    0  501  502  0.00000000000E+00  0.00000000000E+00  0.15707001557E+03  0.15707001557E+03  0.00000000000E+00 0.  1.
         21   -1    0    0  502  503 -0.00000000000E+00 -0.00000000000E+00 -0.76679564498E+03  0.76679564498E+03  0.00000000000E+00 0. -1.
          6    2    1    2  501    0  0.49638513620E+01 -0.58156903874E+02  0.88494094856E+02  0.20243975183E+03  0.17246386001E+03 0.  0.
         24    2    3    3    0    0  0.18503435372E+02 -0.10129145387E+03  0.26752019748E+02  0.12577109085E+03  0.67084729895E+02 0.  0.
         -6    2    1    2    0  503 -0.49638513620E+01  0.58156903874E+02 -0.69821972427E+03  0.72142590872E+03  0.17186533430E+03 0.  0.
        -24    2    5    5    0    0 -0.14198773159E+02  0.75517250362E+02 -0.69135528820E+03  0.70007465833E+03  0.78917250683E+02 0.  0.
          5    1    3    3  501    0 -0.13539584010E+02  0.43134549995E+02  0.61742075108E+02  0.76668660984E+02  0.47000000000E+01 0. -1.
        -11    1    4    4    0    0 -0.18380464447E+02 -0.21166368863E+02 -0.10615253228E+02  0.29975660881E+02  0.00000000000E+00 0.  1.
         12    1    4    4    0    0  0.36883899819E+02 -0.80125085006E+02  0.37367272976E+02  0.95795429968E+02  0.00000000000E+00 0. -1.
         -5    1    5    5    0  503  0.92349217972E+01 -0.17360346488E+02 -0.68644360661E+01  0.21351250392E+02  0.47000000000E+01 0.  1.
         13    1    6    6    0    0 -0.24803425936E+02  0.22846419261E+02 -0.50511406328E+03  0.50623846726E+03  0.00000000000E+00 0. -1.
        -14    1    6    6    0    0  0.10604652777E+02  0.52670831102E+02 -0.18624122492E+03  0.19383619107E+03  0.00000000000E+00 0.  1.
</event>
<event>
12    1  0.9028446E-003  0.1956197E+03  0.7818608E-02  0.1154382E+00
         21   -1    0    0  503  502  0.00000000000E+00  0.00000000000E+00  0.67892435822E+03  0.67892435822E+03  0.00000000000E+00 0. -1.
         21   -1    0    0  501  503 -0.00000000000E+00 -0.00000000000E+00 -0.55271552432E+02  0.55271552432E+02  0.00000000000E+00 0.  1.
          6    2    1    2  501    0 -0.59459258206E+02 -0.55768703197E+02  0.29510932170E+03  0.35182451426E+03  0.17333616310E+03 0.  0.
         24    2    3    3    0    0 -0.16033672453E+02 -0.58829097009E+02  0.29074006168E+03  0.30782078781E+03  0.80659237755E+02 0.  0.
         -6    2    1    2    0  502  0.59459258206E+02  0.55768703197E+02  0.32854348409E+03  0.38237139639E+03  0.17782438583E+03 0.  0.
        -24    2    5    5    0    0  0.79345521707E+02  0.98604873171E+02  0.22471401056E+03  0.26820900982E+03  0.73627804386E+02 0.  0.
          5    1    3    3  501    0 -0.43425585753E+02  0.30603938113E+01  0.43692600163E+01  0.44003726449E+02  0.47000000000E+01 0. -1.
        -13    1    4    4    0    0  0.21151554167E+02 -0.39991415328E+02  0.71191505694E+02  0.84350056470E+02  0.00000000000E+00 0.  1.
         14    1    4    4    0    0 -0.37185226620E+02 -0.18837681681E+02  0.21954855599E+03  0.22347073134E+03  0.00000000000E+00 0. -1.
         -5    1    5    5    0  502 -0.19886263500E+02 -0.42836169973E+02  0.10382947353E+03  0.11416238657E+03  0.47000000000E+01 0.  1.
         11    1    6    6    0    0 -0.12895157033E+02  0.25971531007E+02  0.46349418587E+02  0.54672425418E+02  0.00000000000E+00 0. -1.
        -12    1    6    6    0    0  0.92240678740E+02  0.72633342164E+02  0.17836459197E+03  0.21353658440E+03  0.00000000000E+00 0.  1.
</event>
<event>
12    1  0.9028446E-003  0.1784231E+03  0.7818608E-02  0.1169421E+00
         21   -1    0    0  503  502  0.00000000000E+00  0.00000000000E+00  0.89883027613E+03  0.89883027613E+03  0.00000000000E+00 0.  1.
         21   -1    0    0  501  503 -0.00000000000E+00 -0.00000000000E+00 -0.36260313590E+02  0.36260313590E+02  0.00000000000E+00 0.  1.
          6    2    1    2  501    0  0.26950437888E+02  0.38773330276E+02  0.50573459539E+03  0.53628562274E+03  0.17206129994E+03 0.  0.
         24    2    3    3    0    0 -0.63070210551E+01 -0.37708758343E+01  0.45560561264E+03  0.46245424079E+03  0.78952216783E+02 0.  0.
         -6    2    1    2    0  502 -0.26950437888E+02 -0.38773330276E+02  0.35683536715E+03  0.39880496698E+03  0.17170971201E+03 0.  0.
        -24    2    5    5    0    0 -0.72369148883E+02 -0.41289713139E+02  0.17061609502E+03  0.20705278628E+03  0.82576451279E+02 0.  0.
          5    1    3    3  501    0  0.33257458943E+02  0.42544206110E+02  0.50128982750E+02  0.73831381949E+02  0.47000000000E+01 0. -1.
        -13    1    4    4    0    0 -0.27752264568E+02  0.13030954592E+02  0.77141789260E+02  0.83011141521E+02  0.00000000000E+00 0.  1.
         14    1    4    4    0    0  0.21445243513E+02 -0.16801830426E+02  0.37846382338E+03  0.37944309927E+03  0.00000000000E+00 0. -1.
         -5    1    5    5    0  502  0.45418710995E+02  0.25163828631E+01  0.18621927213E+03  0.19175218070E+03  0.47000000000E+01 0.  1.
         13    1    6    6    0    0  0.38292716039E+00 -0.53071924188E+01  0.98004766386E+02  0.98149106766E+02  0.00000000000E+00 0. -1.
        -14    1    6    6    0    0 -0.72752076043E+02 -0.35982520720E+02  0.72611328636E+02  0.10890367952E+03  0.00000000000E+00 0.  1.
</event>
<event>
12    1  0.9028446E-003  0.2219334E+03  0.7818608E-02  0.1132678E+00
         21   -1    0    0  503  502  0.00000000000E+00  0.00000000000E+00  0.31188837997E+02  0.31188837997E+02  0.00000000000E+00 0. -1.
         21   -1    0    0  501  503 -0.00000000000E+00 -0.00000000000E+00 -0.15734762519E+04  0.15734762519E+04  0.00000000000E+00 0.  1.
          6    2    1    2  501    0  0.69819382863E+02  0.12187602444E+03 -0.80409288587E+03  0.83383074970E+03  0.17023465711E+03 0.  0.
         24    2    3    3    0    0  0.76357226757E+02  0.13589580392E+02 -0.44818447886E+03  0.46172648804E+03  0.79416118582E+02 0.  0.
         -6    2    1    2    0  502 -0.69819382863E+02 -0.12187602444E+03 -0.73819452805E+03  0.77083434021E+03  0.17183104275E+03 0.  0.
        -24    2    5    5    0    0 -0.26838063015E+02 -0.41979960147E+02 -0.16182037146E+03  0.18734480875E+03  0.80185073832E+02 0.  0.
          5    1    3    3  501    0 -0.65378438939E+01  0.10828644405E+03 -0.35590840701E+03  0.37210426166E+03  0.47000000000E+01 0. -1.
        -11    1    4    4    0    0 -0.11962636568E+02 -0.13935279400E+02 -0.66293368166E+02  0.68790314350E+02  0.00000000000E+00 0.  1.
         12    1    4    4    0    0  0.88319863326E+02  0.27524859792E+02 -0.38189111069E+03  0.39293617369E+03  0.00000000000E+00 0. -1.
         -5    1    5    5    0  502 -0.42981319848E+02 -0.79896064295E+02 -0.57637415658E+03  0.58348953146E+03  0.47000000000E+01 0.  1.
         13    1    6    6    0    0  0.12062902256E+02 -0.50187838643E+02 -0.67392939432E+02  0.84888992477E+02  0.00000000000E+00 0. -1.
        -14    1    6    6    0    0 -0.38900965271E+02  0.82078784968E+01 -0.94427432033E+02  0.10245581628E+03  0.00000000000E+00 0.  1.
</event>
<event>
12    1  0.9028446E-003  0.1795470E+03  0.7818608E-02  0.1168481E+00
         21   -1    0    0  503  502  0.00000000000E+00  0.00000000000E+00  0.47707619787E+03  0.47707619787E+03  0.00000000000E+00 0.  1.
         21   -1    0    0  501  503 -0.00000000000E+00 -0.00000000000E+00 -0.69804111692E+02  0.69804111692E+02  0.00000000000E+00 0.  1.
          6    2    1    2  501    0  0.42830210454E+02  0.22941648338E+02  0.25694308786E+03  0.31345951264E+03  0.17284782183E+03 0.  0.
         24    2    3    3    0    0 -0.27393518424E+02  0.52451568171E+02  0.18058340061E+03  0.20550072744E+03  0.78221560620E+02 0.  0.
         -6    2    1    2    0  502 -0.42830210454E+02 -0.22941648338E+02  0.15032899831E+03  0.23342079692E+03  0.17183048200E+03 0.  0.
        -24    2    5    5    0    0 -0.84108830759E+02 -0.48055924459E+02  0.12845889931E+03  0.18017567893E+03  0.81104372119E+02 0.  0.
          5    1    3    3  501    0  0.70223728878E+02 -0.29509919833E+02  0.76359687250E+02  0.10795878520E+03  0.47000000000E+01 0. -1.
        -11    1    4    4    0    0  0.15512779143E+01 -0.18468089175E+02  0.58604416175E+02  0.61465066307E+02  0.00000000000E+00 0.  1.
         12    1    4    4    0    0 -0.28944796338E+02  0.70919657346E+02  0.12197898444E+03  0.14403566113E+03  0.00000000000E+00 0. -1.
         -5    1    5    5    0  502  0.41278620305E+02  0.25114276120E+02  0.21870099000E+02  0.53245117989E+02  0.47000000000E+01 0.  1.
         13    1    6    6    0    0 -0.62439066801E+01 -0.47822117186E+02  0.54652548437E+02  0.72889246899E+02  0.00000000000E+00 0. -1.
        -14    1    6    6    0    0 -0.77864924079E+02 -0.23380727230E+00  0.73806350877E+02  0.10728643203E+03  0.00000000000E+00 0.  1.
</event>
<event>
12    1  0.9028446E-003  0.1971462E+03  0.7818608E-02  0.1152459E+00
         21   -1    0    0  501  502  0.00000000000E+00  0.00000000000E+00  0.28292781008E+03  0.28292781008E+03  0.00000000000E+00 0. -1.
         21   -1    0    0  502  503 -0.00000000000E+00 -0.00000000000E+00 -0.14019725491E+03  0.14019725491E+03  0.00000000000E+00 0. -1.
          6    2    1    2  501    0  0.85398482838E+02 -0.41267890604E+02  0.36493019843E+02  0.19917632253E+03  0.17129952508E+03 0.  0.
         24    2    3    3    0    0  0.45412064138E+02  0.32705728183E+02 -0.18214875661E+02  0.98746975285E+02  0.79292264486E+02 0.  0.
         -6    2    1    2    0  503 -0.85398482838E+02  0.41267890604E+02  0.10623753533E+03  0.22394874247E+03  0.17283137931E+03 0.  0.
        -24    2    5    5    0    0 -0.13258023964E+02  0.27591361770E+02 -0.12204379202E+02  0.84514634857E+02  0.77824920106E+02 0.  0.
          5    1    3    3  501    0  0.39986418700E+02 -0.73973618786E+02  0.54707895504E+02  0.10042934724E+03  0.47000000000E+01 0. -1.
        -11    1    4    4    0    0  0.20105838200E+02  0.57245363781E+02 -0.18710470694E+02  0.63492976916E+02  0.00000000000E+00 0.  1.
         12    1    4    4    0    0  0.25306225938E+02 -0.24539635598E+02  0.49559503283E+00  0.35253998369E+02  0.00000000000E+00 0. -1.
         -5    1    5    5    0  503 -0.72140458874E+02  0.13676528834E+02  0.11844191453E+03  0.13943410761E+03  0.47000000000E+01 0.  1.
         13    1    6    6    0    0 -0.37433514013E+02  0.23872139149E+02 -0.30589736250E+02  0.53915479806E+02  0.00000000000E+00 0. -1.
        -14    1    6    6    0    0  0.24175490049E+02  0.37192226205E+01  0.18385357048E+02  0.30599155051E+02  0.00000000000E+00 0.  1.
</event>
<event>
12    1  0.9028446E-003  0.1891906E+03  0.7818608E-02  0.1160965E+00
         21   -1    0    0  501  502  0.00000000000E+00  0.00000000000E+00  0.14847591113E+04  0.14847591113E+04  0.00000000000E+00 0.  1.
         21   -1    0    0  502  503 -0.00000000000E+00 -0.00000000000E+00 -0.23640991726E+02  0.23640991726E+02  0.00000000000E+00 0.  1.
          6    2    1    2  501    0  0.22857485052E+02  0.65152574993E+02  0.85472296774E+03  0.87541100475E+03  0.17614128707E+03 0.  0.
         24    2    3    3    0    0  0.33659763673E+02  0.63319955134E+02  0.25861389470E+03  0.27918272240E+03  0.76937959066E+02 0.  0.
         -6    2    1    2    0  503 -0.22857485052E+02 -0.65152574993E+02  0.60639515180E+03  0.63298909824E+03  0.16790710441E+03 0.  0.
        -24    2    5    5    0    0 -0.79231634525E+02 -0.48635233479E+02  0.41876528850E+03  0.43632206261E+03  0.79809383073E+02 0.  0.
          5    1    3    3  501    0 -0.10802278620E+02  0.18326198589E+01  0.59610907304E+03  0.59622828235E+03  0.47000000000E+01 0. -1.
        -11    1    4    4    0    0  0.39662291564E+02  0.63235278196E+02  0.26190654900E+03  0.27233589222E+03  0.00000000000E+00 0.  1.
         12    1    4    4    0    0 -0.60025278913E+01  0.84676938451E-01 -0.32926542961E+01  0.68468301850E+01  0.00000000000E+00 0. -1.
         -5    1    5    5    0  503  0.56374149472E+02 -0.16517341514E+02  0.18762986330E+03  0.19666703562E+03  0.47000000000E+01 0.  1.
         13    1    6    6    0    0 -0.42493617873E+02 -0.32153792634E+02  0.36645588947E+03  0.37030999564E+03  0.00000000000E+00 0. -1.
        -14    1    6    6    0    0 -0.36738016651E+02 -0.16481440844E+02  0.52309399027E+02  0.66012066975E+02  0.00000000000E+00 0.  1.
</event>
<event>
12    1  0.9028446E-003  0.1961021E+03  0.7818608E-02  0.1153101E+00
         21   -1    0    0  501  502  0.00000000000E+00  0.00000000000E+00  0.21275895696E+03  0.21275895696E+03  0.00000000000E+00 0.  1.
         21   -1    0    0  502  503 -0.00000000000E+00 -0.00000000000E+00 -0.20546779203E+03  0.20546779203E+03  0.00000000000E+00 0.  1.
          6    2    1    2  501    0 -0.94198702512E+02  0.40271935367E+01  0.76372186318E+02  0.21044891873E+03  0.17194889563E+03 0.  0.
         24    2    3    3    0    0 -0.23037418713E+02  0.63194446275E+02  0.72300901334E+02  0.11769463328E+03  0.64033941530E+02 0.  0.
         -6    2    1    2    0  503  0.94198702512E+02 -0.40271935367E+01 -0.69081021392E+02  0.20777783025E+03  0.17178424080E+03 0.  0.
        -24    2    5    5    0    0 -0.15717010734E+02  0.16512822268E+02 -0.32877668442E+02  0.90150754151E+02  0.80786878057E+02 0.  0.
          5    1    3    3  501    0 -0.71161283799E+02 -0.59167252738E+02  0.40712849842E+01  0.92754285453E+02  0.47000000000E+01 0. -1.
        -11    1    4    4    0    0 -0.37163907042E+01  0.14299657525E+02  0.62490513798E+02  0.64213363718E+02  0.00000000000E+00 0.  1.
         12    1    4    4    0    0 -0.19321028009E+02  0.48894788750E+02  0.98103875361E+01  0.53481269561E+02  0.00000000000E+00 0. -1.
         -5    1    5    5    0  503  0.10991571325E+03 -0.20540015805E+02 -0.36203352950E+02  0.11762707610E+03  0.47000000000E+01 0.  1.
         11    1    6    6    0    0  0.31031153875E+02 -0.50830380781E+01 -0.58172863767E+01  0.31978283377E+02  0.00000000000E+00 0. -1.
        -12    1    6    6    0    0 -0.46748164610E+02  0.21595860346E+02 -0.27060382065E+02  0.58172470774E+02  0.00000000000E+00 0.  1.
</event>
<event>
12    1  0.9028446E-003  0.6166788E+03  0.7818608E-02  0.9871894E-01
         21   -1    0    0  501  502  0.00000000000E+00  0.00000000000E+00  0.22955830397E+04  0.22955830397E+04  0.00000000000E+00 0. -1.
         21   -1    0    0  502  503 -0.00000000000E+00 -0.00000000000E+00 -0.16547423192E+03  0.16547423192E+03  0.00000000000E+00 0.  1.
          6    2    1    2  501    0  0.51144147129E+03 -0.29702876158E+03  0.10373742123E+04  0.12063215706E+04  0.17107896343E+03 0.  0.
         24    2    3    3    0    0  0.42404727579E+03 -0.17488483717E+03  0.80123682687E+03  0.92642902257E+03  0.76742965464E+02 0.  0.
         -6    2    1    2    0  503 -0.51144147129E+03  0.29702876158E+03  0.10927345955E+04  0.12547357010E+04  0.17462622759E+03 0.  0.
        -24    2    5    5    0    0 -0.41030048583E+03  0.26696597521E+03  0.99034751955E+03  0.11076354855E+04  0.80317113746E+02 0.  0.
          5    1    3    3  501    0  0.87394195497E+02 -0.12214392441E+03  0.23613738539E+03  0.27989254805E+03  0.47000000000E+01 0. -1.
        -13    1    4    4    0    0  0.28524658289E+03 -0.80410498431E+02  0.53726215413E+03  0.61358135856E+03  0.00000000000E+00 0.  1.
         14    1    4    4    0    0  0.13880069290E+03 -0.94474338735E+02  0.26397467274E+03  0.31284766401E+03  0.00000000000E+00 0. -1.
         -5    1    5    5    0  503 -0.10114098545E+03  0.30062786365E+02  0.10238707598E+03  0.14710021547E+03  0.47000000000E+01 0.  1.
         13    1    6    6    0    0 -0.10929385735E+03  0.70386862219E+02  0.34857223760E+03  0.37202427670E+03  0.00000000000E+00 0. -1.
        -14    1    6    6    0    0 -0.30100662849E+03  0.19657911299E+03  0.64177528195E+03  0.73561120885E+03  0.00000000000E+00 0.  1.
</event>
<event>
12    1  0.9028446E-003  0.1948546E+03  0.7818608E-02  0.1155156E+00
         21   -1    0    0  501  502  0.00000000000E+00  0.00000000000E+00  0.22096549791E+02  0.22096549791E+02  0.00000000000E+00 0.  1.
         21   -1    0    0  502  503 -0.00000000000E+00 -0.00000000000E+00 -0.16785712803E+04  0.16785712803E+04  0.00000000000E+00 0.  1.
          6    2    1    2  501    0  0.77905242632E+02  0.25343106116E+02 -0.82230940052E+03  0.84404649807E+03  0.17178545011E+03 0.  0.
         24    2    3    3    0    0  0.83055557084E+02 -0.20161223281E+02 -0.74482052907E+03  0.75391445643E+03  0.79527898233E+02 0.  0.
         -6    2    1    2    0  503 -0.77905242632E+02 -0.25343106116E+02 -0.83416533003E+03  0.85662133206E+03  0.17679595260E+03 0.  0.
        -24    2    5    5    0    0  0.21943707714E+02 -0.39641173885E+02 -0.44218946357E+03  0.45184804055E+03  0.81130642096E+02 0.  0.
          5    1    3    3  501    0 -0.51503144522E+01  0.45504329397E+02 -0.77488871445E+02  0.90132041643E+02  0.47000000000E+01 0. -1.
        -13    1    4    4    0    0 -0.31616633646E+01  0.56735891489E+01 -0.30046915308E+03  0.30053934465E+03  0.00000000000E+00 0.  1.
         14    1    4    4    0    0  0.86217220448E+02 -0.25834812430E+02 -0.44435137599E+03  0.45337511178E+03  0.00000000000E+00 0. -1.
         -5    1    5    5    0  503 -0.99848950345E+02  0.14298067768E+02 -0.39197586646E+03  0.40477329151E+03  0.47000000000E+01 0.  1.
         13    1    6    6    0    0  0.34211285595E+02  0.38029900644E+00 -0.33551045888E+03  0.33725038874E+03  0.00000000000E+00 0. -1.
        -14    1    6    6    0    0 -0.12267577882E+02 -0.40021472891E+02 -0.10667900469E+03  0.11459765181E+03  0.00000000000E+00 0.  1.
</event>
<event>
12    1  0.9028446E-003  0.1824275E+03  0.7818608E-02  0.1165658E+00
         21   -1    0    0  503  502  0.00000000000E+00  0.00000000000E+00  0.32479863592E+03  0.32479863592E+03  0.00000000000E+00 0.  1.
         21   -1    0    0  501  503 -0.00000000000E+00 -0.00000000000E+00 -0.10338888145E+03  0.10338888145E+03  0.00000000000E+00 0.  1.
          6    2    1    2  501    0  0.56951334076E+02 -0.19363152980E+02  0.13502748011E+03  0.22634181253E+03  0.17140539539E+03 0.  0.
         24    2    3    3    0    0  0.68803028730E+02  0.26904148737E+02  0.14407086128E+03  0.17750536490E+03  0.72760233076E+02 0.  0.
         -6    2    1    2    0  502 -0.56951334076E+02  0.19363152980E+02  0.86382274361E+02  0.20184570484E+03  0.17222486781E+03 0.  0.
        -24    2    5    5    0    0 -0.83441305937E+01  0.37444944725E+02  0.11267541877E+03  0.14351020222E+03  0.80172811759E+02 0.  0.
          5    1    3    3  501    0 -0.11851694654E+02 -0.46267301717E+02 -0.90433811634E+01  0.48836447631E+02  0.47000000000E+01 0. -1.
        -11    1    4    4    0    0  0.74303068346E+02  0.12486111611E+02  0.73465078233E+02  0.10523291628E+03  0.00000000000E+00 0.  1.
         12    1    4    4    0    0 -0.55000396158E+01  0.14418037125E+02  0.70605783043E+02  0.72272448619E+02  0.00000000000E+00 0. -1.
         -5    1    5    5    0  502 -0.48607203482E+02 -0.18081791745E+02 -0.26293144406E+02  0.58335502619E+02  0.47000000000E+01 0.  1.
         13    1    6    6    0    0 -0.10090134244E+01  0.24515991272E+02  0.12299234519E+03  0.12541598347E+03  0.00000000000E+00 0. -1.
        -14    1    6    6    0    0 -0.73351171692E+01  0.12928953453E+02 -0.10316926418E+02  0.18094218745E+02  0.00000000000E+00 0.  1.
</event>
<event>
12    1  0.9028446E-003  0.2008547E+03  0.7818608E-02  0.1149324E+00
         21   -1    0    0  501  502  0.00000000000E+00  0.00000000000E+00  0.18446414939E+03  0.18446414939E+03  0.00000000000E+00 0.  1.
         21   -1    0    0  502  503 -0.00000000000E+00 -0.00000000000E+00 -0.37571785667E+03  0.37571785667E+03  0.00000000000E+00 0.  1.
          6    2    1    2  501    0  0.36851028098E+02  0.94541077199E+02  0.86143787168E+02  0.21854831162E+03  0.17333954799E+03 0.  0.
         24    2    3    3    0    0  0.57638764132E+02  0.91837139964E+02  0.11844567379E+03  0.17975471518E+03  0.80784234743E+02 0.  0.
         -6    2    1    2    0  503 -0.36851028098E+02 -0.94541077199E+02 -0.27739749445E+03  0.34163369443E+03  0.17166303531E+03 0.  0.
        -24    2    5    5    0    0 -0.68422785149E+02 -0.11900873691E+03 -0.21465878043E+03  0.26711068824E+03  0.80155915355E+02 0.  0.
          5    1    3    3  501    0 -0.20787736034E+02  0.27039372347E+01 -0.32301886618E+02  0.38793596445E+02  0.47000000000E+01 0. -1.
        -13    1    4    4    0    0  0.24780214404E+02  0.87515622368E+00  0.64298590045E+02  0.68913957992E+02  0.00000000000E+00 0.  1.
         14    1    4    4    0    0  0.32858549728E+02  0.90961983741E+02  0.54147083742E+02  0.11084075719E+03  0.00000000000E+00 0. -1.
         -5    1    5    5    0  503  0.31571757051E+02  0.24467659711E+02 -0.62738714021E+02  0.74523006193E+02  0.47000000000E+01 0.  1.
         13    1    6    6    0    0  0.13288210289E+01 -0.89254382068E+01  0.60035236632E+01  0.10838427418E+02  0.00000000000E+00 0. -1.
        -14    1    6    6    0    0 -0.69751606178E+02 -0.11008329870E+03 -0.22066230409E+03  0.25627226082E+03  0.00000000000E+00 0.  1.
</event>
<event>
12    1  0.9028446E-003  0.1820266E+03  0.7818608E-02  0.1166282E+00
         21   -1    0    0  503  502  0.00000000000E+00  0.00000000000E+00  0.26747095880E+03  0.26747095880E+03  0.00000000000E+00 0. -1.
         21   -1    0    0  501  503 -0.00000000000E+00 -0.00000000000E+00 -0.14102247162E+03  0.14102247162E+03  0.00000000000E+00 0. -1.
          6    2    1    2  501    0 -0.75394289449E+01  0.57391354029E+02 -0.10721052444E+02  0.18056986308E+03  0.17070420025E+03 0.  0.
         24    2    3    3    0    0  0.37404482517E+02 -0.95289038304E+01  0.25441240798E+02  0.92093439434E+02  0.79649541951E+02 0.  0.
         -6    2    1    2    0  502  0.75394289449E+01 -0.57391354029E+02  0.13716953962E+03  0.22792356734E+03  0.17257769103E+03 0.  0.
        -24    2    5    5    0    0  0.53440352995E+02 -0.62443479046E+02  0.41476121901E+02  0.12156690797E+03  0.79392600555E+02 0.  0.
          5    1    3    3  501    0 -0.44943911462E+02  0.66920257860E+02 -0.36162293242E+02  0.88476423651E+02  0.47000000000E+01 0. -1.
        -11    1    4    4    0    0  0.28682221744E+02  0.20706982552E+02 -0.17007930817E+02  0.39251989520E+02  0.00000000000E+00 0.  1.
         12    1    4    4    0    0  0.87222607726E+01 -0.30235886382E+02  0.42449171615E+02  0.52841449915E+02  0.00000000000E+00 0. -1.
         -5    1    5    5    0  502 -0.45900924051E+02  0.50521250164E+01  0.95693417724E+02  0.10635665937E+03  0.47000000000E+01 0.  1.
         13    1    6    6    0    0 -0.76209624448E+01 -0.49438779143E+02  0.77833849543E+01  0.50624628720E+02  0.00000000000E+00 0. -1.
        -14    1    6    6    0    0  0.61061315440E+02 -0.13004699903E+02  0.33692736947E+02  0.70942279255E+02  0.00000000000E+00 0.  1.
</event>
<event>
12    1  0.9028446E-003  0.2336288E+03  0.7818608E-02  0.1124327E+00
         21   -1    0    0  501  502  0.00000000000E+00  0.00000000000E+00  0.31040033596E+03  0.31040033596E+03  0.00000000000E+00 0. -1.
         21   -1    0    0  502  503 -0.00000000000E+00 -0.00000000000E+00 -0.26029509186E+03  0.26029509186E+03  0.00000000000E+00 0.  1.
          6    2    1    2  501    0 -0.10588248234E+03  0.11494552967E+03  0.18844075688E+03  0.29918278331E+03  0.17197919676E+03 0.  0.
         24    2    3    3    0    0 -0.12813693917E+03  0.60936823663E+02  0.89611048395E+02  0.18428455681E+03  0.76146478756E+02 0.  0.
         -6    2    1    2    0  503  0.10588248234E+03 -0.11494552967E+03 -0.13833551277E+03  0.27151264451E+03  0.17366297009E+03 0.  0.
        -24    2    5    5    0    0  0.96113324230E+02 -0.15048865534E+03 -0.12953244414E+03  0.23332450172E+03  0.76006990048E+02 0.  0.
          5    1    3    3  501    0  0.22254456829E+02  0.54008706011E+02  0.98829708482E+02  0.11489822650E+03  0.47000000000E+01 0. -1.
        -11    1    4    4    0    0 -0.61191163380E+02  0.20986534934E+02  0.84138967371E+02  0.10613274214E+03  0.00000000000E+00 0.  1.
         12    1    4    4    0    0 -0.66945775786E+02  0.39950288729E+02  0.54720810248E+01  0.78151814668E+02  0.00000000000E+00 0. -1.
         -5    1    5    5    0  503  0.97691581075E+01  0.35543125671E+02 -0.88030686272E+01  0.38188142792E+02  0.47000000000E+01 0.  1.
         11    1    6    6    0    0  0.32629432032E+02 -0.17948802535E+02  0.28120611736E+00  0.37241353682E+02  0.00000000000E+00 0. -1.
        -12    1    6    6    0    0  0.63483892198E+02 -0.13253985281E+03 -0.12981365026E+03  0.19608314804E+03  0.00000000000E+00 0.  1.
</event>
<event>
12    1  0.9028446E-003  0.2199435E+03  0.7818608E-02  0.1134376E+00
         21   -1    0    0  503  502  0.00000000000E+00  0.00000000000E+00  0.69349213110E+02  0.69349213110E+02  0.00000000000E+00 0. -1.
         21   -1    0    0  501  503 -0.00000000000E+00 -0.00000000000E+00 -0.69047884799E+03  0.69047884799E+03  0.00000000000E+00 0. -1.
          6    2    1    2  501    0 -0.12685392833E+02 -0.13617257880E+03 -0.30174504385E+03  0.37339684072E+03  0.17225341438E+03 0.  0.
         24    2    3    3    0    0 -0.29887270016E+02 -0.19287917421E+01 -0.11087766605E+03  0.13936747323E+03  0.78945972787E+02 0.  0.
         -6    2    1    2    0  502  0.12685392833E+02  0.13617257880E+03 -0.31938459104E+03  0.38643122038E+03  0.16917056685E+03 0.  0.
        -24    2    5    5    0    0  0.64753799519E+02  0.11331387061E+03 -0.27696121148E+03  0.31532937337E+03  0.75445432101E+02 0.  0.
          5    1    3    3  501    0  0.17201877184E+02 -0.13424378705E+03 -0.19086737779E+03  0.23402936749E+03  0.47000000000E+01 0. -1.
        -13    1    4    4    0    0 -0.12444862622E+02 -0.54667429529E+01 -0.11902148608E+03  0.11979513359E+03  0.00000000000E+00 0.  1.
         14    1    4    4    0    0 -0.17442407395E+02  0.35379512109E+01  0.81438200232E+01  0.19572339642E+02  0.00000000000E+00 0. -1.
         -5    1    5    5    0  502 -0.52068406686E+02  0.22858708187E+02 -0.42423379561E+02  0.71101847010E+02  0.47000000000E+01 0.  1.
         11    1    6    6    0    0  0.38070450922E+02  0.93194518297E+02 -0.25791176615E+03  0.27686288410E+03  0.00000000000E+00 0. -1.
        -12    1    6    6    0    0  0.26683348596E+02  0.20119352312E+02 -0.19049445329E+02  0.38466489274E+02  0.00000000000E+00 0.  1.
</event>
<event>
12    1  0.9028446E-003  0.2327231E+03  0.7818608E-02  0.1124963E+00
         21   -1    0    0  501  502  0.00000000000E+00  0.00000000000E+00  0.12139616275E+03  0.12139616275E+03  0.00000000000E+00 0.  1.
         21   -1    0    0  502  503 -0.00000000000E+00 -0.00000000000E+00 -0.55025956322E+03  0.55025956322E+03  0.00000000000E+00 0. -1.
          6    2    1    2  501    0 -0.67067307545E+02 -0.14191847806E+03 -0.67102967622E+02  0.24220410306E+03  0.17181717352E+03 0.  0.
         24    2    3    3    0    0  0.27565225319E+02 -0.92712956858E+02 -0.46933692979E+02  0.13355149502E+03  0.79231914466E+02 0.  0.
         -6    2    1    2    0  503  0.67067307545E+02  0.14191847806E+03 -0.36176043285E+03  0.42945162291E+03  0.17005648323E+03 0.  0.
        -24    2    5    5    0    0  0.78755932630E+02  0.14114169226E+03 -0.37198598898E+03  0.41320725926E+03  0.79013852505E+02 0.  0.
          5    1    3    3  501    0 -0.94632532864E+02 -0.49205521201E+02 -0.20169274643E+02  0.10865260803E+03  0.47000000000E+01 0. -1.
        -13    1    4    4    0    0  0.47393863628E+02 -0.35129552733E+02 -0.41810447388E+01  0.59141735855E+02  0.00000000000E+00 0.  1.
         14    1    4    4    0    0 -0.19828638309E+02 -0.57583404125E+02 -0.42752648240E+02  0.74409759168E+02  0.00000000000E+00 0. -1.
         -5    1    5    5    0  503 -0.11688625085E+02  0.77678580026E+00  0.10225556124E+02  0.16244363657E+02  0.47000000000E+01 0.  1.
         11    1    6    6    0    0  0.28966223769E+02  0.72541354328E+02 -0.26745244138E+03  0.27862537323E+03  0.00000000000E+00 0. -1.
        -12    1    6    6    0    0  0.49789708862E+02  0.68600337931E+02 -0.10453354759E+03  0.13458188602E+03  0.00000000000E+00 0.  1.
</event>
<event>
12    1  0.9028446E-003  0.2300164E+03  0.7818608E-02  0.1126816E+00
         21   -1    0    0  503  502  0.00000000000E+00  0.00000000000E+00  0.10595661035E+03  0.10595661035E+03  0.00000000000E+00 0.  1.
         21   -1    0    0  501  503 -0.00000000000E+00 -0.00000000000E+00 -0.50220854105E+03  0.50220854105E+03  0.00000000000E+00 0.  1.
          6    2    1    2  501    0  0.86521118674E+02  0.12489057893E+03 -0.16679269591E+03  0.28326654983E+03  0.17127922864E+03 0.  0.
         24    2    3    3    0    0  0.54261892863E+02  0.51435280008E+02 -0.13847486882E+02  0.11049309830E+03  0.80168764694E+02 0.  0.
         -6    2    1    2    0  502 -0.86521118674E+02 -0.12489057893E+03 -0.22945923479E+03  0.32489860157E+03  0.17269626572E+03 0.  0.
        -24    2    5    5    0    0 -0.12129368745E+02 -0.11901981935E+03 -0.19701904475E+03  0.24339366795E+03  0.78173746350E+02 0.  0.
          5    1    3    3  501    0  0.32259225810E+02  0.73455298921E+02 -0.15294520903E+03  0.17277345153E+03  0.47000000000E+01 0. -1.
        -11    1    4    4    0    0  0.46367841767E+02 -0.10164528086E+02 -0.76452002608E+01  0.48080593470E+02  0.00000000000E+00 0.  1.
         12    1    4    4    0    0  0.78940510962E+01  0.61599808094E+02 -0.62022866211E+01  0.62412504831E+02  0.00000000000E+00 0. -1.
         -5    1    5    5    0  502 -0.74391749929E+02 -0.58707595760E+01 -0.32440190036E+02  0.81504933624E+02  0.47000000000E+01 0.  1.
         11    1    6    6    0    0  0.28527575026E+02 -0.82699568516E+02 -0.13445319978E+03  0.16040793029E+03  0.00000000000E+00 0. -1.
        -12    1    6    6    0    0 -0.40656943770E+02 -0.36320250837E+02 -0.62565844970E+02  0.82985737657E+02  0.00000000000E+00 0.  1.
</event>
<event>
12    1  0.9028446E-003  0.2149742E+03  0.7818608E-02  0.1137824E+00
         21   -1    0    0  501  502  0.00000000000E+00  0.00000000000E+00  0.73863830804E+03  0.73863830804E+03  0.00000000000E+00 0. -1.
         21   -1    0    0  502  503 -0.00000000000E+00 -0.00000000000E+00 -0.62456872601E+02  0.62456872601E+02  0.00000000000E+00 0. -1.
          6    2    1    2  501    0  0.11259622217E+03 -0.62777996795E+02  0.32162212714E+03  0.38645530665E+03  0.17113715332E+03 0.  0.
         24    2    3    3    0    0  0.11447514932E+03  0.11701743351E+02  0.15567384764E+03  0.20448914626E+03  0.65878475171E+02 0.  0.
         -6    2    1    2    0  503 -0.11259622217E+03  0.62777996795E+02  0.35455930830E+03  0.41463987399E+03  0.17203178738E+03 0.  0.
        -24    2    5    5    0    0 -0.77079663881E+02  0.16573223550E+02  0.91605910538E+02  0.14526488187E+03  0.80587199584E+02 0.  0.
          5    1    3    3  501    0 -0.18789271468E+01 -0.74479740146E+02  0.16594827950E+03  0.18196616039E+03  0.47000000000E+01 0. -1.
        -11    1    4    4    0    0  0.47642914577E+02  0.34616824871E+02  0.92818085754E+02  0.10992437817E+03  0.00000000000E+00 0.  1.
         12    1    4    4    0    0  0.66832234739E+02 -0.22915081520E+02  0.62855761885E+02  0.94564768087E+02  0.00000000000E+00 0. -1.
         -5    1    5    5    0  503 -0.35516558288E+02  0.46204773245E+02  0.26295339776E+03  0.26937499212E+03  0.47000000000E+01 0.  1.
         13    1    6    6    0    0 -0.47061852307E+02 -0.19604455834E+02  0.83099513750E+02  0.97491957703E+02  0.00000000000E+00 0. -1.
        -14    1    6    6    0    0 -0.30017811574E+02  0.36177679385E+02  0.85063967879E+01  0.47772924169E+02  0.00000000000E+00 0.  1.
</event>
<event>
12    1  0.9028446E-003  0.2351649E+03  0.7818608E-02  0.1124343E+00
         21   -1    0    0  501  502  0.00000000000E+00  0.00000000000E+00  0.57349640943E+03  0.57349640943E+03  0.00000000000E+00 0. -1.
         21   -1    0    0  502  503 -0.00000000000E+00 -0.00000000000E+00 -0.10011111136E+03  0.10011111136E+03  0.00000000000E+00 0.  1.
          6    2    1    2  501    0 -0.12078160149E+03 -0.10023948239E+03  0.15316683871E+03  0.28064673661E+03  0.17511813499E+03 0.  0.
         24    2    3    3    0    0 -0.38387702555E+02  0.54886922691E+01  0.19541215504E+02  0.91318717883E+02  0.80333726928E+02 0.  0.
         -6    2    1    2    0  503  0.12078160149E+03  0.10023948239E+03  0.32021845936E+03  0.39296078418E+03  0.16505201333E+03 0.  0.
        -24    2    5    5    0    0  0.12756928514E+03  0.69371838543E+02  0.32078134828E+03  0.36100314144E+03  0.79600378347E+02 0.  0.
          5    1    3    3  501    0 -0.82393898939E+02 -0.10572817466E+03  0.13362562321E+03  0.18932801873E+03  0.47000000000E+01 0. -1.
        -13    1    4    4    0    0 -0.59398671982E+02 -0.79370141716E+01  0.26361674730E+02  0.65468590344E+02  0.00000000000E+00 0.  1.
         14    1    4    4    0    0  0.21010969427E+02  0.13425706441E+02 -0.68204592256E+01  0.25850127538E+02  0.00000000000E+00 0. -1.
         -5    1    5    5    0  503 -0.67876836502E+01  0.30867643844E+02 -0.56288891926E+00  0.31957642744E+02  0.47000000000E+01 0.  1.
         13    1    6    6    0    0  0.11597935734E+03  0.51971744792E+02  0.19016842194E+03  0.22872757221E+03  0.00000000000E+00 0. -1.
        -14    1    6    6    0    0  0.11589927801E+02  0.17400093751E+02  0.13061292633E+03  0.13227556923E+03  0.00000000000E+00 0.  1.
</event>
<event>
12    1  0.9028446E-003  0.4551794E+03  0.7818608E-02  0.1026207E+00
         21   -1    0    0  503  502  0.00000000000E+00  0.00000000000E+00  0.37528604969E+03  0.37528604969E+03  0.00000000000E+00 0. -1.
         21   -1    0    0  501  503 -0.00000000000E+00 -0.00000000000E+00 -0.55178618468E+03  0.55178618468E+03  0.00000000000E+00 0.  1.
          6    2    1    2  501    0  0.40436943137E+03 -0.11729328815E+03 -0.89791747805E+02  0.46370779894E+03  0.17230789985E+03 0.  0.
         24    2    3    3    0    0  0.37499079675E+03 -0.14486234189E+03 -0.61418915136E+02  0.41420765217E+03  0.78692440763E+02 0.  0.
         -6    2    1    2    0  502 -0.40436943137E+03  0.11729328815E+03 -0.86708387186E+02  0.46336443544E+03  0.17296214369E+03 0.  0.
        -24    2    5    5    0    0 -0.18374859140E+03  0.81255966580E+02 -0.10214755176E+03  0.23923790560E+03  0.80215810163E+02 0.  0.
          5    1    3    3  501    0  0.29378634614E+02  0.27569053743E+02 -0.28372832669E+02  0.49500146765E+02  0.47000000000E+01 0. -1.
        -11    1    4    4    0    0  0.10008649764E+03 -0.41569173399E+02 -0.52451206460E+02  0.12040113058E+03  0.00000000000E+00 0.  1.
         12    1    4    4    0    0  0.27490429912E+03 -0.10329316849E+03 -0.89677086757E+01  0.29380652159E+03  0.00000000000E+00 0. -1.
         -5    1    5    5    0  502 -0.22062083997E+03  0.36037321568E+02  0.15439164571E+02  0.22412652983E+03  0.47000000000E+01 0.  1.
         11    1    6    6    0    0 -0.13016190413E+03  0.22025241020E+02 -0.86551995266E+02  0.15785588495E+03  0.00000000000E+00 0. -1.
        -12    1    6    6    0    0 -0.53586687268E+02  0.59230725561E+02 -0.15595556492E+02  0.81382020650E+02  0.00000000000E+00 0.  1.
</event>
<event>
12    1  0.9028446E-003  0.1961331E+03  0.7818608E-02  0.1157998E+00
         21   -1    0    0  501  502  0.00000000000E+00  0.00000000000E+00  0.16941471283E+04  0.16941471283E+04  0.00000000000E+00 0. -1.
         21   -1    0    0  502  503 -0.00000000000E+00 -0.00000000000E+00 -0.22001569693E+02  0.22001569693E+02  0.00000000000E+00 0. -1.
          6    2    1    2  501    0  0.24038292360E+02  0.19649558206E+02  0.11202803137E+04  0.11373197301E+04  0.19366012128E+03 0.  0.
         24    2    3    3    0    0  0.17497978271E+02 -0.68704152491E+02  0.59102488866E+03  0.60067967491E+03  0.80493558867E+02 0.  0.
         -6    2    1    2    0  503 -0.24038292360E+02 -0.19649558206E+02  0.55186524497E+03  0.57882896795E+03  0.17182485531E+03 0.  0.
        -24    2    5    5    0    0 -0.11068502425E+02  0.27509552844E+02  0.50055392380E+03  0.50778574952E+03  0.80080269320E+02 0.  0.
          5    1    3    3  501    0  0.65403140886E+01  0.88353710697E+02  0.52925542500E+03  0.53664005515E+03  0.47000000000E+01 0. -1.
        -11    1    4    4    0    0  0.27465117115E+02 -0.73839439697E+02  0.32476930348E+03  0.33418811469E+03  0.00000000000E+00 0.  1.
         12    1    4    4    0    0 -0.99671388439E+01  0.51352872056E+01  0.26625558518E+03  0.26649156022E+03  0.00000000000E+00 0. -1.
         -5    1    5    5    0  503 -0.12969789935E+02 -0.47159111050E+02  0.51311321163E+02  0.71043218434E+02  0.47000000000E+01 0.  1.
         11    1    6    6    0    0 -0.21341607550E+02 -0.24186666137E+02  0.16591162467E+03  0.16901812397E+03  0.00000000000E+00 0. -1.
        -12    1    6    6    0    0  0.10273105125E+02  0.51696218981E+02  0.33464229914E+03  0.33876762554E+03  0.00000000000E+00 0.  1.
</event>
<event>
12    1  0.9028446E-003  0.2059020E+03  0.7818608E-02  0.1145272E+00
         21   -1    0    0  501  502  0.00000000000E+00  0.00000000000E+00  0.71515452915E+02  0.71515452915E+02  0.00000000000E+00 0. -1.
         21   -1    0    0  502  503 -0.00000000000E+00 -0.00000000000E+00 -0.63102421382E+03  0.63102421382E+03  0.00000000000E+00 0. -1.
          6    2    1    2  501    0 -0.31587478587E+02 -0.10605084939E+03 -0.37391569075E+03  0.42685896306E+03  0.17364066082E+03 0.  0.
         24    2    3    3    0    0 -0.18343580676E+02  0.14543803418E+02 -0.13086310725E+03  0.15516958257E+03  0.80027728617E+02 0.  0.
         -6    2    1    2    0  503  0.31587478587E+02  0.10605084939E+03 -0.18559307015E+03  0.27568070368E+03  0.17120312857E+03 0.  0.
        -24    2    5    5    0    0  0.60972139662E+02  0.49388731704E+02 -0.17918319966E+03  0.21135939828E+03  0.80058276081E+02 0.  0.
          5    1    3    3  501    0 -0.13243897911E+02 -0.12059465281E+03 -0.24305258350E+03  0.27168938048E+03  0.47000000000E+01 0. -1.
        -11    1    4    4    0    0 -0.31659903151E+02  0.17961812222E+02 -0.16469360834E+02  0.39952672152E+02  0.00000000000E+00 0.  1.
         12    1    4    4    0    0  0.13316322475E+02 -0.34180088038E+01 -0.11439374641E+03  0.11521691042E+03  0.00000000000E+00 0. -1.
         -5    1    5    5    0  503 -0.29384661075E+02  0.56662117691E+02 -0.64098704929E+01  0.64321305393E+02  0.47000000000E+01 0.  1.
         13    1    6    6    0    0  0.65747742678E+02  0.54522581144E+02 -0.18399620150E+03  0.20285482416E+03  0.00000000000E+00 0. -1.
        -14    1    6    6    0    0 -0.47756030158E+01 -0.51338494398E+01  0.48130018394E+01  0.85045741187E+01  0.00000000000E+00 0.  1.
</event>
<event>
12    1  0.9028446E-003  0.2387870E+03  0.7818608E-02  0.1120823E+00
         21   -1    0    0  501  502  0.00000000000E+00  0.00000000000E+00  0.13495081601E+03  0.13495081601E+03  0.00000000000E+00 0. -1.
         21   -1    0    0  502  503 -0.00000000000E+00 -0.00000000000E+00 -0.47630526331E+03  0.47630526331E+03  0.00000000000E+00 0.  1.
          6    2    1    2  501    0 -0.16353933796E+03  0.19342898920E+02 -0.66203464274E+02  0.24779450755E+03  0.17291603886E+03 0.  0.
         24    2    3    3    0    0 -0.12248953372E+03  0.96417164284E+01  0.23340195624E+02  0.14870184184E+03  0.80441435032E+02 0.  0.
         -6    2    1    2    0  503  0.16353933796E+03 -0.19342898920E+02 -0.27515098303E+03  0.36346157177E+03  0.17110519540E+03 0.  0.
        -24    2    5    5    0    0  0.17699667482E+03  0.91854267961E+00 -0.17874961800E+03  0.26392796382E+03  0.79861614914E+02 0.  0.
          5    1    3    3  501    0 -0.41049804241E+02  0.97011824919E+01 -0.89543659897E+02  0.99092665712E+02  0.47000000000E+01 0. -1.
        -11    1    4    4    0    0 -0.13879508358E+02  0.26097431121E+02  0.25190702536E+02  0.38836685719E+02  0.00000000000E+00 0.  1.
         12    1    4    4    0    0 -0.10861002536E+03 -0.16455714693E+02 -0.18505069118E+01  0.10986515612E+03  0.00000000000E+00 0. -1.
         -5    1    5    5    0  503 -0.13457336859E+02 -0.20261441600E+02 -0.96401365030E+02  0.99533607946E+02  0.47000000000E+01 0.  1.
         13    1    6    6    0    0  0.32106547795E+02  0.28672223786E+02 -0.20827300885E+02  0.47819486513E+02  0.00000000000E+00 0. -1.
        -14    1    6    6    0    0  0.14489012702E+03 -0.27753681107E+02 -0.15792231711E+03  0.21610847731E+03  0.00000000000E+00 0.  1.
</event>
<event>
12    1  0.9028446E-003  0.1997609E+03  0.7818608E-02  0.1150075E+00
         21   -1    0    0  501  502  0.00000000000E+00  0.00000000000E+00  0.35999354049E+03  0.35999354049E+03  0.00000000000E+00 0. -1.
         21   -1    0    0  502  503 -0.00000000000E+00 -0.00000000000E+00 -0.11678799231E+03  0.11678799231E+03  0.00000000000E+00 0. -1.
          6    2    1    2  501    0  0.98473690452E+02 -0.17663665072E+02  0.17711546007E+03  0.26697247315E+03  0.17290269648E+03 0.  0.
         24    2    3    3    0    0  0.50463561811E+02  0.41520805628E+02  0.14717927269E+03  0.18496003910E+03  0.90983126918E+02 0.  0.
         -6    2    1    2    0  503 -0.98473690452E+02  0.17663665072E+02  0.66090088109E+02  0.20980905965E+03  0.17217104574E+03 0.  0.
        -24    2    5    5    0    0 -0.35600600058E+02  0.73696988204E+02  0.44951322283E+02  0.12285104554E+03  0.79831755717E+02 0.  0.
          5    1    3    3  501    0  0.48010128641E+02 -0.59184470699E+02  0.29936187377E+02  0.82012434050E+02  0.47000000000E+01 0. -1.
        -13    1    4    4    0    0 -0.37956965536E+01  0.55668349631E+02  0.78177654518E+02  0.96047478515E+02  0.00000000000E+00 0.  1.
         14    1    4    4    0    0  0.54259258364E+02 -0.14147544004E+02  0.69001618173E+02  0.88912560586E+02  0.00000000000E+00 0. -1.
         -5    1    5    5    0  503 -0.62873090394E+02 -0.56033323132E+02  0.21138765826E+02  0.86958014108E+02  0.47000000000E+01 0.  1.
         11    1    6    6    0    0 -0.13594486436E+02  0.29160469100E+02 -0.22369443240E+02  0.39185903211E+02  0.00000000000E+00 0. -1.
        -12    1    6    6    0    0 -0.22006113622E+02  0.44536519104E+02  0.67320765523E+02  0.83665142331E+02  0.00000000000E+00 0.  1.
</event>
<event>
12    1  0.9028446E-003  0.1818041E+03  0.7818608E-02  0.1166228E+00
         21   -1    0    0  501  502  0.00000000000E+00  0.00000000000E+00  0.47381466135E+03  0.47381466135E+03  0.00000000000E+00 0. -1.
         21   -1    0    0  502  503 -0.00000000000E+00 -0.00000000000E+00 -0.15387792748E+03  0.15387792748E+03  0.00000000000E+00 0.  1.
          6    2    1    2  501    0 -0.57249550638E+02  0.18592965706E+02  0.39223504569E+03  0.43204037230E+03  0.17084303559E+03 0.  0.
         24    2    3    3    0    0  0.34017081016E+02 -0.18751307963E+01  0.17423784380E+03  0.19477804689E+03  0.80118558536E+02 0.  0.
         -6    2    1    2    0  503  0.57249550638E+02 -0.18592965706E+02 -0.72298311823E+02  0.19565221653E+03  0.17155038478E+03 0.  0.
        -24    2    5    5    0    0  0.39170292815E+02 -0.65507953981E+02 -0.85609062127E+01  0.11433541284E+03  0.84697660186E+02 0.  0.
          5    1    3    3  501    0 -0.91266631655E+02  0.20468096503E+02  0.21799720189E+03  0.23726232541E+03  0.47000000000E+01 0. -1.
        -11    1    4    4    0    0  0.36274931739E+02 -0.22388752507E+02  0.38374271516E+02  0.57356007758E+02  0.00000000000E+00 0.  1.
         12    1    4    4    0    0 -0.22578507229E+01  0.20513621711E+02  0.13586357228E+03  0.13742203913E+03  0.00000000000E+00 0. -1.
         -5    1    5    5    0  503  0.18079257824E+02  0.46914988274E+02 -0.63737405611E+02  0.81316803689E+02  0.47000000000E+01 0.  1.
         11    1    6    6    0    0 -0.12326446811E+02  0.85304342713E+01  0.14912151554E+02  0.21144310436E+02  0.00000000000E+00 0. -1.
        -12    1    6    6    0    0  0.51496739626E+02 -0.74038388252E+02 -0.23473057767E+02  0.93191102408E+02  0.00000000000E+00 0.  1.
</event>
<event>
12    1  0.9028446E-003  0.1829512E+03  0.7818608E-02  0.1166095E+00
         21   -1    0    0  501  502  0.00000000000E+00  0.00000000000E+00  0.14656057247E+03  0.14656057247E+03  0.00000000000E+00 0.  1.
         21   -1    0    0  502  503 -0.00000000000E+00 -0.00000000000E+00 -0.30098593289E+03  0.30098593289E+03  0.00000000000E+00 0.  1.
          6    2    1    2  501    0 -0.45125764354E+02 -0.41094422518E+02  0.37711202241E+02  0.18223989640E+03  0.16752360697E+03 0.  0.
         24    2    3    3    0    0 -0.10114312760E+02 -0.55394090657E+02 -0.31723180005E+02  0.10303443137E+03  0.80242939231E+02 0.  0.
         -6    2    1    2    0  503  0.45125764354E+02  0.41094422518E+02 -0.19213656266E+03  0.26530660896E+03  0.17247043770E+03 0.  0.
        -24    2    5    5    0    0  0.76223855589E+02  0.38823670494E+02 -0.63682466556E+02  0.13303872776E+03  0.79539254365E+02 0.  0.
          5    1    3    3  501    0 -0.35011451593E+02  0.14299668139E+02  0.69434382246E+02  0.79205465022E+02  0.47000000000E+01 0. -1.
        -13    1    4    4    0    0 -0.61236491916E+01 -0.55386606188E+02  0.13742739743E+02  0.57393711503E+02  0.00000000000E+00 0.  1.
         14    1    4    4    0    0 -0.39906635684E+01 -0.74844688973E-02 -0.45465919748E+02  0.45640719870E+02  0.00000000000E+00 0. -1.
         -5    1    5    5    0  503 -0.31098091236E+02  0.22707520237E+01 -0.12845409610E+03  0.13226788121E+03  0.47000000000E+01 0.  1.
         11    1    6    6    0    0  0.65834884168E+02  0.62555224431E+02 -0.51641769628E+02  0.10447133792E+03  0.00000000000E+00 0. -1.
        -12    1    6    6    0    0  0.10388971421E+02 -0.23731553936E+02 -0.12040696928E+02  0.28567389834E+02  0.00000000000E+00 0.  1.
</event>
<event>
12    1  0.9028446E-003  0.2144209E+03  0.7818608E-02  0.1138270E+00
         21   -1    0    0  503  502  0.00000000000E+00  0.00000000000E+00  0.13674004758E+04  0.13674004758E+04  0.00000000000E+00 0. -1.
         21   -1    0    0  501  503 -0.00000000000E+00 -0.00000000000E+00 -0.11175091338E+03  0.11175091338E+03  0.00000000000E+00 0.  1.
          6    2    1    2  501    0 -0.10443402420E+03 -0.72889296756E+02  0.85724537905E+01  0.21377490946E+03  0.17148443066E+03 0.  0.
         24    2    3    3    0    0  0.11497813975E+02 -0.45628601228E+02  0.15005585464E+02  0.94414900222E+02  0.80466370693E+02 0.  0.
         -6    2    1    2    0  502  0.10443402420E+03  0.72889296756E+02  0.12470771086E+04  0.12653764797E+04  0.17250218997E+03 0.  0.
        -24    2    5    5    0    0  0.12107219879E+03  0.95426441724E+02  0.86297674654E+03  0.88022724900E+03  0.79413233910E+02 0.  0.
          5    1    3    3  501    0 -0.11593183818E+03 -0.27260695528E+02 -0.64331316739E+01  0.11936000924E+03  0.47000000000E+01 0. -1.
        -11    1    4    4    0    0 -0.17447096718E+02 -0.40101734900E+02 -0.20478832356E+02  0.48290091122E+02  0.00000000000E+00 0.  1.
         12    1    4    4    0    0  0.28944910693E+02 -0.55268663280E+01  0.35484417821E+02  0.46124809100E+02  0.00000000000E+00 0. -1.
         -5    1    5    5    0  502 -0.16638174586E+02 -0.22537144968E+02  0.38410036210E+03  0.38514923072E+03  0.47000000000E+01 0.  1.
         11    1    6    6    0    0 -0.87469360125E+01  0.23325366395E+02  0.12509691684E+03  0.12755320541E+03  0.00000000000E+00 0. -1.
        -12    1    6    6    0    0  0.12981913480E+03  0.72101075329E+02  0.73787982970E+03  0.75267404359E+03  0.00000000000E+00 0.  1.
</event>
<event>
12    1  0.9028446E-003  0.2137321E+03  0.7818608E-02  0.1141694E+00
         21   -1    0    0  503  502  0.00000000000E+00  0.00000000000E+00  0.52442927534E+03  0.52442927534E+03  0.00000000000E+00 0. -1.
         21   -1    0    0  501  503 -0.00000000000E+00 -0.00000000000E+00 -0.81187474334E+02  0.81187474334E+02  0.00000000000E+00 0.  1.
          6    2    1    2  501    0 -0.71019569411E+02 -0.10182061949E+03  0.21684473163E+03  0.30447171801E+03  0.17398325103E+03 0.  0.
         24    2    3    3    0    0 -0.64973483277E+02 -0.13729462138E+03  0.14982002274E+03  0.22825255001E+03  0.81128421548E+02 0.  0.
         -6    2    1    2    0  502  0.71019569411E+02  0.10182061949E+03  0.22639706938E+03  0.30114503167E+03  0.15498864243E+03 0.  0.
        -24    2    5    5    0    0  0.76109042978E+02  0.12305888309E+03  0.22419018397E+03  0.27869671491E+03  0.80464558567E+02 0.  0.
          5    1    3    3  501    0 -0.60460861338E+01  0.35474001897E+02  0.67024708888E+02  0.76219167994E+02  0.47000000000E+01 0. -1.
        -13    1    4    4    0    0  0.76074652172E+01 -0.73827739026E+02  0.50111548308E+02  0.89552084569E+02  0.00000000000E+00 0.  1.
         14    1    4    4    0    0 -0.72580948494E+02 -0.63466882358E+02  0.99708474435E+02  0.13870046545E+03  0.00000000000E+00 0. -1.
         -5    1    5    5    0  502 -0.50894735670E+01 -0.21238263599E+02  0.22068854062E+01  0.22448316754E+02  0.47000000000E+01 0.  1.
         13    1    6    6    0    0 -0.19370990381E+01  0.46455907287E+02  0.11552179197E+03  0.12452786071E+03  0.00000000000E+00 0. -1.
        -14    1    6    6    0    0  0.78046142016E+02  0.76602975799E+02  0.10866839200E+03  0.15416885420E+03  0.00000000000E+00 0.  1.
</event>
<event>
12    1  0.9028446E-003  0.1901547E+03  0.7818608E-02  0.1158671E+00
         21   -1    0    0  501  502  0.00000000000E+00  0.00000000000E+00  0.23848486316E+04  0.23848486316E+04  0.00000000000E+00 0.  1.
         21   -1    0    0  502  503 -0.00000000000E+00 -0.00000000000E+00 -0.15475107513E+02  0.15475107513E+02  0.00000000000E+00 0.  1.
          6    2    1    2  501    0 -0.26159627635E+02 -0.77536266739E+02  0.13814213677E+04  0.13942381168E+04  0.16993743648E+03 0.  0.
         24    2    3    3    0    0 -0.36442853207E+02 -0.48553342271E+02  0.31512531490E+03  0.32748832565E+03  0.65262016097E+02 0.  0.
         -6    2    1    2    0  503  0.26159627635E+02  0.77536266739E+02  0.98795215635E+03  0.10060856223E+04  0.17164678095E+03 0.  0.
        -24    2    5    5    0    0 -0.38937763048E+01 -0.20603564481E+02  0.54003353683E+03  0.54653386977E+03  0.81384160208E+02 0.  0.
          5    1    3    3  501    0  0.10283225571E+02 -0.28982924468E+02  0.10662960528E+04  0.10667497911E+04  0.47000000000E+01 0. -1.
        -11    1    4    4    0    0 -0.46648066971E+02 -0.12747974899E+02  0.22179967578E+03  0.22701024028E+03  0.00000000000E+00 0.  1.
         12    1    4    4    0    0  0.10205213764E+02 -0.35805367372E+02  0.93325639125E+02  0.10047808537E+03  0.00000000000E+00 0. -1.
         -5    1    5    5    0  503  0.30053403940E+02  0.98139831220E+02  0.44791861952E+03  0.45955175255E+03  0.47000000000E+01 0.  1.
         13    1    6    6    0    0  0.38121285827E+02 -0.10307342064E+02  0.30580838159E+03  0.30834759604E+03  0.00000000000E+00 0. -1.
        -14    1    6    6    0    0 -0.42015062132E+02 -0.10296222418E+02  0.23422515525E+03  0.23818627373E+03  0.00000000000E+00 0.  1.
</event>
<event>
12    1  0.9028446E-003  0.1794583E+03  0.7818608E-02  0.1168469E+00
         21   -1    0    0  501  502  0.00000000000E+00  0.00000000000E+00  0.24416784928E+03  0.24416784928E+03  0.00000000000E+00 0.  1.
         21   -1    0    0  502  503 -0.00000000000E+00 -0.00000000000E+00 -0.13161862193E+03  0.13161862193E+03  0.00000000000E+00 0.  1.
          6    2    1    2  501    0  0.47988086834E+02 -0.38016285759E+01  0.49936771099E+02  0.18571909143E+03  0.17228055884E+03 0.  0.
         24    2    3    3    0    0 -0.22433448483E+02  0.11724939864E+02  0.70028067222E+02  0.11071231077E+03  0.81930163750E+02 0.  0.
         -6    2    1    2    0  503 -0.47988086834E+02  0.38016285759E+01  0.62612456248E+02  0.19006737979E+03  0.17288140537E+03 0.  0.
        -24    2    5    5    0    0 -0.62219740949E+01 -0.72240366998E+01 -0.29883328506E+02  0.87873771057E+02  0.82084631017E+02 0.  0.
          5    1    3    3  501    0  0.70421535317E+02 -0.15526568439E+02 -0.20091296123E+02  0.75006780652E+02  0.47000000000E+01 0. -1.
        -11    1    4    4    0    0  0.10743434282E+02  0.36532236911E+02  0.54471353647E+02  0.66461673783E+02  0.00000000000E+00 0.  1.
         12    1    4    4    0    0 -0.33176882765E+02 -0.24807297047E+02  0.15556713575E+02  0.44250636990E+02  0.00000000000E+00 0. -1.
         -5    1    5    5    0  503 -0.41766112739E+02  0.11025665276E+02  0.92495784755E+02  0.10219360873E+03  0.47000000000E+01 0.  1.
         11    1    6    6    0    0 -0.63643209192E+01 -0.85803166537E+01  0.28002907268E+02  0.29971473606E+02  0.00000000000E+00 0. -1.
        -12    1    6    6    0    0  0.14234682429E+00  0.13562799539E+01 -0.57886235775E+02  0.57902297451E+02  0.00000000000E+00 0.  1.
</event>
<event>
12    1  0.9028446E-003  0.1749674E+03  0.7818608E-02  0.1172783E+00
         21   -1    0    0  501  502  0.00000000000E+00  0.00000000000E+00  0.46102319130E+03  0.46102319130E+03  0.00000000000E+00 0.  1.
         21   -1    0    0  502  503 -0.00000000000E+00 -0.00000000000E+00 -0.10104338014E+03  0.10104338014E+03  0.00000000000E+00 0.  1.
          6    2    1    2  501    0 -0.15674095649E+02  0.30628687447E+02  0.34457898888E+03  0.38642271165E+03  0.17147605878E+03 0.  0.
         24    2    3    3    0    0 -0.26995178961E+02  0.76294977860E+02  0.16218286198E+03  0.19799762279E+03  0.79687606155E+02 0.  0.
         -6    2    1    2    0  503  0.15674095649E+02 -0.30628687447E+02  0.15400822281E+02  0.17564385978E+03  0.17155111886E+03 0.  0.
        -24    2    5    5    0    0  0.12659870071E+02 -0.85942338068E+02  0.22493801542E+02  0.11959846875E+03  0.79066205407E+02 0.  0.
          5    1    3    3  501    0  0.11321083312E+02 -0.45666290413E+02  0.18239612689E+03  0.18842508886E+03  0.47000000000E+01 0. -1.
        -13    1    4    4    0    0 -0.51602414228E+02  0.43295498468E+02  0.12737687671E+03  0.14409086738E+03  0.00000000000E+00 0.  1.
         14    1    4    4    0    0  0.24607235268E+02  0.32999479392E+02  0.34805985268E+02  0.53906755403E+02  0.00000000000E+00 0. -1.
         -5    1    5    5    0  503  0.30142255775E+01  0.55313650621E+02 -0.70929792606E+01  0.56045391030E+02  0.47000000000E+01 0.  1.
         11    1    6    6    0    0  0.13703144574E+02 -0.72818458758E+02 -0.18643335384E+02  0.76406008019E+02  0.00000000000E+00 0. -1.
        -12    1    6    6    0    0 -0.10432745029E+01 -0.13123879310E+02  0.41137136926E+02  0.43192460734E+02  0.00000000000E+00 0.  1.
</event>
<event>
12    1  0.9028446E-003  0.2874672E+03  0.7818608E-02  0.1091922E+00
         21   -1    0    0  503  502  0.00000000000E+00  0.00000000000E+00  0.95415840422E+03  0.95415840422E+03  0.00000000000E+00 0. -1.
         21   -1    0    0  501  503 -0.00000000000E+00 -0.00000000000E+00 -0.86587947640E+02  0.86587947640E+02  0.00000000000E+00 0. -1.
          6    2    1    2  501    0 -0.11770745033E+03  0.19635439209E+03  0.39439110223E+03  0.48803863117E+03  0.17385992304E+03 0.  0.
         24    2    3    3    0    0 -0.10881158817E+03  0.62761568757E+02  0.17180870761E+03  0.22824796312E+03  0.82461654272E+02 0.  0.
         -6    2    1    2    0  502  0.11770745033E+03 -0.19635439209E+03  0.47317935435E+03  0.55270772069E+03  0.17081285657E+03 0.  0.
        -24    2    5    5    0    0  0.42627527695E+02 -0.49748083953E+02  0.10039145409E+03  0.14512544317E+03  0.81798363225E+02 0.  0.
          5    1    3    3  501    0 -0.88958621526E+01  0.13359282334E+03  0.22258239462E+03  0.25979066805E+03  0.47000000000E+01 0. -1.
        -13    1    4    4    0    0 -0.19435138440E+02  0.46472030484E+02  0.26607533627E+02  0.56967842413E+02  0.00000000000E+00 0.  1.
         14    1    4    4    0    0 -0.89376449733E+02  0.16289538273E+02  0.14520117398E+03  0.17128012071E+03  0.00000000000E+00 0. -1.
         -5    1    5    5    0  502  0.75079922631E+02 -0.14660630814E+03  0.37278790026E+03  0.40758227752E+03  0.47000000000E+01 0.  1.
         13    1    6    6    0    0  0.63049069841E+02 -0.48440832175E+02  0.95158920542E+02  0.12400370796E+03  0.00000000000E+00 0. -1.
        -14    1    6    6    0    0 -0.20421542146E+02 -0.13072517778E+01  0.52325335509E+01  0.21121735208E+02  0.00000000000E+00 0.  1.
</event>
<event>
12    1  0.9028446E-003  0.1825198E+03  0.7818608E-02  0.1165993E+00
         21   -1    0    0  503  502  0.00000000000E+00  0.00000000000E+00  0.15737162958E+03  0.15737162958E+03  0.00000000000E+00 0. -1.
         21   -1    0    0  501  503 -0.00000000000E+00 -0.00000000000E+00 -0.21508757980E+03  0.21508757980E+03  0.00000000000E+00 0. -1.
          6    2    1    2  501    0  0.11895470885E+02  0.50639384428E+02 -0.61000356444E+02  0.19244351475E+03  0.17495031695E+03 0.  0.
         24    2    3    3    0    0  0.21948223477E+02  0.89305762609E+02 -0.56386393446E+01  0.12400992390E+03  0.83002549496E+02 0.  0.
         -6    2    1    2    0  502 -0.11895470885E+02 -0.50639384428E+02  0.32844062237E+01  0.18001569463E+03  0.17230500139E+03 0.  0.
        -24    2    5    5    0    0  0.48052659909E+02 -0.65365125351E+02 -0.16306902064E+02  0.11508084118E+03  0.79975166245E+02 0.  0.
          5    1    3    3  501    0 -0.10052752592E+02 -0.38666378181E+02 -0.55361717099E+02  0.68433590849E+02  0.47000000000E+01 0. -1.
        -13    1    4    4    0    0 -0.20802438620E+02  0.52221142333E+02  0.22815070005E+02  0.60665612817E+02  0.00000000000E+00 0.  1.
         14    1    4    4    0    0  0.42750662097E+02  0.37084620276E+02 -0.28453709350E+02  0.63344311082E+02  0.00000000000E+00 0. -1.
         -5    1    5    5    0  502 -0.59948130794E+02  0.14725740923E+02  0.19591308287E+02  0.64934853445E+02  0.47000000000E+01 0.  1.
         13    1    6    6    0    0  0.29051259752E+02 -0.12933892983E+02  0.29145714663E+02  0.43136225659E+02  0.00000000000E+00 0. -1.
        -14    1    6    6    0    0  0.19001400157E+02 -0.52431232368E+02 -0.45452616727E+02  0.71944615524E+02  0.00000000000E+00 0.  1.
</event>
<event>
12    1  0.9028446E-003  0.1871856E+03  0.7818608E-02  0.1161123E+00
         21   -1    0    0  503  502  0.00000000000E+00  0.00000000000E+00  0.86084173514E+03  0.86084173514E+03  0.00000000000E+00 0.  1.
         21   -1    0    0  501  503 -0.00000000000E+00 -0.00000000000E+00 -0.40865509877E+02  0.40865509877E+02  0.00000000000E+00 0.  1.
          6    2    1    2  501    0 -0.44073362834E+02 -0.56502573499E+02  0.37478161927E+03  0.41892687640E+03  0.17292617936E+03 0.  0.
         24    2    3    3    0    0 -0.94239766693E+01 -0.99751831560E+02  0.21838517297E+03  0.25293586249E+03  0.79026751960E+02 0.  0.
         -6    2    1    2    0  502  0.44073362834E+02  0.56502573499E+02  0.44519460599E+03  0.48278036861E+03  0.17246345987E+03 0.  0.
        -24    2    5    5    0    0 -0.41840908147E+02  0.36230960077E+02  0.17898173529E+03  0.20227442786E+03  0.76270168063E+02 0.  0.
          5    1    3    3  501    0 -0.34649386164E+02  0.43249258061E+02  0.15639644630E+03  0.16599101391E+03  0.47000000000E+01 0. -1.
        -13    1    4    4    0    0 -0.28256483407E+02 -0.94373679001E+02  0.20934278385E+03  0.23136382884E+03  0.00000000000E+00 0.  1.
         14    1    4    4    0    0  0.18832506737E+02 -0.53781525594E+01  0.90423891121E+01  0.21572033651E+02  0.00000000000E+00 0. -1.
         -5    1    5    5    0  502  0.85914270981E+02  0.20271613422E+02  0.26621287070E+03  0.28050594075E+03  0.47000000000E+01 0.  1.
         13    1    6    6    0    0 -0.53334498317E+02  0.51435814311E+02  0.12876153592E+03  0.14855889350E+03  0.00000000000E+00 0. -1.
        -14    1    6    6    0    0  0.11493590170E+02 -0.15204854234E+02  0.50220199368E+02  0.53715534363E+02  0.00000000000E+00 0.  1.
</event>
<event>
12    1  0.9028446E-003  0.1850513E+03  0.7818608E-02  0.1164015E+00
         21   -1    0    0  501  502  0.00000000000E+00  0.00000000000E+00  0.28227460650E+02  0.28227460650E+02  0.00000000000E+00 0.  1.
         21   -1    0    0  502  503 -0.00000000000E+00 -0.00000000000E+00 -0.11983262947E+04  0.11983262947E+04  0.00000000000E+00 0.  1.
          6    2    1    2  501    0  0.37142495362E+02 -0.42550850608E+02 -0.52763969265E+03  0.55914902659E+03  0.17622102265E+03 0.  0.
         24    2    3    3    0    0  0.78137209508E+02 -0.71180978470E+02 -0.41711108488E+03  0.43774509772E+03  0.80417400103E+02 0.  0.
         -6    2    1    2    0  503 -0.37142495362E+02  0.42550850608E+02 -0.64245914138E+03  0.66740472874E+03  0.17171250321E+03 0.  0.
        -24    2    5    5    0    0  0.28739663625E+02  0.24010267920E+02 -0.51796380754E+03  0.52525906322E+03  0.78791600714E+02 0.  0.
          5    1    3    3  501    0 -0.40994714147E+02  0.28630127862E+02 -0.11052860777E+03  0.12140392887E+03  0.47000000000E+01 0. -1.
        -13    1    4    4    0    0 -0.56982343150E+01 -0.44240398801E+02 -0.13061599676E+03  0.13802253936E+03  0.00000000000E+00 0.  1.
         14    1    4    4    0    0  0.83835443823E+02 -0.26940579669E+02 -0.28649508812E+03  0.29972255836E+03  0.00000000000E+00 0. -1.
         -5    1    5    5    0  503 -0.65882158987E+02  0.18540582688E+02 -0.12449533384E+03  0.14214566552E+03  0.47000000000E+01 0.  1.
         13    1    6    6    0    0 -0.15213006286E+02  0.38110281245E+02 -0.25221550778E+03  0.25553178170E+03  0.00000000000E+00 0. -1.
        -14    1    6    6    0    0  0.43952669911E+02 -0.14100013325E+02 -0.26574829976E+03  0.26972728151E+03  0.00000000000E+00 0.  1.
</event>
<event>
12    1  0.9028446E-003  0.1935461E+03  0.7818608E-02  0.1157330E+00
         21   -1    0    0  503  502  0.00000000000E+00  0.00000000000E+00  0.72094289651E+02  0.72094289651E+02  0.00000000000E+00 0. -1.
         21   -1    0    0  501  503 -0.00000000000E+00 -0.00000000000E+00 -0.53168629873E+03  0.53168629873E+03  0.00000000000E+00 0.  1.
          6    2    1    2  501    0 -0.64351617237E+02  0.87754231318E+01 -0.15643435066E+03  0.24886097285E+03  0.18232372048E+03 0.  0.
         24    2    3    3    0    0  0.37890688860E+02  0.15155110184E+01 -0.93813276161E+02  0.12865413256E+03  0.79454099743E+02 0.  0.
         -6    2    1    2    0  502  0.64351617237E+02 -0.87754231318E+01 -0.30315765841E+03  0.35491961553E+03  0.17275771745E+03 0.  0.
        -24    2    5    5    0    0  0.44208602808E+02  0.19297412749E+02 -0.30742308513E+03  0.31978972783E+03  0.73686674858E+02 0.  0.
          5    1    3    3  501    0 -0.10224230610E+03  0.72599121135E+01 -0.62621074502E+02  0.12020684029E+03  0.47000000000E+01 0. -1.
        -13    1    4    4    0    0  0.23176053484E+02  0.33007696489E+02 -0.82951062960E+02  0.92236198582E+02  0.00000000000E+00 0.  1.
         14    1    4    4    0    0  0.14714635376E+02 -0.31492185470E+02 -0.10862213200E+02  0.36417933983E+02  0.00000000000E+00 0. -1.
         -5    1    5    5    0  502  0.20143014429E+02 -0.28072835881E+02  0.42654267175E+01  0.35129887699E+02  0.47000000000E+01 0.  1.
         13    1    6    6    0    0  0.43899811020E+02 -0.16584653359E+02 -0.11783784777E+03  0.12683848982E+03  0.00000000000E+00 0. -1.
        -14    1    6    6    0    0  0.30879178782E+00  0.35882066108E+02 -0.18958523736E+03  0.19295123800E+03  0.00000000000E+00 0.  1.
</event>
<event>
12    1  0.9028446E-003  0.2065260E+03  0.7818608E-02  0.1144546E+00
         21   -1    0    0  501  502  0.00000000000E+00  0.00000000000E+00  0.35446401730E+03  0.35446401730E+03  0.00000000000E+00 0.  1.
         21   -1    0    0  502  503 -0.00000000000E+00 -0.00000000000E+00 -0.11976912292E+03  0.11976912292E+03  0.00000000000E+00 0.  1.
          6    2    1    2  501    0  0.11449323565E+03 -0.28435196430E+01  0.11913967072E+03  0.23757728418E+03  0.17068074937E+03 0.  0.
         24    2    3    3    0    0  0.77670594655E+02  0.14761276418E+02  0.14875633390E+03  0.18693073967E+03  0.81018750933E+02 0.  0.
         -6    2    1    2    0  503 -0.11449323565E+03  0.28435196430E+01  0.11555522365E+03  0.23665585603E+03  0.17186098414E+03 0.  0.
        -24    2    5    5    0    0 -0.31912582191E+02 -0.41406927850E+02  0.12991434142E+02  0.97662736253E+02  0.81463403533E+02 0.  0.
          5    1    3    3  501    0  0.36822640991E+02 -0.17604796061E+02 -0.29616663171E+02  0.50646544515E+02  0.47000000000E+01 0. -1.
        -11    1    4    4    0    0  0.60640593581E+01  0.41592693866E+01  0.98579615412E+02  0.98853492162E+02  0.00000000000E+00 0.  1.
         12    1    4    4    0    0  0.71606535297E+02  0.10602007031E+02  0.50176718483E+02  0.88077247505E+02  0.00000000000E+00 0. -1.
         -5    1    5    5    0  503 -0.82580653455E+02  0.44250447493E+02  0.10256378951E+03  0.13899311978E+03  0.47000000000E+01 0.  1.
         11    1    6    6    0    0  0.10247459709E+02  0.13591581120E+02  0.21961681236E+02  0.27785912807E+02  0.00000000000E+00 0. -1.
        -12    1    6    6    0    0 -0.42160041900E+02 -0.54998508970E+02 -0.89702470932E+01  0.69876823446E+02  0.00000000000E+00 0.  1.
</event>
<event>
12    1  0.9028446E-003  0.1847428E+03  0.7818608E-02  0.1163379E+00
         21   -1    0    0  501  502  0.00000000000E+00  0.00000000000E+00  0.13091526690E+03  0.13091526690E+03  0.00000000000E+00 0. -1.
         21   -1    0    0  502  503 -0.00000000000E+00 -0.00000000000E+00 -0.27410075576E+03  0.27410075576E+03  0.00000000000E+00 0.  1.
          6    2    1    2  501    0  0.16343902768E+02 -0.63803826014E+02 -0.11731568629E+03  0.21884444304E+03  0.17260321152E+03 0.  0.
         24    2    3    3    0    0 -0.34132606691E+02  0.29356916126E+01 -0.19050160585E+02  0.89692421131E+02  0.80673221488E+02 0.  0.
         -6    2    1    2    0  503 -0.16343902768E+02  0.63803826014E+02 -0.25869802568E+02  0.18617157962E+03  0.17219918409E+03 0.  0.
        -24    2    5    5    0    0  0.30524064089E+02  0.37831245577E+02  0.38786731904E+02  0.10206605838E+03  0.80932985065E+02 0.  0.
          5    1    3    3  501    0  0.50476509459E+02 -0.66739517627E+02 -0.98265525708E+02  0.12915202191E+03  0.47000000000E+01 0. -1.
        -11    1    4    4    0    0  0.41679584554E+01 -0.14999810868E+02 -0.39689004551E+02  0.42633124281E+02  0.00000000000E+00 0.  1.
         12    1    4    4    0    0 -0.38300565146E+02  0.17935502481E+02  0.20638843966E+02  0.47059296850E+02  0.00000000000E+00 0. -1.
         -5    1    5    5    0  503 -0.46867966857E+02  0.25972580437E+02 -0.64656534473E+02  0.84105521233E+02  0.47000000000E+01 0.  1.
         13    1    6    6    0    0  0.41404058652E+02  0.23259406614E+02 -0.11269482507E+02  0.48808783071E+02  0.00000000000E+00 0. -1.
        -14    1    6    6    0    0 -0.10879994562E+02  0.14571838963E+02  0.50056214411E+02  0.53257275312E+02  0.00000000000E+00 0.  1.
</event>
<event>
12    1  0.9028446E-003  0.2022272E+03  0.7818608E-02  0.1148371E+00
         21   -1    0    0  501  502  0.00000000000E+00  0.00000000000E+00  0.49802835372E+02  0.49802835372E+02  0.00000000000E+00 0.  1.
         21   -1    0    0  502  503 -0.00000000000E+00 -0.00000000000E+00 -0.88951879786E+03  0.88951879786E+03  0.00000000000E+00 0. -1.
          6    2    1    2  501    0  0.96370383141E+02 -0.40623574332E+02 -0.55666090655E+03  0.59144808010E+03  0.17029956263E+03 0.  0.
         24    2    3    3    0    0  0.21045936085E+02 -0.80059239091E+02 -0.34956100867E+03  0.36752532181E+03  0.77650178345E+02 0.  0.
         -6    2    1    2    0  503 -0.96370383141E+02  0.40623574332E+02 -0.28305505594E+03  0.34787355314E+03  0.17308471550E+03 0.  0.
        -24    2    5    5    0    0 -0.10311592452E+03  0.18344487606E+02 -0.10757980128E+03  0.17079866776E+03  0.81420864334E+02 0.  0.
          5    1    3    3  501    0  0.75324447056E+02  0.39435664760E+02 -0.20709989787E+03  0.22392275829E+03  0.47000000000E+01 0. -1.
        -11    1    4    4    0    0  0.19945862565E+02 -0.19994010526E+02 -0.25846796915E+02  0.38283871292E+02  0.00000000000E+00 0.  1.
         12    1    4    4    0    0  0.11000735204E+01 -0.60065228565E+02 -0.32371421176E+03  0.32924145052E+03  0.00000000000E+00 0. -1.
         -5    1    5    5    0  503  0.67455413789E+01  0.22279086726E+02 -0.17547525466E+03  0.17707488538E+03  0.47000000000E+01 0.  1.
         11    1    6    6    0    0 -0.19033033277E+02 -0.29557752357E+02 -0.36890388999E+02  0.50958982335E+02  0.00000000000E+00 0. -1.
        -12    1    6    6    0    0 -0.84082891243E+02  0.47902239963E+02 -0.70689412284E+02  0.11983968542E+03  0.00000000000E+00 0.  1.
</event>
<event>
12    1  0.9028446E-003  0.3556640E+03  0.7818608E-02  0.1060348E+00
         21   -1    0    0  501  502  0.00000000000E+00  0.00000000000E+00  0.13373715546E+04  0.13373715546E+04  0.00000000000E+00 0.  1.
         21   -1    0    0  502  503 -0.00000000000E+00 -0.00000000000E+00 -0.11636089161E+03  0.11636089161E+03  0.00000000000E+00 0. -1.
          6    2    1    2  501    0 -0.19387237618E+03 -0.24446207391E+03  0.92583075865E+03  0.99179608937E+03  0.17072986086E+03 0.  0.
         24    2    3    3    0    0 -0.13528895555E+03 -0.12447306406E+03  0.71169458743E+03  0.73939607058E+03  0.80004488898E+02 0.  0.
         -6    2    1    2    0  503  0.19387237618E+03  0.24446207391E+03  0.29517990434E+03  0.46193635684E+03  0.17001711098E+03 0.  0.
        -24    2    5    5    0    0  0.14970749575E+03  0.25850971787E+03  0.25683157957E+03  0.40159932861E+03  0.77974046670E+02 0.  0.
          5    1    3    3  501    0 -0.58583420622E+02 -0.11998900985E+03  0.21413617123E+03  0.25240001879E+03  0.47000000000E+01 0. -1.
        -13    1    4    4    0    0 -0.45392841496E+02 -0.88531010474E+02  0.28533517113E+03  0.30218274233E+03  0.00000000000E+00 0.  1.
         14    1    4    4    0    0 -0.89896114058E+02 -0.35942053582E+02  0.42635941630E+03  0.43721332825E+03  0.00000000000E+00 0. -1.
         -5    1    5    5    0  503  0.44164880422E+02 -0.14047643965E+02  0.38348324769E+02  0.60337028235E+02  0.47000000000E+01 0.  1.
         13    1    6    6    0    0  0.75072704081E+02  0.17787859335E+03  0.12508096235E+03  0.23004771681E+03  0.00000000000E+00 0. -1.
        -14    1    6    6    0    0  0.74634791674E+02  0.80631124525E+02  0.13175061723E+03  0.17155161180E+03  0.00000000000E+00 0.  1.
</event>
<event>
12    1  0.9028446E-003  0.2292111E+03  0.7818608E-02  0.1127361E+00
         21   -1    0    0  503  502  0.00000000000E+00  0.00000000000E+00  0.12890399784E+03  0.12890399784E+03  0.00000000000E+00 0. -1.
         21   -1    0    0  501  503 -0.00000000000E+00 -0.00000000000E+00 -0.43961730484E+03  0.43961730484E+03  0.00000000000E+00 0. -1.
          6    2    1    2  501    0 -0.13726514517E+03 -0.63367606313E+02 -0.23376154315E+03  0.32673772747E+03  0.17104359062E+03 0.  0.
         24    2    3    3    0    0 -0.13107244836E+03 -0.54450337418E+02 -0.25517360898E+03  0.30227482206E+03  0.78177179331E+02 0.  0.
         -6    2    1    2    0  502  0.13726514517E+03  0.63367606313E+02 -0.76951763844E+02  0.24178357520E+03  0.17228043903E+03 0.  0.
        -24    2    5    5    0    0  0.16786658493E+03  0.53174250510E+02 -0.80745747380E+02  0.20896838163E+03  0.78365920845E+02 0.  0.
          5    1    3    3  501    0 -0.61926968102E+01 -0.89172688942E+01  0.21412065830E+02  0.24462905416E+02  0.47000000000E+01 0. -1.
        -11    1    4    4    0    0 -0.27892284819E+02 -0.11733188808E+02 -0.83916228627E+01  0.31401697507E+02  0.00000000000E+00 0.  1.
         12    1    4    4    0    0 -0.10318016354E+03 -0.42717148610E+02 -0.24678198612E+03  0.27087312455E+03  0.00000000000E+00 0. -1.
         -5    1    5    5    0  502 -0.30601439762E+02  0.10193355802E+02  0.37939835358E+01  0.32815193571E+02  0.47000000000E+01 0.  1.
         13    1    6    6    0    0  0.15315945231E+03  0.69232543757E+02 -0.58841969721E+02  0.17808239763E+03  0.00000000000E+00 0. -1.
        -14    1    6    6    0    0  0.14707132620E+02 -0.16058293247E+02 -0.21903777659E+02  0.30885984000E+02  0.00000000000E+00 0.  1.
</event>
<event>
12    1  0.9028446E-003  0.2583761E+03  0.7818608E-02  0.1108301E+00
         21   -1    0    0  501  502  0.00000000000E+00  0.00000000000E+00  0.25677316460E+03  0.25677316460E+03  0.00000000000E+00 0.  1.
         21   -1    0    0  502  503 -0.00000000000E+00 -0.00000000000E+00 -0.33448404763E+03  0.33448404763E+03  0.00000000000E+00 0.  1.
          6    2    1    2  501    0  0.10839150263E+03 -0.15784477490E+03  0.10169356843E+03  0.27766845363E+03  0.17347765699E+03 0.  0.
         24    2    3    3    0    0  0.98845652395E+02 -0.16706733166E+03  0.43920282712E+02  0.21820399910E+03  0.89454109378E+02 0.  0.
         -6    2    1    2    0  503 -0.10839150263E+03  0.15784477490E+03 -0.17940445147E+03  0.31358875860E+03  0.17172146491E+03 0.  0.
        -24    2    5    5    0    0 -0.32968135622E+02  0.12391554327E+03 -0.49654023172E+02  0.15965000230E+03  0.81121152527E+02 0.  0.
          5    1    3    3  501    0  0.95458502369E+01  0.92225567550E+01  0.57773285722E+02  0.59464454534E+02  0.47000000000E+01 0. -1.
        -13    1    4    4    0    0  0.10967630841E+03 -0.11505100162E+03  0.20976302162E+02  0.16032975660E+03  0.00000000000E+00 0.  1.
         14    1    4    4    0    0 -0.10830656020E+02 -0.52016330042E+02  0.22943980550E+02  0.57874242494E+02  0.00000000000E+00 0. -1.
         -5    1    5    5    0  503 -0.75423367009E+02  0.33929231635E+02 -0.12975042829E+03  0.15393875630E+03  0.47000000000E+01 0.  1.
         13    1    6    6    0    0 -0.47279691506E+02  0.91191609642E+02 -0.55108826145E+01  0.10286714113E+03  0.00000000000E+00 0. -1.
        -14    1    6    6    0    0  0.14311555884E+02  0.32723933625E+02 -0.44143140558E+02  0.56782861164E+02  0.00000000000E+00 0.  1.
</event>
<event>
12    1  0.9028446E-003  0.1908716E+03  0.7818608E-02  0.1157843E+00
         21   -1    0    0  501  502  0.00000000000E+00  0.00000000000E+00  0.57563413740E+02  0.57563413740E+02  0.00000000000E+00 0. -1.
         21   -1    0    0  502  503 -0.00000000000E+00 -0.00000000000E+00 -0.78932483578E+03  0.78932483578E+03  0.00000000000E+00 0. -1.
          6    2    1    2  501    0 -0.71589517296E+02 -0.37763664329E+02 -0.17647987310E+03  0.25995601345E+03  0.17286072426E+03 0.  0.
         24    2    3    3    0    0  0.22627262640E+02 -0.49292279673E+02 -0.91139961671E+02  0.13222699922E+03  0.78966859251E+02 0.  0.
         -6    2    1    2    0  503  0.71589517296E+02  0.37763664329E+02 -0.55528154894E+03  0.58693223607E+03  0.17204853331E+03 0.  0.
        -24    2    5    5    0    0  0.10429023305E+03 -0.24622456118E+01 -0.30506862968E+03  0.33136217599E+03  0.76495146924E+02 0.  0.
          5    1    3    3  501    0 -0.94216779936E+02  0.11528615344E+02 -0.85339911434E+02  0.12772901423E+03  0.47000000000E+01 0. -1.
        -11    1    4    4    0    0  0.66620932549E+01  0.47074956945E+01 -0.72432499823E+02  0.72890404258E+02  0.00000000000E+00 0.  1.
         12    1    4    4    0    0  0.15965169386E+02 -0.53999775367E+02 -0.18707461848E+02  0.59336594965E+02  0.00000000000E+00 0. -1.
         -5    1    5    5    0  503 -0.32700715754E+02  0.40225909941E+02 -0.25021291926E+03  0.25557006007E+03  0.47000000000E+01 0.  1.
         11    1    6    6    0    0  0.73340981872E+02 -0.22458067422E+02 -0.26929756853E+03  0.28000793708E+03  0.00000000000E+00 0. -1.
        -12    1    6    6    0    0  0.30949251177E+02  0.19995821810E+02 -0.35771061148E+02  0.51354238910E+02  0.00000000000E+00 0.  1.
</event>
<event>
12    1  0.9028446E-003  0.2251411E+03  0.7818608E-02  0.1130129E+00
         21   -1    0    0  503  502  0.00000000000E+00  0.00000000000E+00  0.27341240322E+03  0.27341240322E+03  0.00000000000E+00 0.  1.
         21   -1    0    0  501  503 -0.00000000000E+00 -0.00000000000E+00 -0.27774491378E+03  0.27774491378E+03  0.00000000000E+00 0. -1.
          6    2    1    2  501    0  0.12828575970E+03  0.66772203939E+02 -0.16116028090E+03  0.27677900319E+03  0.17238972449E+03 0.  0.
         24    2    3    3    0    0 -0.24323754056E+01  0.28429280287E+02 -0.84653771876E+02  0.12046922563E+03  0.80823466915E+02 0.  0.
         -6    2    1    2    0  502 -0.12828575970E+03 -0.66772203939E+02  0.15682777034E+03  0.27437831380E+03  0.17254780838E+03 0.  0.
        -24    2    5    5    0    0 -0.10652489255E+03 -0.73845014849E+02  0.18400972213E+03  0.23853827340E+03  0.78995513100E+02 0.  0.
          5    1    3    3  501    0  0.13071813510E+03  0.38342923652E+02 -0.76506509019E+02  0.15630977756E+03  0.47000000000E+01 0. -1.
        -11    1    4    4    0    0 -0.20318236239E+02 -0.21043884298E+02 -0.48493552382E+02  0.56633032877E+02  0.00000000000E+00 0.  1.
         12    1    4    4    0    0  0.17885860833E+02  0.49473164585E+02 -0.36160219494E+02  0.63836192757E+02  0.00000000000E+00 0. -1.
         -5    1    5    5    0  502 -0.21760867143E+02  0.70728109102E+01 -0.27181951787E+02  0.35840040400E+02  0.47000000000E+01 0.  1.
         13    1    6    6    0    0 -0.73811177348E+01  0.14744549799E+02  0.35898704912E+02  0.39504425855E+02  0.00000000000E+00 0. -1.
        -14    1    6    6    0    0 -0.99143774818E+02 -0.88589564648E+02  0.14811101721E+03  0.19903384755E+03  0.00000000000E+00 0.  1.
</event>
<event>
12    1  0.9028446E-003  0.2529547E+03  0.7818608E-02  0.1111472E+00
         21   -1    0    0  501  502  0.00000000000E+00  0.00000000000E+00  0.61769741520E+02  0.61769741520E+02  0.00000000000E+00 0. -1.
         21   -1    0    0  502  503 -0.00000000000E+00 -0.00000000000E+00 -0.10435792921E+04  0.10435792921E+04  0.00000000000E+00 0. -1.
          6    2    1    2  501    0  0.58149736234E+02  0.17615049302E+03 -0.44171895439E+03  0.50895659674E+03  0.17178706204E+03 0.  0.
         24    2    3    3    0    0  0.70549222953E+02  0.14325833525E+03 -0.43964132773E+03  0.47343128399E+03  0.73161056116E+02 0.  0.
         -6    2    1    2    0  503 -0.58149736234E+02 -0.17615049302E+03 -0.54009059617E+03  0.59639243686E+03  0.17197586650E+03 0.  0.
        -24    2    5    5    0    0 -0.10610909381E+02 -0.47805814463E+02 -0.10783300998E+03  0.14295996406E+03  0.80072504568E+02 0.  0.
          5    1    3    3  501    0 -0.12399486719E+02  0.32892157769E+02 -0.20776266583E+01  0.35525312752E+02  0.47000000000E+01 0. -1.
        -11    1    4    4    0    0  0.17011933061E+02 -0.36592098991E+01 -0.68894372663E+02  0.71057935998E+02  0.00000000000E+00 0.  1.
         12    1    4    4    0    0  0.53537289892E+02  0.14691754515E+03 -0.37074695507E+03  0.40237334799E+03  0.00000000000E+00 0. -1.
         -5    1    5    5    0  503 -0.47538826854E+02 -0.12834467855E+03 -0.43225758620E+03  0.45343247281E+03  0.47000000000E+01 0.  1.
         11    1    6    6    0    0 -0.34002810853E+02  0.57115186321E+01 -0.50246403349E+02  0.60938605502E+02  0.00000000000E+00 0. -1.
        -12    1    6    6    0    0  0.23391901472E+02 -0.53517333095E+02 -0.57586606630E+02  0.82021358555E+02  0.00000000000E+00 0.  1.
</event>
<event>
12    1  0.9028446E-003  0.1814014E+03  0.7818608E-02  0.1166929E+00
         21   -1    0    0  501  502  0.00000000000E+00  0.00000000000E+00  0.75681093632E+03  0.75681093632E+03  0.00000000000E+00 0.  1.
         21   -1    0    0  502  503 -0.00000000000E+00 -0.00000000000E+00 -0.43698606628E+02  0.43698606628E+02  0.00000000000E+00 0.  1.
          6    2    1    2  501    0 -0.48674452492E+02 -0.16509842320E+02  0.40491413798E+03  0.44288882371E+03  0.17191065648E+03 0.  0.
         24    2    3    3    0    0  0.34454122759E+02 -0.65325625597E+01  0.27201488117E+03  0.28574491325E+03  0.80176673162E+02 0.  0.
         -6    2    1    2    0  503  0.48674452492E+02  0.16509842320E+02  0.30819819171E+03  0.35762071924E+03  0.17396745741E+03 0.  0.
        -24    2    5    5    0    0  0.82405676512E+02  0.40690806163E+02  0.14557021860E+03  0.18971460820E+03  0.79715160375E+02 0.  0.
          5    1    3    3  501    0 -0.83128575252E+02 -0.99772797598E+01  0.13289925681E+03  0.15714391046E+03  0.47000000000E+01 0. -1.
        -11    1    4    4    0    0 -0.11083323550E+02 -0.68710161222E+01  0.36469464805E+01  0.13540721624E+02  0.00000000000E+00 0.  1.
         12    1    4    4    0    0  0.45537446309E+02  0.33845356249E+00  0.26836793469E+03  0.27220419162E+03  0.00000000000E+00 0. -1.
         -5    1    5    5    0  503 -0.33731224020E+02 -0.24180963843E+02  0.16262797311E+03  0.16790611104E+03  0.47000000000E+01 0.  1.
         11    1    6    6    0    0  0.21534886984E+01 -0.19018901773E+02  0.11119951349E+02  0.22136157215E+02  0.00000000000E+00 0. -1.
        -12    1    6    6    0    0  0.80252187814E+02  0.59709707936E+02  0.13445026726E+03  0.16757845099E+03  0.00000000000E+00 0.  1.
</event>
<event>
12    1  0.9028446E-003  0.1881821E+03  0.7818608E-02  0.1160145E+00
         21   -1    0    0  503  502  0.00000000000E+00  0.00000000000E+00  0.17114602181E+03  0.17114602181E+03  0.00000000000E+00 0. -1.
         21   -1    0    0  501  503 -0.00000000000E+00 -0.00000000000E+00 -0.21004519664E+03  0.21004519664E+03  0.00000000000E+00 0.  1.
          6    2    1    2  501    0  0.77557622710E+02 -0.24771737361E+01 -0.43316179087E+02  0.19295730169E+03  0.17127436374E+03 0.  0.
         24    2    3    3    0    0  0.60893942475E+02 -0.62678564517E+02 -0.56556036365E+02  0.12893176372E+03  0.76079824967E+02 0.  0.
         -6    2    1    2    0  502 -0.77557622710E+02  0.24771737361E+01  0.44170042533E+01  0.18823391677E+03  0.17143854953E+03 0.  0.
        -24    2    5    5    0    0 -0.88564957534E+02  0.37577289854E+02  0.47054658901E+02  0.13172516377E+03  0.76691416932E+02 0.  0.
          5    1    3    3  501    0  0.16663680235E+02  0.60201390781E+02  0.13239857278E+02  0.64025537965E+02  0.47000000000E+01 0. -1.
        -11    1    4    4    0    0 -0.83306200435E+01  0.11221957846E+02 -0.11509459630E+02  0.18105226571E+02  0.00000000000E+00 0.  1.
         12    1    4    4    0    0  0.69224562518E+02 -0.73900522363E+02 -0.45046576735E+02  0.11082653715E+03  0.00000000000E+00 0. -1.
         -5    1    5    5    0  502  0.11007334824E+02 -0.35100116118E+02 -0.42637654648E+02  0.56508752997E+02  0.47000000000E+01 0.  1.
         13    1    6    6    0    0 -0.17132304445E+01 -0.19123976011E+02  0.94161872153E+01  0.21385186431E+02  0.00000000000E+00 0. -1.
        -14    1    6    6    0    0 -0.86851727089E+02  0.56701265864E+02  0.37638471686E+02  0.11033997734E+03  0.00000000000E+00 0.  1.
</event>
<event>
12    1  0.9028446E-003  0.2095477E+03  0.7818608E-02  0.1142267E+00
         21   -1    0    0  503  502  0.00000000000E+00  0.00000000000E+00  0.26778872093E+03  0.26778872093E+03  0.00000000000E+00 0. -1.
         21   -1    0    0  501  503 -0.00000000000E+00 -0.00000000000E+00 -0.16306695995E+03  0.16306695995E+03  0.00000000000E+00 0. -1.
          6    2    1    2  501    0 -0.96487675108E+02 -0.71175854370E+02  0.63250879920E+02  0.21724374270E+03  0.16975952473E+03 0.  0.
         24    2    3    3    0    0 -0.29605194264E+02 -0.29588487003E+02 -0.30877891062E+02  0.94422364690E+02  0.78804775914E+02 0.  0.
         -6    2    1    2    0  502  0.96487675108E+02  0.71175854370E+02  0.41470881059E+02  0.21361193819E+03  0.17185561518E+03 0.  0.
        -24    2    5    5    0    0  0.40147221013E+02  0.10811005944E+03  0.14457363943E+02  0.14087816076E+03  0.79611911799E+02 0.  0.
          5    1    3    3  501    0 -0.66882480844E+02 -0.41587367367E+02  0.94128770982E+02  0.12282137800E+03  0.47000000000E+01 0. -1.
        -13    1    4    4    0    0 -0.50652371542E+02 -0.81611895307E+01 -0.37644100135E+02  0.63634472044E+02  0.00000000000E+00 0.  1.
         14    1    4    4    0    0  0.21047177279E+02 -0.21427297472E+02  0.67662090732E+01  0.30787892646E+02  0.00000000000E+00 0. -1.
         -5    1    5    5    0  502  0.56340454095E+02 -0.36934205070E+02  0.27013517116E+02  0.72733777427E+02  0.47000000000E+01 0.  1.
         13    1    6    6    0    0  0.51213982222E+02  0.30591579810E+02  0.18533597927E+02  0.62467679503E+02  0.00000000000E+00 0. -1.
        -14    1    6    6    0    0 -0.11066761209E+02  0.77518479630E+02 -0.40762339845E+01  0.78410481259E+02  0.00000000000E+00 0.  1.
</event>
<event>
12    1  0.9028446E-003  0.3305008E+03  0.7818608E-02  0.1070991E+00
         21   -1    0    0  501  502  0.00000000000E+00  0.00000000000E+00  0.33910630183E+03  0.33910630183E+03  0.00000000000E+00 0. -1.
         21   -1    0    0  502  503 -0.00000000000E+00 -0.00000000000E+00 -0.36216309344E+03  0.36216309344E+03  0.00000000000E+00 0.  1.
          6    2    1    2  501    0  0.13156479960E+02  0.28200625244E+03 -0.12910257615E+03  0.35482144619E+03  0.17184342910E+03 0.  0.
         24    2    3    3    0    0 -0.56999379228E+01  0.20336520422E+03 -0.15718612251E+03  0.26908490476E+03  0.79431185816E+02 0.  0.
         -6    2    1    2    0  503 -0.13156479960E+02 -0.28200625244E+03  0.10604578454E+03  0.34644794909E+03  0.17052816081E+03 0.  0.
        -24    2    5    5    0    0  0.16413600818E+02 -0.25439797421E+03  0.40780813859E+02  0.26951802577E+03  0.77389636635E+02 0.  0.
          5    1    3    3  501    0  0.18856417882E+02  0.78641048219E+02  0.28083546355E+02  0.85736541428E+02  0.47000000000E+01 0. -1.
        -13    1    4    4    0    0 -0.40725718172E+02  0.88107329436E+02 -0.58246264324E+02  0.11319943873E+03  0.00000000000E+00 0.  1.
         14    1    4    4    0    0  0.35025780249E+02  0.11525787479E+03 -0.98939858181E+02  0.15588546603E+03  0.00000000000E+00 0. -1.
         -5    1    5    5    0  503 -0.29570080778E+02 -0.27608278227E+02  0.65264970684E+02  0.76929923322E+02  0.47000000000E+01 0.  1.
         11    1    6    6    0    0  0.38745952037E+02 -0.90929448174E+02  0.33526611963E+02  0.10437167745E+03  0.00000000000E+00 0. -1.
        -12    1    6    6    0    0 -0.22332351218E+02 -0.16346852604E+03  0.72542018956E+01  0.16514634831E+03  0.00000000000E+00 0.  1.
</event>
<event>
12    1  0.9028446E-003  0.1815862E+03  0.7818608E-02  0.1166714E+00
         21   -1    0    0  501  502  0.00000000000E+00  0.00000000000E+00  0.58551858822E+03  0.58551858822E+03  0.00000000000E+00 0.  1.
         21   -1    0    0  502  503 -0.00000000000E+00 -0.00000000000E+00 -0.57682832693E+02  0.57682832693E+02  0.00000000000E+00 0.  1.
          6    2    1    2  501    0 -0.29400235469E+02  0.34011536361E+02  0.32402804328E+03  0.37144006689E+03  0.17593291906E+03 0.  0.
         24    2    3    3    0    0  0.31044425987E+01  0.54452065134E+02  0.32064685436E+03  0.33260848501E+03  0.69565322763E+02 0.  0.
         -6    2    1    2    0  503  0.29400235469E+02 -0.34011536361E+02  0.20380771224E+03  0.27176135402E+03  0.17405600110E+03 0.  0.
        -24    2    5    5    0    0  0.16507242303E+02 -0.89521676520E+02  0.13746409068E+03  0.18417613235E+03  0.82084419258E+02 0.  0.
          5    1    3    3  501    0 -0.32504678067E+02 -0.20440528774E+02  0.33811889266E+01  0.38831581881E+02  0.47000000000E+01 0. -1.
        -11    1    4    4    0    0  0.16200050643E+02  0.71234471143E+01  0.15468611141E+02  0.23504532972E+02  0.00000000000E+00 0.  1.
         12    1    4    4    0    0 -0.13095608044E+02  0.47328618020E+02  0.30517824322E+03  0.30910395204E+03  0.00000000000E+00 0. -1.
         -5    1    5    5    0  503  0.12892993166E+02  0.55510140159E+02  0.66343621563E+02  0.87585221672E+02  0.47000000000E+01 0.  1.
         13    1    6    6    0    0  0.19492167986E+02 -0.42297506967E+02  0.12760931384E+03  0.13584241122E+03  0.00000000000E+00 0. -1.
        -14    1    6    6    0    0 -0.29849256828E+01 -0.47224169552E+02  0.98547768419E+01  0.48333721126E+02  0.00000000000E+00 0.  1.
</event>
<event>
12    1  0.9028446E-003  0.2460162E+03  0.7818608E-02  0.1118032E+00
         21   -1    0    0  503  502  0.00000000000E+00  0.00000000000E+00  0.69377408080E+02  0.69377408080E+02  0.00000000000E+00 0. -1.
         21   -1    0    0  501  503 -0.00000000000E+00 -0.00000000000E+00 -0.95216457618E+03  0.95216457618E+03  0.00000000000E+00 0.  1.
          6    2    1    2  501    0  0.54083316888E+02 -0.14804413275E+03 -0.61644993388E+03  0.65896857937E+03  0.17142636087E+03 0.  0.
         24    2    3    3    0    0  0.77285663092E+02 -0.65235243493E+02 -0.48815792462E+03  0.50444806082E+03  0.77077726930E+02 0.  0.
         -6    2    1    2    0  502 -0.54083316888E+02  0.14804413275E+03 -0.26633723422E+03  0.36257340489E+03  0.18889648275E+03 0.  0.
        -24    2    5    5    0    0  0.32065923714E+02  0.23164600134E+02 -0.66099988336E+02  0.11130933272E+03  0.80347600652E+02 0.  0.
          5    1    3    3  501    0 -0.23202346204E+02 -0.82808889261E+02 -0.12829200927E+03  0.15452051855E+03  0.47000000000E+01 0. -1.
        -11    1    4    4    0    0  0.44692059114E+02  0.88672866827E+01 -0.15216007748E+03  0.15883544346E+03  0.00000000000E+00 0.  1.
         12    1    4    4    0    0  0.32593603978E+02 -0.74102530176E+02 -0.33599784713E+03  0.34561261736E+03  0.00000000000E+00 0. -1.
         -5    1    5    5    0  502 -0.86149240603E+02  0.12487953262E+03 -0.20023724588E+03  0.25126407217E+03  0.47000000000E+01 0.  1.
         11    1    6    6    0    0 -0.62063192540E+01 -0.57575026838E+01  0.14918953886E+02  0.17153495880E+02  0.00000000000E+00 0. -1.
        -12    1    6    6    0    0  0.38272242968E+02  0.28922102818E+02 -0.81018942222E+02  0.94155836845E+02  0.00000000000E+00 0.  1.
</event>
<event>
12    1  0.9028446E-003  0.1934559E+03  0.7818608E-02  0.1155786E+00
         21   -1    0    0  503  502  0.00000000000E+00  0.00000000000E+00  0.12966453649E+03  0.12966453649E+03  0.00000000000E+00 0. -1.
         21   -1    0    0  501  503 -0.00000000000E+00 -0.00000000000E+00 -0.28741118364E+03  0.28741118364E+03  0.00000000000E+00 0.  1.
          6    2    1    2  501    0 -0.82657307766E+02  0.17957325080E+02 -0.94327191151E+02  0.21522736005E+03  0.17398419891E+03 0.  0.
         24    2    3    3    0    0 -0.11338528589E+03 -0.15049356527E+02 -0.96378831788E+02  0.16984070012E+03  0.80462898366E+02 0.  0.
         -6    2    1    2    0  502  0.82657307766E+02 -0.17957325080E+02 -0.63419455997E+02  0.20184836008E+03  0.17194777410E+03 0.  0.
        -24    2    5    5    0    0  0.26027030527E+02 -0.51155648427E+02 -0.86679335493E+02  0.13204700646E+03  0.81417430749E+02 0.  0.
          5    1    3    3  501    0  0.30727978120E+02  0.33006681607E+02  0.20516406370E+01  0.45386659927E+02  0.47000000000E+01 0. -1.
        -11    1    4    4    0    0 -0.20940276415E+02 -0.38109845191E+02 -0.40284906870E+02  0.59276717170E+02  0.00000000000E+00 0.  1.
         12    1    4    4    0    0 -0.92445009471E+02  0.23060488664E+02 -0.56093924918E+02  0.11056398295E+03  0.00000000000E+00 0. -1.
         -5    1    5    5    0  502  0.56630277239E+02  0.33198323348E+02  0.23259879496E+02  0.69801353622E+02  0.47000000000E+01 0.  1.
         13    1    6    6    0    0 -0.15269136472E+01 -0.17524432348E+01  0.15275196382E+02  0.15451024143E+02  0.00000000000E+00 0. -1.
        -14    1    6    6    0    0  0.27553944174E+02 -0.49403205192E+02 -0.10195453187E+03  0.11659598232E+03  0.00000000000E+00 0.  1.
</event>
<event>
12    1  0.9028446E-003  0.2631297E+03  0.7818608E-02  0.1106908E+00
         21   -1    0    0  503  502  0.00000000000E+00  0.00000000000E+00  0.68293926507E+03  0.68293926507E+03  0.00000000000E+00 0. -1.
         21   -1    0    0  501  503 -0.00000000000E+00 -0.00000000000E+00 -0.10431070103E+03  0.10431070103E+03  0.00000000000E+00 0.  1.
          6    2    1    2  501    0 -0.16107087819E+03  0.88803110626E+02  0.19271054131E+03  0.32615114719E+03  0.18816853570E+03 0.  0.
         24    2    3    3    0    0 -0.13075164536E+03 -0.15660159536E+02  0.10149837013E+03  0.18411741577E+03  0.79095324054E+02 0.  0.
         -6    2    1    2    0  502  0.16107087819E+03 -0.88803110626E+02  0.38591802273E+03  0.46109881890E+03  0.17277031072E+03 0.  0.
        -24    2    5    5    0    0  0.10737820497E+03 -0.57851504277E+02  0.12186925640E+03  0.18983373436E+03  0.79422009507E+02 0.  0.
          5    1    3    3  501    0 -0.30319232826E+02  0.10446327016E+03  0.91212171178E+02  0.14203373143E+03  0.47000000000E+01 0. -1.
        -11    1    4    4    0    0 -0.98077306843E+02 -0.25500414025E+02  0.10936576992E+03  0.14909829263E+03  0.00000000000E+00 0.  1.
         12    1    4    4    0    0 -0.32674338521E+02  0.98402544887E+01 -0.78673997902E+01  0.35019123142E+02  0.00000000000E+00 0. -1.
         -5    1    5    5    0  502  0.53692673221E+02 -0.30951606349E+02  0.26404876633E+03  0.27126508455E+03  0.47000000000E+01 0.  1.
         13    1    6    6    0    0  0.11422501992E+03 -0.33432997505E+02  0.10903098828E+03  0.16140903601E+03  0.00000000000E+00 0. -1.
        -14    1    6    6    0    0 -0.68468149538E+01 -0.24418506773E+02  0.12838268121E+02  0.28424698351E+02  0.00000000000E+00 0.  1.
</event>
<event>
12    1  0.9028446E-003  0.1847000E+03  0.7818608E-02  0.1163358E+00
         21   -1    0    0  503  502  0.00000000000E+00  0.00000000000E+00  0.10990457562E+03  0.10990457562E+03  0.00000000000E+00 0. -1.
         21   -1    0    0  501  503 -0.00000000000E+00 -0.00000000000E+00 -0.34639720113E+03  0.34639720113E+03  0.00000000000E+00 0.  1.
          6    2    1    2  501    0 -0.48252736065E+02 -0.44886316393E+02 -0.44527545816E+02  0.18999151451E+03  0.17254264781E+03 0.  0.
         24    2    3    3    0    0 -0.37202425662E+02  0.37291416542E+02 -0.50767696604E+02  0.10670695032E+03  0.77681040193E+02 0.  0.
         -6    2    1    2    0  502  0.48252736065E+02  0.44886316393E+02 -0.19196507970E+03  0.26631026224E+03  0.17241651897E+03 0.  0.
        -24    2    5    5    0    0 -0.39665924040E+02  0.24083469578E+02 -0.11102450359E+03  0.14491868061E+03  0.80756328270E+02 0.  0.
          5    1    3    3  501    0 -0.11050310403E+02 -0.82177732934E+02  0.62401507877E+01  0.83284564188E+02  0.47000000000E+01 0. -1.
        -11    1    4    4    0    0 -0.14858627292E+02  0.23695398715E+02 -0.69247178690E+02  0.74682142991E+02  0.00000000000E+00 0.  1.
         12    1    4    4    0    0 -0.22343798370E+02  0.13596017827E+02  0.18479482086E+02  0.32024807330E+02  0.00000000000E+00 0. -1.
         -5    1    5    5    0  502  0.87918660105E+02  0.20802846815E+02 -0.80940576106E+02  0.12139158163E+03  0.47000000000E+01 0.  1.
         11    1    6    6    0    0 -0.21880213256E+02 -0.23658858445E+02 -0.13601777447E+02  0.34978474306E+02  0.00000000000E+00 0. -1.
        -12    1    6    6    0    0 -0.17785710785E+02  0.47742328023E+02 -0.97422726143E+02  0.10994020630E+03  0.00000000000E+00 0.  1.
</event>
<event>
12    1  0.9028446E-003  0.1870595E+03  0.7818608E-02  0.1161142E+00
         21   -1    0    0  503  502  0.00000000000E+00  0.00000000000E+00  0.63263884889E+03  0.63263884889E+03  0.00000000000E+00 0.  1.
         21   -1    0    0  501  503 -0.00000000000E+00 -0.00000000000E+00 -0.55456715073E+02  0.55456715073E+02  0.00000000000E+00 0.  1.
          6    2    1    2  501    0  0.74192934293E+02 -0.18996221380E+01  0.30640694690E+03  0.35898999872E+03  0.17169857894E+03 0.  0.
         24    2    3    3    0    0  0.61037500614E+02 -0.67448524553E+02  0.20936594551E+03  0.24105455030E+03  0.77448803319E+02 0.  0.
         -6    2    1    2    0  502 -0.74192934293E+02  0.18996221380E+01  0.27077518692E+03  0.32910556524E+03  0.17170635154E+03 0.  0.
        -24    2    5    5    0    0 -0.50278897456E+02 -0.43597367522E+02  0.23649211757E+03  0.26714367317E+03  0.10492150616E+03 0.  0.
          5    1    3    3  501    0  0.13155433679E+02  0.65548902415E+02  0.97041001384E+02  0.11793544841E+03  0.47000000000E+01 0. -1.
        -13    1    4    4    0    0  0.68668724000E+02 -0.63107266679E+02  0.12358900809E+03  0.15482946646E+03  0.00000000000E+00 0.  1.
         14    1    4    4    0    0 -0.76312233856E+01 -0.43412578743E+01  0.85776937417E+02  0.86225083838E+02  0.00000000000E+00 0. -1.
         -5    1    5    5    0  502 -0.23914036837E+02  0.45496989660E+02  0.34283069347E+02  0.61961892077E+02  0.47000000000E+01 0.  1.
         13    1    6    6    0    0  0.29682609749E+02  0.98194332205E+00  0.35504649129E+02  0.46288245203E+02  0.00000000000E+00 0. -1.
        -14    1    6    6    0    0 -0.79961507205E+02 -0.44579310844E+02  0.20098746844E+03  0.22085542796E+03  0.00000000000E+00 0.  1.
</event>
<event>
12    1  0.9028446E-003  0.1779816E+03  0.7818608E-02  0.1170462E+00
         21   -1    0    0  501  502  0.00000000000E+00  0.00000000000E+00  0.98277060302E+03  0.98277060302E+03  0.00000000000E+00 0. -1.
         21   -1    0    0  502  503 -0.00000000000E+00 -0.00000000000E+00 -0.41452828634E+02  0.41452828634E+02  0.00000000000E+00 0. -1.
          6    2    1    2  501    0  0.12574774647E+02  0.30248510258E+02  0.72152216707E+03  0.74314983196E+03  0.17494095531E+03 0.  0.
         24    2    3    3    0    0  0.21700065514E+02  0.72220315665E+02  0.65215205001E+03  0.66142341932E+03  0.80572802216E+02 0.  0.
         -6    2    1    2    0  503 -0.12574774647E+02 -0.30248510258E+02  0.21979560731E+03  0.28107359969E+03  0.17210218510E+03 0.  0.
        -24    2    5    5    0    0 -0.60467852326E+01 -0.80236725073E+02  0.19066870638E+03  0.22266210575E+03  0.82154501284E+02 0.  0.
          5    1    3    3  501    0 -0.91252908667E+01 -0.41971805407E+02  0.69370117057E+02  0.81726412640E+02  0.47000000000E+01 0. -1.
        -11    1    4    4    0    0  0.15734308056E+02  0.88536289763E+01  0.42879897007E+03  0.42917888104E+03  0.00000000000E+00 0.  1.
         12    1    4    4    0    0  0.59657574580E+01  0.63366686688E+02  0.22335307994E+03  0.23224453829E+03  0.00000000000E+00 0. -1.
         -5    1    5    5    0  503 -0.65279894145E+01  0.49988214815E+02  0.29126900932E+02  0.58411493938E+02  0.47000000000E+01 0.  1.
         11    1    6    6    0    0  0.33005377796E+02 -0.16789403592E+02  0.90836921198E+02  0.98094777073E+02  0.00000000000E+00 0. -1.
        -12    1    6    6    0    0 -0.39052163028E+02 -0.63447321480E+02  0.99831785182E+02  0.12456732867E+03  0.00000000000E+00 0.  1.
</event>
<event>
12    1  0.9028446E-003  0.1760727E+03  0.7818608E-02  0.1173042E+00
         21   -1    0    0  503  502  0.00000000000E+00  0.00000000000E+00  0.44046625665E+03  0.44046625665E+03  0.00000000000E+00 0. -1.
         21   -1    0    0  501  503 -0.00000000000E+00 -0.00000000000E+00 -0.80233158413E+02  0.80233158413E+02  0.00000000000E+00 0. -1.
          6    2    1    2  501    0  0.21231965684E+02  0.25340165230E+02  0.76966483987E+02  0.18717042842E+03  0.16737983534E+03 0.  0.
         24    2    3    3    0    0  0.10652292753E+02  0.74107910323E+02  0.82611397745E+02  0.13673058810E+03  0.79152744556E+02 0.  0.
         -6    2    1    2    0  502 -0.21231965684E+02 -0.25340165230E+02  0.28326661425E+03  0.33352898664E+03  0.17294129015E+03 0.  0.
        -24    2    5    5    0    0  0.49152124901E+02 -0.24129902924E+02  0.11398255750E+03  0.15013169437E+03  0.80927860731E+02 0.  0.
          5    1    3    3  501    0  0.10579672931E+02 -0.48767745093E+02 -0.56449137577E+01  0.50439840326E+02  0.47000000000E+01 0. -1.
        -13    1    4    4    0    0  0.35820391976E+02  0.11609897709E+02  0.12955066615E+02  0.39821149621E+02  0.00000000000E+00 0.  1.
         14    1    4    4    0    0 -0.25168099224E+02  0.62498012614E+02  0.69656331130E+02  0.96909438476E+02  0.00000000000E+00 0. -1.
         -5    1    5    5    0  502 -0.70384090585E+02 -0.12102623061E+01  0.16928405675E+03  0.18339729227E+03  0.47000000000E+01 0.  1.
         11    1    6    6    0    0  0.43250693433E+02 -0.42587048137E+02  0.37760858115E+02  0.71485394012E+02  0.00000000000E+00 0. -1.
        -12    1    6    6    0    0  0.59014314680E+01  0.18457145213E+02  0.76221699383E+02  0.78646300356E+02  0.00000000000E+00 0.  1.
</event>
<event>
12    1  0.9028446E-003  0.1998309E+03  0.7818608E-02  0.1150046E+00
         21   -1    0    0  503  502  0.00000000000E+00  0.00000000000E+00  0.13402768056E+04  0.13402768056E+04  0.00000000000E+00 0.  1.
         21   -1    0    0  501  503 -0.00000000000E+00 -0.00000000000E+00 -0.30253125190E+02  0.30253125190E+02  0.00000000000E+00 0. -1.
          6    2    1    2  501    0 -0.28508582794E+02 -0.97163005111E+02  0.55933650511E+03  0.59370071532E+03  0.17137626605E+03 0.  0.
         24    2    3    3    0    0 -0.14428274909E+02 -0.10429505837E+03  0.56169495883E+03  0.57706420253E+03  0.80101390408E+02 0.  0.
         -6    2    1    2    0  502  0.28508582794E+02  0.97163005111E+02  0.75068717534E+03  0.77682921551E+03  0.17227595885E+03 0.  0.
        -24    2    5    5    0    0 -0.31416565204E+02  0.21835226198E+02  0.34965319339E+03  0.36437843988E+03  0.95134190123E+02 0.  0.
          5    1    3    3  501    0 -0.14080307885E+02  0.71320532601E+01 -0.23584537228E+01  0.16636512790E+02  0.47000000000E+01 0. -1.
        -11    1    4    4    0    0  0.99114276551E+01 -0.82408633944E+02  0.24491741778E+03  0.25860000170E+03  0.00000000000E+00 0.  1.
         12    1    4    4    0    0 -0.24339702564E+02 -0.21886424427E+02  0.31677754105E+03  0.31846420083E+03  0.00000000000E+00 0. -1.
         -5    1    5    5    0  502  0.59925147998E+02  0.75327778913E+02  0.40103398195E+03  0.41245077563E+03  0.47000000000E+01 0.  1.
         13    1    6    6    0    0  0.14080818104E+02  0.46546925089E+02  0.20653288953E+03  0.21218086656E+03  0.00000000000E+00 0. -1.
        -14    1    6    6    0    0 -0.45497383308E+02 -0.24711698891E+02  0.14312030386E+03  0.15219757332E+03  0.00000000000E+00 0.  1.
</event>
<event>
12    1  0.9028446E-003  0.1868299E+03  0.7818608E-02  0.1161473E+00
         21   -1    0    0  501  502  0.00000000000E+00  0.00000000000E+00  0.82151358274E+02  0.82151358274E+02  0.00000000000E+00 0.  1.
         21   -1    0    0  502  503 -0.00000000000E+00 -0.00000000000E+00 -0.44918894344E+03  0.44918894344E+03  0.00000000000E+00 0. -1.
          6    2    1    2  501    0  0.35833875577E+02  0.60913832604E+02 -0.24704994320E+03  0.30974035603E+03  0.17294754140E+03 0.  0.
         24    2    3    3    0    0 -0.31449323990E+02  0.52916466970E+02 -0.66975289847E+02  0.11728267865E+03  0.74029215896E+02 0.  0.
         -6    2    1    2    0  503 -0.35833875577E+02 -0.60913832604E+02 -0.11998764197E+03  0.22159994569E+03  0.17238021946E+03 0.  0.
        -24    2    5    5    0    0 -0.92707898379E+01  0.23130767976E+02 -0.10343382576E+03  0.13179342453E+03  0.77781556087E+02 0.  0.
          5    1    3    3  501    0  0.67283199566E+02  0.79973656348E+01 -0.18007465335E+03  0.19245767738E+03  0.47000000000E+01 0. -1.
        -11    1    4    4    0    0  0.57415256919E+01 -0.15741028309E+02 -0.46873256162E+01  0.17398738774E+02  0.00000000000E+00 0.  1.
         12    1    4    4    0    0 -0.37190849682E+02  0.68657495278E+02 -0.62287964230E+02  0.99883939880E+02  0.00000000000E+00 0. -1.
         -5    1    5    5    0  503 -0.26563085739E+02 -0.84044600580E+02 -0.16553816210E+02  0.89806521154E+02  0.47000000000E+01 0.  1.
         13    1    6    6    0    0 -0.23954624994E+02 -0.51928441102E+01 -0.95939883724E+02  0.99021467256E+02  0.00000000000E+00 0. -1.
        -14    1    6    6    0    0  0.14683835156E+02  0.28323612086E+02 -0.74939420358E+01  0.32771957276E+02  0.00000000000E+00 0.  1.
</event>
<event>
12    1  0.9028446E-003  0.1844466E+03  0.7818608E-02  0.1163778E+00
         21   -1    0    0  503  502  0.00000000000E+00  0.00000000000E+00  0.55641232562E+02  0.55641232562E+02  0.00000000000E+00 0. -1.
         21   -1    0    0  501  503 -0.00000000000E+00 -0.00000000000E+00 -0.62245432079E+03  0.62245432079E+03  0.00000000000E+00 0.  1.
          6    2    1    2  501    0 -0.22493651779E+02 -0.60932545102E+02 -0.23190169097E+03  0.29575251265E+03  0.17167531867E+03 0.  0.
         24    2    3    3    0    0 -0.40432371931E+02 -0.10179579278E+03 -0.17943900639E+03  0.22671610222E+03  0.84880350284E+02 0.  0.
         -6    2    1    2    0  502  0.22493651779E+02  0.60932545102E+02 -0.33491139726E+03  0.38234304070E+03  0.17263202871E+03 0.  0.
        -24    2    5    5    0    0 -0.37796888615E+02  0.49231200103E+02 -0.10868767869E+03  0.14788380847E+03  0.78767337493E+02 0.  0.
          5    1    3    3  501    0  0.17938720152E+02  0.40863247679E+02 -0.52462684577E+02  0.69036410427E+02  0.47000000000E+01 0. -1.
        -11    1    4    4    0    0  0.20826357002E+02 -0.15547628928E+02 -0.69242025882E+02  0.73958934954E+02  0.00000000000E+00 0.  1.
         12    1    4    4    0    0 -0.61258728934E+02 -0.86248163853E+02 -0.11019698051E+03  0.15275716727E+03  0.00000000000E+00 0. -1.
         -5    1    5    5    0  502  0.60290540394E+02  0.11701344998E+02 -0.22622371857E+03  0.23445923223E+03  0.47000000000E+01 0.  1.
         13    1    6    6    0    0 -0.40663431173E+02  0.59253826331E+02 -0.11506513907E+03  0.13566324778E+03  0.00000000000E+00 0. -1.
        -14    1    6    6    0    0  0.28665425581E+01 -0.10022626228E+02  0.63774603759E+01  0.12220560690E+02  0.00000000000E+00 0.  1.
</event>
<event>
12    1  0.9028446E-003  0.2197684E+03  0.7818608E-02  0.1134063E+00
         21   -1    0    0  503  502  0.00000000000E+00  0.00000000000E+00  0.75955396517E+03  0.75955396517E+03  0.00000000000E+00 0. -1.
         21   -1    0    0  501  503 -0.00000000000E+00 -0.00000000000E+00 -0.71822797959E+02  0.71822797959E+02  0.00000000000E+00 0. -1.
          6    2    1    2  501    0  0.12380689202E+03  0.58601520273E+02  0.20298738560E+03  0.29914122355E+03  0.17181183960E+03 0.  0.
         24    2    3    3    0    0  0.78946928423E+02  0.10445038947E+03  0.12231579526E+03  0.19596888895E+03  0.79373486105E+02 0.  0.
         -6    2    1    2    0  502 -0.12380689202E+03 -0.58601520273E+02  0.48474378162E+03  0.53223553958E+03  0.17185997524E+03 0.  0.
        -24    2    5    5    0    0 -0.11195583421E+03 -0.53881460103E+02  0.49401985672E+03  0.51577765064E+03  0.80830968703E+02 0.  0.
          5    1    3    3  501    0  0.44859963592E+02 -0.45848869196E+02  0.80671590335E+02  0.10317233460E+03  0.47000000000E+01 0. -1.
        -11    1    4    4    0    0  0.57110575870E+02  0.99210758060E+02  0.58990767688E+02  0.12878005693E+03  0.00000000000E+00 0.  1.
         12    1    4    4    0    0  0.21836352553E+02  0.52396314100E+01  0.63325027575E+02  0.67188832015E+02  0.00000000000E+00 0. -1.
         -5    1    5    5    0  502 -0.11851057806E+02 -0.47200601703E+01 -0.92760751087E+01  0.16457888946E+02  0.47000000000E+01 0.  1.
         11    1    6    6    0    0 -0.19806127378E+02 -0.10496383622E+02  0.17344641067E+02  0.28342429758E+02  0.00000000000E+00 0. -1.
        -12    1    6    6    0    0 -0.92149706832E+02 -0.43385076481E+02  0.47667521566E+03  0.48743522088E+03  0.00000000000E+00 0.  1.
</event>
<event>
12    1  0.9028446E-003  0.2066461E+03  0.7818608E-02  0.1145159E+00
         21   -1    0    0  503  502  0.00000000000E+00  0.00000000000E+00  0.30018086592E+03  0.30018086592E+03  0.00000000000E+00 0.  1.
         21   -1    0    0  501  503 -0.00000000000E+00 -0.00000000000E+00 -0.14153609069E+03  0.14153609069E+03  0.00000000000E+00 0. -1.
          6    2    1    2  501    0 -0.91996134179E+02  0.50897547963E+02  0.50170265701E+02  0.20833026373E+03  0.17271535581E+03 0.  0.
         24    2    3    3    0    0 -0.68302076129E+02  0.10111921062E+03  0.25654951962E+02  0.14744747146E+03  0.78691244240E+02 0.  0.
         -6    2    1    2    0  502  0.91996134179E+02 -0.50897547963E+02  0.10847450953E+03  0.23338669288E+03  0.17790104020E+03 0.  0.
        -24    2    5    5    0    0  0.67528063579E+02  0.38068515241E+02  0.45589123322E+02  0.12162664331E+03  0.81886634899E+02 0.  0.
          5    1    3    3  501    0 -0.23694058051E+02 -0.50221662656E+02  0.24515313739E+02  0.60882792269E+02  0.47000000000E+01 0. -1.
        -11    1    4    4    0    0  0.46882803166E+01  0.54051674645E+02  0.26967972977E+02  0.60587416769E+02  0.00000000000E+00 0.  1.
         12    1    4    4    0    0 -0.72990356445E+02  0.47067535973E+02 -0.13130210144E+01  0.86860054690E+02  0.00000000000E+00 0. -1.
         -5    1    5    5    0  502  0.24468070600E+02 -0.88966063204E+02  0.62885386208E+02  0.11176004957E+03  0.47000000000E+01 0.  1.
         11    1    6    6    0    0 -0.18239100724E+02  0.79948426090E+01 -0.71877801082E-01  0.19914504010E+02  0.00000000000E+00 0. -1.
        -12    1    6    6    0    0  0.85767164303E+02  0.30073672632E+02  0.45661001123E+02  0.10171213930E+03  0.00000000000E+00 0.  1.
</event>
<event>
12    1  0.9028446E-003  0.2039425E+03  0.7818608E-02  0.1146722E+00
         21   -1    0    0  503  502  0.00000000000E+00  0.00000000000E+00  0.48014321963E+02  0.48014321963E+02  0.00000000000E+00 0.  1.
         21   -1    0    0  501  503 -0.00000000000E+00 -0.00000000000E+00 -0.19544136518E+04  0.19544136518E+04  0.00000000000E+00 0.  1.
          6    2    1    2  501    0  0.76791485238E+01 -0.10863524294E+03 -0.17034981323E+04  0.17156626758E+04  0.17242953675E+03 0.  0.
         24    2    3    3    0    0  0.73373845962E+02 -0.55151342435E+02 -0.10207573634E+04  0.10276704024E+04  0.75732879446E+02 0.  0.
         -6    2    1    2    0  502 -0.76791485238E+01  0.10863524294E+03 -0.20290119755E+03  0.28676529795E+03  0.17089427963E+03 0.  0.
        -24    2    5    5    0    0  0.37027977421E+02  0.17172234593E+02 -0.48857461607E+02  0.10206074579E+03  0.79770843817E+02 0.  0.
          5    1    3    3  501    0 -0.65694697438E+02 -0.53483900504E+02 -0.68274076882E+03  0.68799227343E+03  0.47000000000E+01 0. -1.
        -11    1    4    4    0    0  0.38003493099E+02 -0.36317876879E+02 -0.87283262626E+03  0.87441411650E+03  0.00000000000E+00 0.  1.
         12    1    4    4    0    0  0.35370352863E+02 -0.18833465557E+02 -0.14792473717E+03  0.15325628585E+03  0.00000000000E+00 0. -1.
         -5    1    5    5    0  502 -0.44707125945E+02  0.91463008347E+02 -0.15404373595E+03  0.18470455217E+03  0.47000000000E+01 0.  1.
         11    1    6    6    0    0  0.41610808919E+01  0.36575961330E+02 -0.52059136133E+02  0.63759463583E+02  0.00000000000E+00 0. -1.
        -12    1    6    6    0    0  0.32866896529E+02 -0.19403726738E+02  0.32016745261E+01  0.38301282205E+02  0.00000000000E+00 0.  1.
</event>
<event>
12    1  0.9028446E-003  0.1954605E+03  0.7818608E-02  0.1155985E+00
         21   -1    0    0  503  502  0.00000000000E+00  0.00000000000E+00  0.12928625805E+03  0.12928625805E+03  0.00000000000E+00 0.  1.
         21   -1    0    0  501  503 -0.00000000000E+00 -0.00000000000E+00 -0.29844511424E+03  0.29844511424E+03  0.00000000000E+00 0.  1.
          6    2    1    2  501    0 -0.67021238798E+02  0.57195076795E+02 -0.13583082257E+03  0.22944980479E+03  0.16258559990E+03 0.  0.
         24    2    3    3    0    0 -0.78575593673E+02  0.27431022973E+02 -0.15387191121E+03  0.19247720823E+03  0.80276557520E+02 0.  0.
         -6    2    1    2    0  502  0.67021238798E+02 -0.57195076795E+02 -0.33328033615E+02  0.19828156750E+03  0.17447549664E+03 0.  0.
        -24    2    5    5    0    0  0.87882370648E+02  0.14660585545E+02 -0.74423649623E+01  0.11896838528E+03  0.78484674051E+02 0.  0.
          5    1    3    3  501    0  0.11554354874E+02  0.29764053822E+02  0.18041088641E+02  0.36972596552E+02  0.47000000000E+01 0. -1.
        -11    1    4    4    0    0 -0.90789300446E+02  0.30265958930E+02 -0.15225619987E+03  0.17983513490E+03  0.00000000000E+00 0.  1.
         12    1    4    4    0    0  0.12213706773E+02 -0.28349359562E+01 -0.16157113398E+01  0.12642073333E+02  0.00000000000E+00 0. -1.
         -5    1    5    5    0  502 -0.20861131850E+02 -0.71855662339E+02 -0.25885668653E+02  0.79313182220E+02  0.47000000000E+01 0.  1.
         13    1    6    6    0    0  0.35003034532E+02  0.17759674784E+02 -0.40604230469E+02  0.56474082612E+02  0.00000000000E+00 0. -1.
        -14    1    6    6    0    0  0.52879336117E+02 -0.30990892391E+01  0.33161865507E+02  0.62494302670E+02  0.00000000000E+00 0.  1.
</event>
<event>
12    1  0.9028446E-003  0.2078903E+03  0.7818608E-02  0.1143258E+00
         21   -1    0    0  501  502  0.00000000000E+00  0.00000000000E+00  0.28664507032E+03  0.28664507032E+03  0.00000000000E+00 0.  1.
         21   -1    0    0  502  503 -0.00000000000E+00 -0.00000000000E+00 -0.16304549732E+03  0.16304549732E+03  0.00000000000E+00 0.  1.
          6    2    1    2  501    0 -0.92666552234E+02 -0.72031708448E+02  0.12359029059E+03  0.24185314446E+03  0.17158883015E+03 0.  0.
         24    2    3    3    0    0 -0.68914211864E+02 -0.11121770473E+03  0.11452401791E+03  0.19490633117E+03  0.88057826516E+02 0.  0.
         -6    2    1    2    0  503  0.92666552234E+02  0.72031708448E+02  0.92824104841E-02  0.20783742318E+03  0.17152474301E+03 0.  0.
        -24    2    5    5    0    0 -0.38149475753E+01  0.41199441238E+02 -0.40833694152E+02  0.98523438526E+02  0.79545770331E+02 0.  0.
          5    1    3    3  501    0 -0.23752340370E+02  0.39185996282E+02  0.90662726792E+01  0.46946813289E+02  0.47000000000E+01 0. -1.
        -11    1    4    4    0    0 -0.27683505892E+01 -0.67380047770E+02  0.88765395621E+02  0.11147658975E+03  0.00000000000E+00 0.  1.
         12    1    4    4    0    0 -0.66145861275E+02 -0.43837656961E+02  0.25758622287E+02  0.83429741422E+02  0.00000000000E+00 0. -1.
         -5    1    5    5    0  503  0.96481499809E+02  0.30832267210E+02  0.40842976563E+02  0.10931398466E+03  0.47000000000E+01 0.  1.
         11    1    6    6    0    0 -0.28400457305E+02  0.28330176950E+02  0.93394508020E+01  0.41187501047E+02  0.00000000000E+00 0. -1.
        -12    1    6    6    0    0  0.24585509730E+02  0.12869264287E+02 -0.50173144954E+02  0.57335937479E+02  0.00000000000E+00 0.  1.
</event>
<event>
12    1  0.9028446E-003  0.1771854E+03  0.7818608E-02  0.1170595E+00
         21   -1    0    0  503  502  0.00000000000E+00  0.00000000000E+00  0.19810154736E+04  0.19810154736E+04  0.00000000000E+00 0.  1.
         21   -1    0    0  501  503 -0.00000000000E+00 -0.00000000000E+00 -0.16188939928E+02  0.16188939928E+02  0.00000000000E+00 0.  1.
          6    2    1    2  501    0 -0.60965088551E-01 -0.42747477091E+02  0.83485381581E+03  0.85344921002E+03  0.17195147510E+03 0.  0.
         24    2    3    3    0    0 -0.85141389460E+01 -0.95193193984E+02  0.51153566584E+03  0.52576227792E+03  0.74986670210E+02 0.  0.
         -6    2    1    2    0  502  0.60965088551E-01  0.42747477091E+02  0.11299727179E+04  0.11437552036E+04  0.17178554054E+03 0.  0.
        -24    2    5    5    0    0 -0.42369074406E+02 -0.10269733814E+02  0.45434906266E+03  0.46471135635E+03  0.87309610473E+02 0.  0.
          5    1    3    3  501    0  0.84531738574E+01  0.52445716893E+02  0.32331814997E+03  0.32768693210E+03  0.47000000000E+01 0. -1.
        -11    1    4    4    0    0 -0.55570929126E+01 -0.33618736200E+02  0.52388033979E+02  0.62494854264E+02  0.00000000000E+00 0.  1.
         12    1    4    4    0    0 -0.29570460334E+01 -0.61574457784E+02  0.45914763186E+03  0.46326742365E+03  0.00000000000E+00 0. -1.
         -5    1    5    5    0  502  0.42430039495E+02  0.53017210905E+02  0.67562365525E+03  0.67904384721E+03  0.47000000000E+01 0.  1.
         11    1    6    6    0    0 -0.28163904876E+02  0.34140098150E+02  0.30665254873E+03  0.30982985247E+03  0.00000000000E+00 0. -1.
        -12    1    6    6    0    0 -0.14205169530E+02 -0.44409831964E+02  0.14769651393E+03  0.15488150388E+03  0.00000000000E+00 0.  1.
</event>
<event>
12    1  0.9028446E-003  0.1904518E+03  0.7818608E-02  0.1159137E+00
         21   -1    0    0  503  502  0.00000000000E+00  0.00000000000E+00  0.47619906456E+03  0.47619906456E+03  0.00000000000E+00 0. -1.
         21   -1    0    0  501  503 -0.00000000000E+00 -0.00000000000E+00 -0.77506389790E+02  0.77506389790E+02  0.00000000000E+00 0. -1.
          6    2    1    2  501    0 -0.81879967483E+02  0.10052354490E+02  0.25339952321E+03  0.31416008338E+03  0.16637265616E+03 0.  0.
         24    2    3    3    0    0 -0.70034641025E+02 -0.29655482354E+02  0.86114659709E+02  0.14175550216E+03  0.83033663052E+02 0.  0.
         -6    2    1    2    0  502  0.81879967483E+02 -0.10052354490E+02  0.14529315156E+03  0.23954537098E+03  0.17165810776E+03 0.  0.
        -24    2    5    5    0    0 -0.21004058289E+01  0.59844548388E+00  0.12113029491E+02  0.81668274613E+02  0.80735442980E+02 0.  0.
          5    1    3    3  501    0 -0.11845326458E+02  0.39707836844E+02  0.16728486350E+03  0.17240458121E+03  0.47000000000E+01 0. -1.
        -11    1    4    4    0    0  0.60160996386E+01 -0.12592827950E+02  0.56790698504E+02  0.58480391648E+02  0.00000000000E+00 0.  1.
         12    1    4    4    0    0 -0.76050740663E+02 -0.17062654404E+02  0.29323961204E+02  0.83275110516E+02  0.00000000000E+00 0. -1.
         -5    1    5    5    0  502  0.83980373312E+02 -0.10650799974E+02  0.13318012207E+03  0.15787709637E+03  0.47000000000E+01 0.  1.
         13    1    6    6    0    0 -0.19646282842E+01 -0.31468269330E+02 -0.19145139742E+02  0.36886964021E+02  0.00000000000E+00 0. -1.
        -14    1    6    6    0    0 -0.13577754466E+00  0.32066714814E+02  0.31258169233E+02  0.44781310592E+02  0.00000000000E+00 0.  1.
</event>
<event>
12    1  0.9028446E-003  0.1757271E+03  0.7818608E-02  0.1172175E+00
         21   -1    0    0  501  502  0.00000000000E+00  0.00000000000E+00  0.78916971827E+02  0.78916971827E+02  0.00000000000E+00 0.  1.
         21   -1    0    0  502  503 -0.00000000000E+00 -0.00000000000E+00 -0.42858788409E+03  0.42858788409E+03  0.00000000000E+00 0.  1.
          6    2    1    2  501    0 -0.22561687916E+02 -0.39743514702E+02 -0.98156298970E+02  0.20068304326E+03  0.16896877848E+03 0.  0.
         24    2    3    3    0    0 -0.60655438002E+02  0.19711580146E+02 -0.70423152688E+02  0.12467475752E+03  0.80726366054E+02 0.  0.
         -6    2    1    2    0  503  0.22561687916E+02  0.39743514702E+02 -0.25151461329E+03  0.30682181266E+03  0.16968042698E+03 0.  0.
        -24    2    5    5    0    0 -0.18932738367E+02  0.19077087004E+02 -0.24618259738E+03  0.25992395514E+03  0.78944330842E+02 0.  0.
          5    1    3    3  501    0  0.38093750086E+02 -0.59455094848E+02 -0.27733146283E+02  0.76008285744E+02  0.47000000000E+01 0. -1.
        -11    1    4    4    0    0 -0.72686454608E+01 -0.44376022414E+00 -0.67120628524E+02  0.67514508837E+02  0.00000000000E+00 0.  1.
         12    1    4    4    0    0 -0.53386792541E+02  0.20155340370E+02 -0.33025241634E+01  0.57160248679E+02  0.00000000000E+00 0. -1.
         -5    1    5    5    0  503  0.41494426283E+02  0.20666427699E+02 -0.53320159169E+01  0.46897857521E+02  0.47000000000E+01 0.  1.
         13    1    6    6    0    0 -0.13854251325E+02  0.44310826990E+02 -0.86418580845E+02  0.98099749152E+02  0.00000000000E+00 0. -1.
        -14    1    6    6    0    0 -0.50784870416E+01 -0.25233739986E+02 -0.15976401653E+03  0.16182420598E+03  0.00000000000E+00 0.  1.
</event>
<event>
12    1  0.9028446E-003  0.1879733E+03  0.7818608E-02  0.1162228E+00
         21   -1    0    0  503  502  0.00000000000E+00  0.00000000000E+00  0.12119171285E+04  0.12119171285E+04  0.00000000000E+00 0.  1.
         21   -1    0    0  501  503 -0.00000000000E+00 -0.00000000000E+00 -0.27947426419E+02  0.27947426419E+02  0.00000000000E+00 0.  1.
          6    2    1    2  501    0 -0.69428457332E+02  0.22594209731E+02  0.55172226003E+03  0.58026560491E+03  0.16425562707E+03 0.  0.
         24    2    3    3    0    0 -0.85083150804E+02 -0.27522932192E+02  0.44492961173E+03  0.46117086500E+03  0.81972879560E+02 0.  0.
         -6    2    1    2    0  502  0.69428457332E+02 -0.22594209731E+02  0.63224744204E+03  0.65959895001E+03  0.17321413879E+03 0.  0.
        -24    2    5    5    0    0  0.94924037085E+02 -0.35674280043E+02  0.26871206879E+03  0.29490569474E+03  0.66932546691E+02 0.  0.
          5    1    3    3  501    0  0.15654693472E+02  0.50117141923E+02  0.10679264830E+03  0.11909473991E+03  0.47000000000E+01 0. -1.
        -11    1    4    4    0    0 -0.49308839799E+02 -0.16154780802E+02  0.87147188607E+02  0.10142470659E+03  0.00000000000E+00 0.  1.
         12    1    4    4    0    0 -0.35774311006E+02 -0.11368151390E+02  0.35778242312E+03  0.35974615841E+03  0.00000000000E+00 0. -1.
         -5    1    5    5    0  502 -0.25495579753E+02  0.13080070311E+02  0.36353537326E+03  0.36469325526E+03  0.47000000000E+01 0.  1.
         13    1    6    6    0    0 -0.30733248156E+01  0.10257496743E+02  0.10811668634E+02  0.15216890073E+02  0.00000000000E+00 0. -1.
        -14    1    6    6    0    0  0.97997361900E+02 -0.45931776785E+02  0.25790040015E+03  0.27968880467E+03  0.00000000000E+00 0.  1.
</event>
<event>
12    1  0.9028446E-003  0.3207109E+03  0.7818608E-02  0.1075491E+00
         21   -1    0    0  501  502  0.00000000000E+00  0.00000000000E+00  0.56808695938E+02  0.56808695938E+02  0.00000000000E+00 0.  1.
         21   -1    0    0  502  503 -0.00000000000E+00 -0.00000000000E+00 -0.18102231319E+04  0.18102231319E+04  0.00000000000E+00 0. -1.
          6    2    1    2  501    0 -0.19779199200E+03 -0.18526058525E+03 -0.81686864086E+03  0.87757044589E+03  0.17150030475E+03 0.  0.
         24    2    3    3    0    0 -0.14541958952E+03 -0.50040930365E+02 -0.38174464287E+03  0.41889604368E+03  0.78063892594E+02 0.  0.
         -6    2    1    2    0  503  0.19779199200E+03  0.18526058525E+03 -0.93654579509E+03  0.98946138193E+03  0.16873838773E+03 0.  0.
        -24    2    5    5    0    0  0.21500856990E+03  0.16917977222E+03 -0.91037902203E+03  0.95393965458E+03  0.79752243609E+02 0.  0.
          5    1    3    3  501    0 -0.52372402476E+02 -0.13521965489E+03 -0.43512399800E+03  0.45867440221E+03  0.47000000000E+01 0. -1.
        -11    1    4    4    0    0 -0.69919607373E+02 -0.55844198739E+02 -0.14551964047E+03  0.17083117921E+03  0.00000000000E+00 0.  1.
         12    1    4    4    0    0 -0.75499982151E+02  0.58032683744E+01 -0.23622500239E+03  0.24806486447E+03  0.00000000000E+00 0. -1.
         -5    1    5    5    0  503 -0.17216577896E+02  0.16080813036E+02 -0.26166773055E+02  0.35521727358E+02  0.47000000000E+01 0.  1.
         11    1    6    6    0    0  0.18339574198E+03  0.17326055137E+03 -0.82896951291E+03  0.86651236008E+03  0.00000000000E+00 0. -1.
        -12    1    6    6    0    0  0.31612827918E+02 -0.40807791527E+01 -0.81409509118E+02  0.87427294493E+02  0.00000000000E+00 0.  1.
</event>
<event>
12    1  0.9028446E-003  0.1848127E+03  0.7818608E-02  0.1163471E+00
         21   -1    0    0  503  502  0.00000000000E+00  0.00000000000E+00  0.22558994649E+03  0.22558994649E+03  0.00000000000E+00 0. -1.
         21   -1    0    0  501  503 -0.00000000000E+00 -0.00000000000E+00 -0.16109695006E+03  0.16109695006E+03  0.00000000000E+00 0. -1.
          6    2    1    2  501    0 -0.35059612203E+02  0.51343291681E+02 -0.17145908207E+02  0.18560635041E+03  0.17404144660E+03 0.  0.
         24    2    3    3    0    0 -0.27960073127E+02  0.47127725342E+02 -0.77784655837E+02  0.12422783488E+03  0.79870608423E+02 0.  0.
         -6    2    1    2    0  502  0.35059612203E+02 -0.51343291681E+02  0.81638904638E+02  0.20108054615E+03  0.17292531706E+03 0.  0.
        -24    2    5    5    0    0  0.38136554192E+02  0.31540404493E+02  0.66673791523E+02  0.11666953221E+03  0.81958473559E+02 0.  0.
          5    1    3    3  501    0 -0.70995390767E+01  0.42155663389E+01  0.60638747630E+02  0.61378515531E+02  0.47000000000E+01 0. -1.
        -11    1    4    4    0    0  0.79349425742E+01 -0.19318465720E+02 -0.12092629803E+02  0.24132926200E+02  0.00000000000E+00 0.  1.
         12    1    4    4    0    0 -0.35895015701E+02  0.66446191062E+02 -0.65692026034E+02  0.10009490868E+03  0.00000000000E+00 0. -1.
         -5    1    5    5    0  502 -0.30769419885E+01 -0.82883696174E+02  0.14965113115E+02  0.84411013938E+02  0.47000000000E+01 0.  1.
         11    1    6    6    0    0  0.22502084205E+02  0.16160423057E+02  0.84171422563E+02  0.88613381852E+02  0.00000000000E+00 0. -1.
        -12    1    6    6    0    0  0.15634469987E+02  0.15379981436E+02 -0.17497631040E+02  0.28056150355E+02  0.00000000000E+00 0.  1.
</event>
<event>
12    1  0.9028446E-003  0.2071997E+03  0.7818608E-02  0.1143884E+00
         21   -1    0    0  503  502  0.00000000000E+00  0.00000000000E+00  0.30945909166E+03  0.30945909166E+03  0.00000000000E+00 0. -1.
         21   -1    0    0  501  503 -0.00000000000E+00 -0.00000000000E+00 -0.14168864916E+03  0.14168864916E+03  0.00000000000E+00 0. -1.
          6    2    1    2  501    0  0.13978354652E+02  0.11382557925E+03  0.49760896886E+02  0.21269866445E+03  0.17208404374E+03 0.  0.
         24    2    3    3    0    0  0.44489789319E+02  0.99245363267E+02  0.88515250340E+02  0.16105062233E+03  0.79204607981E+02 0.  0.
         -6    2    1    2    0  502 -0.13978354652E+02 -0.11382557925E+03  0.11800954561E+03  0.23844907637E+03  0.17256897832E+03 0.  0.
        -24    2    5    5    0    0 -0.52014479954E+02 -0.12850423059E+03  0.11475366148E+03  0.19727990812E+03  0.80821506558E+02 0.  0.
          5    1    3    3  501    0 -0.30511434667E+02  0.14580215984E+02 -0.38754353454E+02  0.51648042124E+02  0.47000000000E+01 0. -1.
        -13    1    4    4    0    0 -0.13885636726E+02 -0.45693941249E+01  0.15709750264E+02  0.21458949725E+02  0.00000000000E+00 0.  1.
         14    1    4    4    0    0  0.58375426045E+02  0.10381475739E+03  0.72805500076E+02  0.13959167260E+03  0.00000000000E+00 0. -1.
         -5    1    5    5    0  502  0.38036125302E+02  0.14678651336E+02  0.32558841315E+01  0.41169168251E+02  0.47000000000E+01 0.  1.
         13    1    6    6    0    0 -0.64374304084E+02 -0.95035383328E+02  0.54065693314E+02  0.12688133946E+03  0.00000000000E+00 0. -1.
        -14    1    6    6    0    0  0.12359824130E+02 -0.33468847260E+02  0.60687968163E+02  0.70398568658E+02  0.00000000000E+00 0.  1.
</event>
<event>
12    1  0.9028446E-003  0.3672795E+03  0.7818608E-02  0.1055810E+00
         21   -1    0    0  501  502  0.00000000000E+00  0.00000000000E+00  0.10773082640E+04  0.10773082640E+04  0.00000000000E+00 0. -1.
         21   -1    0    0  502  503 -0.00000000000E+00 -0.00000000000E+00 -0.14502889978E+03  0.14502889978E+03  0.00000000000E+00 0.  1.
          6    2    1    2  501    0  0.41007990234E+02  0.32113157672E+03  0.69308000476E+03  0.78403299431E+03  0.17187407698E+03 0.  0.
         24    2    3    3    0    0 -0.20626652538E+02  0.17849994141E+03  0.27365200966E+03  0.33672488388E+03  0.78806961343E+02 0.  0.
         -6    2    1    2    0  503 -0.41007990234E+02 -0.32113157672E+03  0.23919935946E+03  0.43830416948E+03  0.17345623824E+03 0.  0.
        -24    2    5    5    0    0 -0.51654577975E+02 -0.31070504243E+03  0.16868519207E+03  0.36607951821E+03  0.79710104829E+02 0.  0.
          5    1    3    3  501    0  0.61634642772E+02  0.14263163531E+03  0.41942799510E+03  0.44730811043E+03  0.47000000000E+01 0. -1.
        -13    1    4    4    0    0 -0.30741286859E+02  0.10135111403E+03  0.21367506497E+03  0.23848293110E+03  0.00000000000E+00 0.  1.
         14    1    4    4    0    0  0.10114634322E+02  0.77148827376E+02  0.59976944688E+02  0.98241952786E+02  0.00000000000E+00 0. -1.
         -5    1    5    5    0  503  0.10646587741E+02 -0.10426534291E+02  0.70514167390E+02  0.72224651266E+02  0.47000000000E+01 0.  1.
         13    1    6    6    0    0 -0.51723036217E+02 -0.15258754808E+03  0.51073562265E+02  0.16901698456E+03  0.00000000000E+00 0. -1.
        -14    1    6    6    0    0  0.68458241902E-01 -0.15811749435E+03  0.11761162981E+03  0.19706253366E+03  0.00000000000E+00 0.  1.
</event>
<event>
12    1  0.9028446E-003  0.1905251E+03  0.7818608E-02  0.1158079E+00
         21   -1    0    0  503  502  0.00000000000E+00  0.00000000000E+00  0.26785741175E+03  0.26785741175E+03  0.00000000000E+00 0. -1.
         21   -1    0    0  501  503 -0.00000000000E+00 -0.00000000000E+00 -0.13583523952E+03  0.13583523952E+03  0.00000000000E+00 0. -1.
          6    2    1    2  501    0 -0.53578290510E+02  0.62623237770E+02  0.52520582633E+02  0.19724574237E+03  0.17133349982E+03 0.  0.
         24    2    3    3    0    0 -0.55756743863E+02  0.20297140602E+02  0.91815246031E+02  0.13925949631E+03  0.86269226885E+02 0.  0.
         -6    2    1    2    0  502  0.53578290510E+02 -0.62623237770E+02  0.79501589597E+02  0.20644690889E+03  0.17177753148E+03 0.  0.
        -24    2    5    5    0    0 -0.57377261477E+01 -0.84945120332E+02  0.79924989869E+02  0.14289436732E+03  0.82354120938E+02 0.  0.
          5    1    3    3  501    0  0.21784533526E+01  0.42326097168E+02 -0.39294663399E+02  0.57986246060E+02  0.47000000000E+01 0. -1.
        -11    1    4    4    0    0 -0.17447675768E+02 -0.33263315364E+02  0.23154499783E+02  0.44124827466E+02  0.00000000000E+00 0.  1.
         12    1    4    4    0    0 -0.38309068094E+02  0.53560455966E+02  0.68660746249E+02  0.95134668849E+02  0.00000000000E+00 0. -1.
         -5    1    5    5    0  502  0.59316016658E+02  0.22321882562E+02 -0.42340027216E+00  0.63552541578E+02  0.47000000000E+01 0.  1.
         13    1    6    6    0    0  0.33418383644E+02 -0.17068802335E+02  0.40367907086E+02  0.55115336351E+02  0.00000000000E+00 0. -1.
        -14    1    6    6    0    0 -0.39156109792E+02 -0.67876317997E+02  0.39557082783E+02  0.87779030965E+02  0.00000000000E+00 0.  1.
</event>
<event>
12    1  0.9028446E-003  0.2297815E+03  0.7818608E-02  0.1126828E+00
         21   -1    0    0  503  502  0.00000000000E+00  0.00000000000E+00  0.61446618802E+02  0.61446618802E+02  0.00000000000E+00 0.  1.
         21   -1    0    0  501  503 -0.00000000000E+00 -0.00000000000E+00 -0.11512168473E+04  0.11512168473E+04  0.00000000000E+00 0. -1.
          6    2    1    2  501    0 -0.60493288001E+02  0.13942843327E+03 -0.85042903531E+03  0.88087474205E+03  0.17207859014E+03 0.  0.
         24    2    3    3    0    0 -0.93704899495E+02  0.91689225250E+02 -0.72017892305E+03  0.73815394867E+03  0.95005518294E+02 0.  0.
         -6    2    1    2    0  502  0.60493288001E+02 -0.13942843327E+03 -0.23934119321E+03  0.33178872407E+03  0.17233637097E+03 0.  0.
        -24    2    5    5    0    0 -0.13688455965E+02 -0.10782342892E+03 -0.20526910109E+03  0.24412570508E+03  0.75157769845E+02 0.  0.
          5    1    3    3  501    0  0.33211611495E+02  0.47739208022E+02 -0.13025011225E+03  0.14272079338E+03  0.47000000000E+01 0. -1.
        -11    1    4    4    0    0 -0.10626271428E+02  0.66925914243E+02 -0.21001546428E+03  0.22067734564E+03  0.00000000000E+00 0.  1.
         12    1    4    4    0    0 -0.83078628067E+02  0.24763311007E+02 -0.51016345877E+03  0.51747660303E+03  0.00000000000E+00 0. -1.
         -5    1    5    5    0  502  0.74181743965E+02 -0.31605004355E+02 -0.34072092123E+02  0.87663018997E+02  0.47000000000E+01 0.  1.
         13    1    6    6    0    0 -0.25427392250E+02 -0.59618099893E+02 -0.52212796200E+02  0.83228878393E+02  0.00000000000E+00 0. -1.
        -14    1    6    6    0    0  0.11738936285E+02 -0.48205329025E+02 -0.15305630489E+03  0.16089682668E+03  0.00000000000E+00 0.  1.
</event>
<event>
12    1  0.9028446E-003  0.1828693E+03  0.7818608E-02  0.1165125E+00
         21   -1    0    0  501  502  0.00000000000E+00  0.00000000000E+00  0.80519392010E+03  0.80519392010E+03  0.00000000000E+00 0. -1.
         21   -1    0    0  502  503 -0.00000000000E+00 -0.00000000000E+00 -0.13874329354E+03  0.13874329354E+03  0.00000000000E+00 0. -1.
          6    2    1    2  501    0  0.33481476600E+02  0.52260928899E+02  0.72834363428E+03  0.75087781532E+03  0.17169982518E+03 0.  0.
         24    2    3    3    0    0  0.46105830065E+02  0.31455109247E+02  0.71669923774E+03  0.72349281207E+03  0.81663212534E+02 0.  0.
         -6    2    1    2    0  503 -0.33481476600E+02 -0.52260928899E+02 -0.61893007731E+02  0.19305939832E+03  0.17201445553E+03 0.  0.
        -24    2    5    5    0    0 -0.17162650406E+02  0.12307472420E+01  0.11686631504E+01  0.10864063359E+03  0.10726299541E+03 0.  0.
          5    1    3    3  501    0 -0.12624353466E+02  0.20805819652E+02  0.11644396547E+02  0.27385003246E+02  0.47000000000E+01 0. -1.
        -13    1    4    4    0    0  0.41417197004E+02  0.57554868073E+02  0.46087132813E+03  0.46629425060E+03  0.00000000000E+00 0.  1.
         14    1    4    4    0    0  0.46886330610E+01 -0.26099758826E+02  0.25582790961E+03  0.25719856147E+03  0.00000000000E+00 0. -1.
         -5    1    5    5    0  503 -0.16318826194E+02 -0.53491676141E+02 -0.63061670881E+02  0.84418764733E+02  0.47000000000E+01 0.  1.
         11    1    6    6    0    0 -0.40066686936E+02 -0.41342793348E+02 -0.11399660088E+02  0.58690018010E+02  0.00000000000E+00 0. -1.
        -12    1    6    6    0    0  0.22904036530E+02  0.42573540590E+02  0.12568323238E+02  0.49950615579E+02  0.00000000000E+00 0.  1.
</event>
<event>
12    1  0.9028446E-003  0.1749616E+03  0.7818608E-02  0.1172818E+00
         21   -1    0    0  503  502  0.00000000000E+00  0.00000000000E+00  0.51662749975E+02  0.51662749975E+02  0.00000000000E+00 0. -1.
         21   -1    0    0  501  503 -0.00000000000E+00 -0.00000000000E+00 -0.62539514592E+03  0.62539514592E+03  0.00000000000E+00 0. -1.
          6    2    1    2  501    0 -0.29967207662E+02  0.55156632669E+01 -0.36538623899E+03  0.40511559954E+03  0.17228780940E+03 0.  0.
         24    2    3    3    0    0  0.17097774827E+02  0.58119459926E+02 -0.17262900386E+03  0.19978729245E+03  0.80274427571E+02 0.  0.
         -6    2    1    2    0  502  0.29967207662E+02 -0.55156632669E+01 -0.20834615696E+03  0.27194229636E+03  0.17209310083E+03 0.  0.
        -24    2    5    5    0    0  0.58389026880E+02  0.50777654853E+02 -0.13464042251E+03  0.17482709280E+03  0.80304547258E+02 0.  0.
          5    1    3    3  501    0 -0.47064982489E+02 -0.52603796659E+02 -0.19275723513E+03  0.20532830709E+03  0.47000000000E+01 0. -1.
        -13    1    4    4    0    0 -0.16133967984E+02  0.26846457975E+02 -0.14057381908E+03  0.14402095625E+03  0.00000000000E+00 0.  1.
         14    1    4    4    0    0  0.33231742811E+02  0.31273001951E+02 -0.32055184787E+02  0.55766336198E+02  0.00000000000E+00 0. -1.
         -5    1    5    5    0  502 -0.28421819218E+02 -0.56293318120E+02 -0.73705734444E+02  0.97115203560E+02  0.47000000000E+01 0.  1.
         11    1    6    6    0    0 -0.93935433597E+01  0.33865682525E+02 -0.19612030485E+02  0.40246178073E+02  0.00000000000E+00 0. -1.
        -12    1    6    6    0    0  0.67782570239E+02  0.16911972328E+02 -0.11502839203E+03  0.13458091473E+03  0.00000000000E+00 0.  1.
</event>
<event>
12    1  0.9028446E-003  0.1997034E+03  0.7818608E-02  0.1150051E+00
         21   -1    0    0  503  502  0.00000000000E+00  0.00000000000E+00  0.13265861290E+03  0.13265861290E+03  0.00000000000E+00 0.  1.
         21   -1    0    0  501  503 -0.00000000000E+00 -0.00000000000E+00 -0.31971879566E+03  0.31971879566E+03  0.00000000000E+00 0.  1.
          6    2    1    2  501    0  0.75121064596E+02 -0.63976828950E+02 -0.14936178271E+03  0.24914691576E+03  0.17328887590E+03 0.  0.
         24    2    3    3    0    0  0.65579981992E+02 -0.99318223781E+02 -0.77648276397E+02  0.16849356224E+03  0.90531663393E+02 0.  0.
         -6    2    1    2    0  502 -0.75121064596E+02  0.63976828950E+02 -0.37698400054E+02  0.20323049280E+03  0.17362388905E+03 0.  0.
        -24    2    5    5    0    0 -0.33362731149E+02  0.67398049380E+02 -0.85950353126E+02  0.13915394376E+03  0.79503383402E+02 0.  0.
          5    1    3    3  501    0  0.95410826047E+01  0.35341394831E+02 -0.71713506310E+02  0.80653353514E+02  0.47000000000E+01 0. -1.
        -13    1    4    4    0    0  0.33832620766E+02 -0.55018689790E+01 -0.58223894108E+02  0.67564329607E+02  0.00000000000E+00 0.  1.
         14    1    4    4    0    0  0.31747361226E+02 -0.93816354802E+02 -0.19424382289E+02  0.10092923264E+03  0.00000000000E+00 0. -1.
         -5    1    5    5    0  502 -0.41758333447E+02 -0.34212204304E+01  0.48251953072E+02  0.64076549039E+02  0.47000000000E+01 0.  1.
         11    1    6    6    0    0  0.14627387084E+01  0.62566318300E+02 -0.82889113599E+02  0.10386187435E+03  0.00000000000E+00 0. -1.
        -12    1    6    6    0    0 -0.34825469858E+02  0.48317310801E+01 -0.30612395265E+01  0.35292069413E+02  0.00000000000E+00 0.  1.
</event>
<event>
12    1  0.9028446E-003  0.1795474E+03  0.7818608E-02  0.1168284E+00
         21   -1    0    0  501  502  0.00000000000E+00  0.00000000000E+00  0.71884397503E+03  0.71884397503E+03  0.00000000000E+00 0.  1.
         21   -1    0    0  502  503 -0.00000000000E+00 -0.00000000000E+00 -0.46628710779E+02  0.46628710779E+02  0.00000000000E+00 0.  1.
          6    2    1    2  501    0 -0.50214376684E+02  0.70123856773E+00  0.41201052195E+03  0.44943290923E+03  0.17238124708E+03 0.  0.
         24    2    3    3    0    0  0.49556149019E+01 -0.19429411722E+02  0.36598902120E+03  0.37467302973E+03  0.77652143608E+02 0.  0.
         -6    2    1    2    0  503  0.50214376684E+02 -0.70123856773E+00  0.26020474230E+03  0.31603977658E+03  0.17219946893E+03 0.  0.
        -24    2    5    5    0    0  0.52705884308E+02  0.57932255212E+02  0.12001161248E+03  0.16398617467E+03  0.79715882471E+02 0.  0.
          5    1    3    3  501    0 -0.55169991586E+02  0.20130650290E+02  0.46021500746E+02  0.74759879505E+02  0.47000000000E+01 0. -1.
        -13    1    4    4    0    0 -0.33881737215E+02 -0.66795055503E+01  0.10582111152E+03  0.11131350122E+03  0.00000000000E+00 0.  1.
         14    1    4    4    0    0  0.38837352117E+02 -0.12749906172E+02  0.26016790968E+03  0.26335952850E+03  0.00000000000E+00 0. -1.
         -5    1    5    5    0  503 -0.24915076237E+01 -0.58633493780E+02  0.14019312982E+03  0.15205360191E+03  0.47000000000E+01 0.  1.
         11    1    6    6    0    0  0.29407703136E+02 -0.12971480510E+02  0.60587355109E+02  0.68584983120E+02  0.00000000000E+00 0. -1.
        -12    1    6    6    0    0  0.23298181172E+02  0.70903735722E+02  0.59424257371E+02  0.95401191551E+02  0.00000000000E+00 0.  1.
</event>
<event>
12    1  0.9028446E-003  0.2510373E+03  0.7818608E-02  0.1112919E+00
         21   -1    0    0  503  502  0.00000000000E+00  0.00000000000E+00  0.24787535835E+03  0.24787535835E+03  0.00000000000E+00 0.  1.
         21   -1    0    0  501  503 -0.00000000000E+00 -0.00000000000E+00 -0.25373254165E+03  0.25373254165E+03  0.00000000000E+00 0. -1.
          6    2    1    2  501    0  0.74173479950E+02 -0.16733596591E+03 -0.20256010606E+02  0.25185323854E+03  0.17180429908E+03 0.  0.
         24    2    3    3    0    0  0.46113948214E+02 -0.49050748998E+02  0.46366580996E+02  0.11314711188E+03  0.78230025545E+02 0.  0.
         -6    2    1    2    0  502 -0.74173479950E+02  0.16733596591E+03  0.14398827305E+02  0.24975466146E+03  0.16931341966E+03 0.  0.
        -24    2    5    5    0    0 -0.20998344881E+02  0.16980389562E+03  0.36089500125E+02  0.19208091566E+03  0.79487940502E+02 0.  0.
          5    1    3    3  501    0  0.28059531735E+02 -0.11828521691E+03 -0.66622591602E+02  0.13870612666E+03  0.47000000000E+01 0. -1.
        -11    1    4    4    0    0 -0.11026070507E+02  0.14182753043E+02  0.89235942285E+01  0.20058794796E+02  0.00000000000E+00 0.  1.
         12    1    4    4    0    0  0.57140018722E+02 -0.63233502041E+02  0.37442986767E+02  0.93088317086E+02  0.00000000000E+00 0. -1.
         -5    1    5    5    0  502 -0.53175135068E+02 -0.24679297166E+01 -0.21690672820E+02  0.57673745795E+02  0.47000000000E+01 0.  1.
         13    1    6    6    0    0  0.17972121224E+02  0.43540188331E+02 -0.16428266347E+02  0.49886201262E+02  0.00000000000E+00 0. -1.
        -14    1    6    6    0    0 -0.38970466105E+02  0.12626370729E+03  0.52517766473E+02  0.14219471440E+03  0.00000000000E+00 0.  1.
</event>
<event>
12    1  0.9028446E-003  0.1831853E+03  0.7818608E-02  0.1164964E+00
         21   -1    0    0  503  502  0.00000000000E+00  0.00000000000E+00  0.10169914110E+03  0.10169914110E+03  0.00000000000E+00 0.  1.
         21   -1    0    0  501  503 -0.00000000000E+00 -0.00000000000E+00 -0.57540732358E+03  0.57540732358E+03  0.00000000000E+00 0.  1.
          6    2    1    2  501    0  0.64110265090E+02 -0.83445709336E+01 -0.45835471195E+03  0.49327890038E+03  0.17045607539E+03 0.  0.
         24    2    3    3    0    0  0.61777220483E+02  0.38070226750E+02 -0.41743782178E+03  0.43118173102E+03  0.79984892180E+02 0.  0.
         -6    2    1    2    0  502 -0.64110265090E+02  0.83445709336E+01 -0.15353470532E+02  0.18382756429E+03  0.17139745151E+03 0.  0.
        -24    2    5    5    0    0 -0.49319226177E+02  0.20369453172E+02  0.55629270326E+02  0.11017967142E+03  0.78725114064E+02 0.  0.
          5    1    3    3  501    0  0.23330446063E+01 -0.46414797684E+02 -0.40916890170E+02  0.62097169358E+02  0.47000000000E+01 0. -1.
        -13    1    4    4    0    0  0.54497557271E+02  0.18855231194E+02 -0.12106919549E+03  0.13410165394E+03  0.00000000000E+00 0.  1.
         14    1    4    4    0    0  0.72796632120E+01  0.19214995556E+02 -0.29636862629E+03  0.29708007708E+03  0.00000000000E+00 0. -1.
         -5    1    5    5    0  502 -0.14791038912E+02 -0.12024882239E+02 -0.70982740857E+02  0.73647892873E+02  0.47000000000E+01 0.  1.
         13    1    6    6    0    0 -0.38100849277E+02 -0.10202791872E+02 -0.65550035478E+01  0.39984243761E+02  0.00000000000E+00 0. -1.
        -14    1    6    6    0    0 -0.11218376901E+02  0.30572245045E+02  0.62184273874E+02  0.70195427661E+02  0.00000000000E+00 0.  1.
</event>
<event>
12    1  0.9028446E-003  0.2677342E+03  0.7818608E-02  0.1102678E+00
         21   -1    0    0  503  502  0.00000000000E+00  0.00000000000E+00  0.11407883475E+04  0.11407883475E+04  0.00000000000E+00 0. -1.
         21   -1    0    0  501  503 -0.00000000000E+00 -0.00000000000E+00 -0.62747255478E+02  0.62747255478E+02  0.00000000000E+00 0.  1.
          6    2    1    2  501    0  0.20511217776E+03  0.73454765871E+01  0.51899775688E+03  0.58368800769E+03  0.17090364885E+03 0.  0.
         24    2    3    3    0    0  0.73776695980E+02 -0.34387500720E+00  0.37186354185E+03  0.38625776145E+03  0.73955698887E+02 0.  0.
         -6    2    1    2    0  502 -0.20511217776E+03 -0.73454765871E+01  0.55904333518E+03  0.61984759532E+03  0.17192041566E+03 0.  0.
        -24    2    5    5    0    0 -0.46314585131E+02  0.12944674447E+01  0.95881867184E+02  0.13012118242E+03  0.74776154064E+02 0.  0.
          5    1    3    3  501    0  0.13133548178E+03  0.76893515943E+01  0.14713421502E+03  0.19743024625E+03  0.47000000000E+01 0. -1.
        -13    1    4    4    0    0  0.11305334843E+02 -0.29873258709E+02  0.76132694952E+02  0.82561549298E+02  0.00000000000E+00 0.  1.
         14    1    4    4    0    0  0.62471361137E+02  0.29529383702E+02  0.29573084690E+03  0.30369621215E+03  0.00000000000E+00 0. -1.
         -5    1    5    5    0  502 -0.15879759263E+03 -0.86399440318E+01  0.46316146800E+03  0.48972641291E+03  0.47000000000E+01 0.  1.
         13    1    6    6    0    0  0.16650344655E+02 -0.48547286944E+01  0.47226652996E+02  0.50310626323E+02  0.00000000000E+00 0. -1.
        -14    1    6    6    0    0 -0.62964929786E+02  0.61491961391E+01  0.48655214188E+02  0.79810556092E+02  0.00000000000E+00 0.  1.
</event>
<event>
12    1  0.9028446E-003  0.2328421E+03  0.7818608E-02  0.1124727E+00
         21   -1    0    0  503  502  0.00000000000E+00  0.00000000000E+00  0.93643111456E+02  0.93643111456E+02  0.00000000000E+00 0. -1.
         21   -1    0    0  501  503 -0.00000000000E+00 -0.00000000000E+00 -0.59854878190E+03  0.59854878190E+03  0.00000000000E+00 0. -1.
          6    2    1    2  501    0 -0.90269870813E+02  0.12745885187E+03 -0.31690480671E+03  0.39324811575E+03  0.17268762414E+03 0.  0.
         24    2    3    3    0    0  0.54737193620E+01  0.18006661718E+02 -0.93283937326E+02  0.12646168392E+03  0.83285431293E+02 0.  0.
         -6    2    1    2    0  502  0.90269870813E+02 -0.12745885187E+03 -0.18800086373E+03  0.29894377760E+03  0.17212974440E+03 0.  0.
        -24    2    5    5    0    0  0.10413562266E+03 -0.10952354902E+03 -0.20924235035E+03  0.26752364208E+03  0.70334217802E+02 0.  0.
          5    1    3    3  501    0 -0.95743590175E+02  0.10945219015E+03 -0.22362086938E+03  0.26678643183E+03  0.47000000000E+01 0. -1.
        -11    1    4    4    0    0  0.35851046213E+02  0.21394125778E+02 -0.85147010746E+02  0.94831532579E+02  0.00000000000E+00 0.  1.
         12    1    4    4    0    0 -0.30377326851E+02 -0.33874640602E+01 -0.81369265802E+01  0.31630151336E+02  0.00000000000E+00 0. -1.
         -5    1    5    5    0  502 -0.13865751849E+02 -0.17935302854E+02  0.21241486617E+02  0.31420135526E+02  0.47000000000E+01 0.  1.
         13    1    6    6    0    0  0.12062764972E+02 -0.27463366667E+02 -0.94213666635E+02  0.98873463519E+02  0.00000000000E+00 0. -1.
        -14    1    6    6    0    0  0.92072857690E+02 -0.82060182348E+02 -0.11502868371E+03  0.16865017856E+03  0.00000000000E+00 0.  1.
</event>
<event>
12    1  0.9028446E-003  0.5183679E+03  0.7818608E-02  0.1009110E+00
         21   -1    0    0  501  502  0.00000000000E+00  0.00000000000E+00  0.66741098719E+03  0.66741098719E+03  0.00000000000E+00 0. -1.
         21   -1    0    0  502  503 -0.00000000000E+00 -0.00000000000E+00 -0.54591302645E+03  0.54591302645E+03  0.00000000000E+00 0. -1.
          6    2    1    2  501    0  0.48727802992E+03  0.38214988124E+02  0.37178809702E+03  0.63769353589E+03  0.17183245583E+03 0.  0.
         24    2    3    3    0    0  0.29669486008E+03 -0.34228591784E+02  0.18092281798E+03  0.35836995716E+03  0.80601015095E+02 0.  0.
         -6    2    1    2    0  503 -0.48727802992E+03 -0.38214988124E+02 -0.25029013627E+03  0.57563047775E+03  0.17264133586E+03 0.  0.
        -24    2    5    5    0    0 -0.48503505882E+03 -0.12121813849E+02 -0.23618693041E+03  0.54551611110E+03  0.79985090605E+02 0.  0.
          5    1    3    3  501    0  0.19058316984E+03  0.72443579908E+02  0.19086527903E+03  0.27932357873E+03  0.47000000000E+01 0. -1.
        -13    1    4    4    0    0  0.57793905560E+02  0.10216313533E+02  0.69720161039E+02  0.91134019100E+02  0.00000000000E+00 0.  1.
         14    1    4    4    0    0  0.23890095452E+03 -0.44444905317E+02  0.11120265694E+03  0.26723593806E+03  0.00000000000E+00 0. -1.
         -5    1    5    5    0  503 -0.22429710921E+01 -0.26093174275E+02 -0.14103205863E+02  0.30114366649E+02  0.47000000000E+01 0.  1.
         13    1    6    6    0    0 -0.18328385998E+03  0.31692274143E+02 -0.74342009582E+02  0.20031002960E+03  0.00000000000E+00 0. -1.
        -14    1    6    6    0    0 -0.30175119884E+03 -0.43814087992E+02 -0.16184492083E+03  0.34520608150E+03  0.00000000000E+00 0.  1.
</event>
<event>
12    1  0.9028446E-003  0.1761790E+03  0.7818608E-02  0.1171737E+00
         21   -1    0    0  501  502  0.00000000000E+00  0.00000000000E+00  0.71875357784E+02  0.71875357784E+02  0.00000000000E+00 0. -1.
         21   -1    0    0  502  503 -0.00000000000E+00 -0.00000000000E+00 -0.55789304419E+03  0.55789304419E+03  0.00000000000E+00 0. -1.
          6    2    1    2  501    0 -0.33530421978E+02 -0.19231092649E+02 -0.91872436544E+02  0.19803987901E+03  0.17112897171E+03 0.  0.
         24    2    3    3    0    0 -0.46291515311E+02 -0.67025875066E+02 -0.95332584379E+02  0.14822773840E+03  0.79042953314E+02 0.  0.
         -6    2    1    2    0  503  0.33530421978E+02  0.19231092649E+02 -0.39414524986E+03  0.43172852296E+03  0.17188634451E+03 0.  0.
        -24    2    5    5    0    0  0.24033445455E+01 -0.52684766309E+02 -0.23171800047E+03  0.25132484488E+03  0.81789273429E+02 0.  0.
          5    1    3    3  501    0  0.12761093333E+02  0.47794782417E+02  0.34601478354E+01  0.49812140612E+02  0.47000000000E+01 0. -1.
        -13    1    4    4    0    0 -0.53905278762E+02 -0.17758071047E+02 -0.75781948829E+02  0.94678571673E+02  0.00000000000E+00 0.  1.
         14    1    4    4    0    0  0.76137634512E+01 -0.49267804019E+02 -0.19550635550E+02  0.53549166727E+02  0.00000000000E+00 0. -1.
         -5    1    5    5    0  503  0.31127077432E+02  0.71915858958E+02 -0.16242724939E+03  0.18040367808E+03  0.47000000000E+01 0.  1.
         11    1    6    6    0    0  0.20415925052E+02 -0.47478219076E+02 -0.22583571829E+03  0.23167382877E+03  0.00000000000E+00 0. -1.
        -12    1    6    6    0    0 -0.18012580507E+02 -0.52065472327E+01 -0.58822821800E+01  0.19651016112E+02  0.00000000000E+00 0.  1.
</event>
<event>
12    1  0.9028446E-003  0.2071486E+03  0.7818608E-02  0.1144988E+00
         21   -1    0    0  503  502  0.00000000000E+00  0.00000000000E+00  0.13614956778E+03  0.13614956778E+03  0.00000000000E+00 0.  1.
         21   -1    0    0  501  503 -0.00000000000E+00 -0.00000000000E+00 -0.30673453422E+03  0.30673453422E+03  0.00000000000E+00 0.  1.
          6    2    1    2  501    0  0.59954440520E+02 -0.10045227176E+03 -0.82729305391E+02  0.21787487600E+03  0.16413448687E+03 0.  0.
         24    2    3    3    0    0  0.81250820705E+02 -0.92288845145E+02 -0.16645777021E+02  0.14780847845E+03  0.80320219158E+02 0.  0.
         -6    2    1    2    0  502 -0.59954440520E+02  0.10045227176E+03 -0.87855661057E+02  0.22500922600E+03  0.17095420664E+03 0.  0.
        -24    2    5    5    0    0 -0.96344455562E+02  0.10798283609E+03 -0.52632629257E+02  0.17359235559E+03  0.80134669470E+02 0.  0.
          5    1    3    3  501    0 -0.21296380185E+02 -0.81634266169E+01 -0.66083528370E+02  0.70066397545E+02  0.47000000000E+01 0. -1.
        -13    1    4    4    0    0  0.37715165906E+02 -0.17131967737E+02 -0.40296291314E+02  0.57790389785E+02  0.00000000000E+00 0.  1.
         14    1    4    4    0    0  0.43535654799E+02 -0.75156877408E+02  0.23650514293E+02  0.90018088665E+02  0.00000000000E+00 0. -1.
         -5    1    5    5    0  502  0.36390015042E+02 -0.75305643234E+01 -0.35223031800E+02  0.51416870412E+02  0.47000000000E+01 0.  1.
         13    1    6    6    0    0 -0.58973301835E+02  0.39860457564E+02  0.12419418850E+02  0.72256130336E+02  0.00000000000E+00 0. -1.
        -14    1    6    6    0    0 -0.37371153727E+02  0.68122378522E+02 -0.65052048107E+02  0.10133622526E+03  0.00000000000E+00 0.  1.
</event>
<event>
12    1  0.9028446E-003  0.1779648E+03  0.7818608E-02  0.1171027E+00
         21   -1    0    0  501  502  0.00000000000E+00  0.00000000000E+00  0.48057768589E+03  0.48057768589E+03  0.00000000000E+00 0.  1.
         21   -1    0    0  502  503 -0.00000000000E+00 -0.00000000000E+00 -0.64395002802E+02  0.64395002802E+02  0.00000000000E+00 0.  1.
          6    2    1    2  501    0 -0.30403659478E+02 -0.33263781528E+02  0.18592339577E+03  0.25395582925E+03  0.16701853923E+03 0.  0.
         24    2    3    3    0    0  0.26775884684E+01  0.42333956597E+02  0.80286605395E+02  0.11982675539E+03  0.78186820755E+02 0.  0.
         -6    2    1    2    0  503  0.30403659478E+02  0.33263781528E+02  0.23025928732E+03  0.29101685944E+03  0.17216448940E+03 0.  0.
        -24    2    5    5    0    0 -0.48884428622E+02  0.24489874448E+02  0.11716722227E+03  0.15254127481E+03  0.80939738297E+02 0.  0.
          5    1    3    3  501    0 -0.33081247946E+02 -0.75597738125E+02  0.10563679037E+03  0.13412907386E+03  0.47000000000E+01 0. -1.
        -11    1    4    4    0    0 -0.99249816056E+01  0.10044019999E+02 -0.13686469632E+02  0.19664868385E+02  0.00000000000E+00 0.  1.
         12    1    4    4    0    0  0.12602570074E+02  0.32289936598E+02  0.93973075026E+02  0.10016188700E+03  0.00000000000E+00 0. -1.
         -5    1    5    5    0  503  0.79288088100E+02  0.87739070797E+01  0.11309206506E+03  0.13847558463E+03  0.47000000000E+01 0.  1.
         11    1    6    6    0    0 -0.54257181312E+02  0.31301441829E+02  0.12565626177E+03  0.14040341202E+03  0.00000000000E+00 0. -1.
        -12    1    6    6    0    0  0.53727526899E+01 -0.68115673807E+01 -0.84890394999E+01  0.12137862797E+02  0.00000000000E+00 0.  1.
</event>
<event>
12    1  0.9028446E-003  0.1754847E+03  0.7818608E-02  0.1174188E+00
         21   -1    0    0  501  502  0.00000000000E+00  0.00000000000E+00  0.19796306704E+03  0.19796306704E+03  0.00000000000E+00 0.  1.
         21   -1    0    0  502  503 -0.00000000000E+00 -0.00000000000E+00 -0.20193539587E+03  0.20193539587E+03  0.00000000000E+00 0.  1.
          6    2    1    2  501    0 -0.15956956052E+02 -0.36245085884E+02  0.10042503308E+03  0.20218818679E+03  0.17095772843E+03 0.  0.
         24    2    3    3    0    0  0.53103740355E+02 -0.15325311873E+02  0.23201845929E+02  0.96393445114E+02  0.75488397669E+02 0.  0.
         -6    2    1    2    0  503  0.15956956052E+02  0.36245085884E+02 -0.10439736191E+03  0.19771027612E+03  0.16316314968E+03 0.  0.
        -24    2    5    5    0    0  0.17360387946E+02 -0.47156630284E+01 -0.12236267612E+03  0.15271477538E+03  0.89585476301E+02 0.  0.
          5    1    3    3  501    0 -0.69060696407E+02 -0.20919774011E+02  0.77223187151E+02  0.10579474168E+03  0.47000000000E+01 0. -1.
        -11    1    4    4    0    0  0.49767725103E+02 -0.42637150598E+02  0.20882487747E+02  0.68781039302E+02  0.00000000000E+00 0.  1.
         12    1    4    4    0    0  0.33360152519E+01  0.27311838725E+02  0.23193581825E+01  0.27612405811E+02  0.00000000000E+00 0. -1.
         -5    1    5    5    0  503 -0.14034318935E+01  0.40960748912E+02  0.17965314212E+02  0.44995500744E+02  0.47000000000E+01 0.  1.
         13    1    6    6    0    0  0.14501172498E+02 -0.10272322599E+02  0.98744920662E+01  0.20330032192E+02  0.00000000000E+00 0. -1.
        -14    1    6    6    0    0  0.28592154483E+01  0.55566595702E+01 -0.13223716818E+03  0.13238474318E+03  0.00000000000E+00 0.  1.
</event>
<event>
12    1  0.9028446E-003  0.1956361E+03  0.7818608E-02  0.1154608E+00
         21   -1    0    0  503  502  0.00000000000E+00  0.00000000000E+00  0.10028771173E+04  0.10028771173E+04  0.00000000000E+00 0. -1.
         21   -1    0    0  501  503 -0.00000000000E+00 -0.00000000000E+00 -0.37466915347E+02  0.37466915347E+02  0.00000000000E+00 0. -1.
          6    2    1    2  501    0  0.81999882677E+02 -0.45836626257E+01  0.44244357961E+03  0.48376626706E+03  0.17756263484E+03 0.  0.
         24    2    3    3    0    0 -0.12381148646E+02 -0.23594216741E+02  0.11258801152E+03  0.14011533073E+03  0.79033319956E+02 0.  0.
         -6    2    1    2    0  502 -0.81999882677E+02  0.45836626257E+01  0.52296662232E+03  0.55657776556E+03  0.17187126092E+03 0.  0.
        -24    2    5    5    0    0 -0.61381584406E+02 -0.57760771435E+02  0.40591943976E+03  0.42228675459E+03  0.80321266834E+02 0.  0.
          5    1    3    3  501    0  0.94381031322E+02  0.19010554115E+02  0.32985556809E+03  0.34365093633E+03  0.47000000000E+01 0. -1.
        -13    1    4    4    0    0 -0.40172751982E+02 -0.17678137452E+02  0.99663158882E+02  0.10889954905E+03  0.00000000000E+00 0.  1.
         14    1    4    4    0    0  0.27791603336E+02 -0.59160792894E+01  0.12924852635E+02  0.31215781679E+02  0.00000000000E+00 0. -1.
         -5    1    5    5    0  502 -0.20618298271E+02  0.62344434060E+02  0.11704718256E+03  0.13429101097E+03  0.47000000000E+01 0.  1.
         13    1    6    6    0    0  0.97167173339E+01 -0.28447941867E+02  0.20427376102E+03  0.20647389528E+03  0.00000000000E+00 0. -1.
        -14    1    6    6    0    0 -0.71098301740E+02 -0.29312829568E+02  0.20164567874E+03  0.21581285931E+03  0.00000000000E+00 0.  1.
</event>
<event>
12    1  0.9028446E-003  0.1802372E+03  0.7818608E-02  0.1168083E+00
         21   -1    0    0  503  502  0.00000000000E+00  0.00000000000E+00  0.60287393123E+03  0.60287393123E+03  0.00000000000E+00 0.  1.
         21   -1    0    0  501  503 -0.00000000000E+00 -0.00000000000E+00 -0.68028735425E+02  0.68028735425E+02  0.00000000000E+00 0.  1.
          6    2    1    2  501    0  0.39671561219E+02 -0.28395680173E+02  0.11234865877E+03  0.21238563009E+03  0.17350875287E+03 0.  0.
         24    2    3    3    0    0  0.57223943961E+02 -0.80938648091E+02  0.45280300792E+02  0.12527016500E+03  0.61779155720E+02 0.  0.
         -6    2    1    2    0  502 -0.39671561219E+02  0.28395680173E+02  0.42249653704E+03  0.45851703656E+03  0.17133126272E+03 0.  0.
        -24    2    5    5    0    0  0.83746424217E+00  0.30493977288E+02  0.40624914816E+03  0.41456875287E+03  0.76800367655E+02 0.  0.
          5    1    3    3  501    0 -0.17552382741E+02  0.52542967918E+02  0.67068357975E+02  0.87115465097E+02  0.47000000000E+01 0. -1.
        -13    1    4    4    0    0  0.69670803350E+01 -0.15443346890E+02  0.38946784405E+02  0.42472216649E+02  0.00000000000E+00 0.  1.
         14    1    4    4    0    0  0.50256863626E+02 -0.65495301201E+02  0.63335163865E+01  0.82797948349E+02  0.00000000000E+00 0. -1.
         -5    1    5    5    0  502 -0.40509025462E+02 -0.20982971144E+01  0.16247388876E+02  0.43948283697E+02  0.47000000000E+01 0.  1.
         13    1    6    6    0    0  0.30251755021E+02  0.77778559868E+01  0.75045533517E+02  0.81286504578E+02  0.00000000000E+00 0. -1.
        -14    1    6    6    0    0 -0.29414290779E+02  0.22716121301E+02  0.33120361465E+03  0.33328224829E+03  0.00000000000E+00 0.  1.
</event>
<event>
12    1  0.9028446E-003  0.1898727E+03  0.7818608E-02  0.1158699E+00
         21   -1    0    0  501  502  0.00000000000E+00  0.00000000000E+00  0.38278905235E+03  0.38278905235E+03  0.00000000000E+00 0. -1.
         21   -1    0    0  502  503 -0.00000000000E+00 -0.00000000000E+00 -0.10112702908E+03  0.10112702908E+03  0.00000000000E+00 0. -1.
          6    2    1    2  501    0 -0.22328818826E+02  0.76032724941E+02  0.76391652894E+02  0.20466394685E+03  0.17254592170E+03 0.  0.
         24    2    3    3    0    0 -0.22768221212E+02  0.87694145171E+02  0.11309189360E+03  0.16586730441E+03  0.80706451286E+02 0.  0.
         -6    2    1    2    0  503  0.22328818826E+02 -0.76032724941E+02  0.20527037037E+03  0.27925213457E+03  0.17194847571E+03 0.  0.
        -24    2    5    5    0    0  0.12170388378E+02 -0.86435443149E+02  0.22523954589E+03  0.25410719023E+03  0.78856876093E+02 0.  0.
          5    1    3    3  501    0  0.43940238598E+00 -0.11661420229E+02 -0.36700240711E+02  0.38796642438E+02  0.47000000000E+01 0. -1.
        -13    1    4    4    0    0  0.73574436587E+01  0.62994254638E+02  0.10976255105E+03  0.12676839397E+03  0.00000000000E+00 0.  1.
         14    1    4    4    0    0 -0.30125664871E+02  0.24699890532E+02  0.33293425499E+01  0.39098910445E+02  0.00000000000E+00 0. -1.
         -5    1    5    5    0  503  0.10158430448E+02  0.10402718208E+02 -0.19969175517E+02  0.25144944345E+02  0.47000000000E+01 0.  1.
         11    1    6    6    0    0 -0.27272320254E+02 -0.47214686866E+02  0.15622905499E+03  0.16547061289E+03  0.00000000000E+00 0. -1.
        -12    1    6    6    0    0  0.39442708631E+02 -0.39220756283E+02  0.69010490903E+02  0.88636577338E+02  0.00000000000E+00 0.  1.
</event>
<event>
12    1  0.9028446E-003  0.2478882E+03  0.7818608E-02  0.1115387E+00
         21   -1    0    0  501  502  0.00000000000E+00  0.00000000000E+00  0.56524338849E+03  0.56524338849E+03  0.00000000000E+00 0. -1.
         21   -1    0    0  502  503 -0.00000000000E+00 -0.00000000000E+00 -0.10955548026E+03  0.10955548026E+03  0.00000000000E+00 0. -1.
          6    2    1    2  501    0 -0.16688978342E+02  0.17139605827E+03  0.17139924966E+03  0.29761378671E+03  0.17187533990E+03 0.  0.
         24    2    3    3    0    0  0.33136019404E+02  0.16230817757E+03  0.16468358139E+03  0.24630774246E+03  0.78133742572E+02 0.  0.
         -6    2    1    2    0  503  0.16688978342E+02 -0.17139605827E+03  0.28428865857E+03  0.37718508204E+03  0.17830707763E+03 0.  0.
        -24    2    5    5    0    0  0.71117172907E+02 -0.56637689097E+02  0.14260741472E+03  0.18684965045E+03  0.79438259247E+02 0.  0.
          5    1    3    3  501    0 -0.49824997746E+02  0.90878806972E+01  0.67156682671E+01  0.51306044247E+02  0.47000000000E+01 0. -1.
        -11    1    4    4    0    0 -0.92526824189E+01  0.10511137451E+03  0.12904672099E+03  0.16669453915E+03  0.00000000000E+00 0.  1.
         12    1    4    4    0    0  0.42388701823E+02  0.57196803059E+02  0.35636860399E+02  0.79613203312E+02  0.00000000000E+00 0. -1.
         -5    1    5    5    0  503 -0.54428194565E+02 -0.11475836917E+03  0.14168124385E+03  0.19033543159E+03  0.47000000000E+01 0.  1.
         11    1    6    6    0    0  0.15637939829E+02 -0.34651883751E+02  0.11495350547E+03  0.12107686249E+03  0.00000000000E+00 0. -1.
        -12    1    6    6    0    0  0.55479233078E+02 -0.21985805346E+02  0.27653909244E+02  0.65772787960E+02  0.00000000000E+00 0.  1.
</event>
<event>
12    1  0.9028446E-003  0.1824070E+03  0.7818608E-02  0.1168378E+00
         21   -1    0    0  501  502  0.00000000000E+00  0.00000000000E+00  0.15580671893E+04  0.15580671893E+04  0.00000000000E+00 0. -1.
         21   -1    0    0  502  503 -0.00000000000E+00 -0.00000000000E+00 -0.41268920967E+02  0.41268920967E+02  0.00000000000E+00 0. -1.
          6    2    1    2  501    0  0.11552964275E+02  0.56935605990E+02  0.13444313912E+04  0.13567490903E+04  0.17290805089E+03 0.  0.
         24    2    3    3    0    0 -0.49025317370E+02 -0.65636283877E+01  0.75069479714E+03  0.75654319717E+03  0.79802053666E+02 0.  0.
         -6    2    1    2    0  503 -0.11552964275E+02 -0.56935605990E+02  0.17236687709E+03  0.24258701997E+03  0.16050852851E+03 0.  0.
        -24    2    5    5    0    0 -0.16988055620E+02  0.11553658635E+02  0.14842687051E+03  0.16967931460E+03  0.79614401039E+02 0.  0.
          5    1    3    3  501    0  0.60578281645E+02  0.63499234377E+02  0.59373659409E+03  0.60020589312E+03  0.47000000000E+01 0. -1.
        -13    1    4    4    0    0 -0.26973609467E+02 -0.37513358712E+02  0.23809805751E+03  0.24253971361E+03  0.00000000000E+00 0.  1.
         14    1    4    4    0    0 -0.22051707903E+02  0.30949730324E+02  0.51259673963E+03  0.51400348356E+03  0.00000000000E+00 0. -1.
         -5    1    5    5    0  503  0.54350913445E+01 -0.68489264624E+02  0.23940006583E+02  0.72907705367E+02  0.47000000000E+01 0.  1.
         11    1    6    6    0    0 -0.29725305852E+02  0.39865633646E+02  0.75334526464E+02  0.90267122650E+02  0.00000000000E+00 0. -1.
        -12    1    6    6    0    0  0.12737250232E+02 -0.28311975011E+02  0.73092344046E+02  0.79412191952E+02  0.00000000000E+00 0.  1.
</event>
<event>
12    1  0.9028446E-003  0.2148384E+03  0.7818608E-02  0.1138050E+00
         21   -1    0    0  501  502  0.00000000000E+00  0.00000000000E+00  0.23933112557E+03  0.23933112557E+03  0.00000000000E+00 0.  1.
         21   -1    0    0  502  503 -0.00000000000E+00 -0.00000000000E+00 -0.21803100457E+03  0.21803100457E+03  0.00000000000E+00 0. -1.
          6    2    1    2  501    0 -0.20641580953E+02  0.12638989618E+03  0.90168581162E+02  0.23175542843E+03  0.17082073896E+03 0.  0.
         24    2    3    3    0    0  0.58945590290E+02  0.65910577954E+02  0.38083167329E+02  0.11894210434E+03  0.69843465332E+02 0.  0.
         -6    2    1    2    0  503  0.20641580953E+02 -0.12638989618E+03 -0.68868460162E+02  0.22560670171E+03  0.17249648788E+03 0.  0.
        -24    2    5    5    0    0  0.73706531822E+00  0.33416665629E+01 -0.43302709811E+02  0.91807726731E+02  0.80881543073E+02 0.  0.
          5    1    3    3  501    0 -0.79587171243E+02  0.60479318226E+02  0.52085413833E+02  0.11281332410E+03  0.47000000000E+01 0. -1.
        -11    1    4    4    0    0  0.30374207971E+02  0.25774516058E+02  0.54057573508E+02  0.67150126147E+02  0.00000000000E+00 0.  1.
         12    1    4    4    0    0  0.28571382319E+02  0.40136061896E+02 -0.15974406180E+02  0.51791978191E+02  0.00000000000E+00 0. -1.
         -5    1    5    5    0  503  0.19904515635E+02 -0.12973156274E+03 -0.25565750351E+02  0.13379897498E+03  0.47000000000E+01 0.  1.
         13    1    6    6    0    0  0.34971599048E+02 -0.16146264926E+02 -0.89613755105E+01  0.39547703626E+02  0.00000000000E+00 0. -1.
        -14    1    6    6    0    0 -0.34234533730E+02  0.19487931489E+02 -0.34341334300E+02  0.52260023105E+02  0.00000000000E+00 0.  1.
</event>
<event>
12    1  0.9028446E-003  0.1813953E+03  0.7818608E-02  0.1168310E+00
         21   -1    0    0  501  502  0.00000000000E+00  0.00000000000E+00  0.51780433680E+02  0.51780433680E+02  0.00000000000E+00 0.  1.
         21   -1    0    0  502  503 -0.00000000000E+00 -0.00000000000E+00 -0.72551796177E+03  0.72551796177E+03  0.00000000000E+00 0.  1.
          6    2    1    2  501    0 -0.28941427259E+02 -0.20247834718E+02 -0.17531722470E+03  0.24689568016E+03  0.17021682227E+03 0.  0.
         24    2    3    3    0    0  0.38277956947E+02  0.17425442723E+01 -0.48040280276E+02  0.10121269226E+03  0.80423268384E+02 0.  0.
         -6    2    1    2    0  503  0.28941427259E+02  0.20247834718E+02 -0.49842030339E+03  0.53040271528E+03  0.17792318717E+03 0.  0.
        -24    2    5    5    0    0  0.41807161216E+02 -0.56556735015E+01 -0.11580823522E+03  0.14667025177E+03  0.79503396392E+02 0.  0.
          5    1    3    3  501    0 -0.67219384207E+02 -0.21990378991E+02 -0.12727694443E+03  0.14568298790E+03  0.47000000000E+01 0. -1.
        -13    1    4    4    0    0  0.34563458805E+02 -0.26251025679E+02  0.23321597738E+01  0.43464790382E+02  0.00000000000E+00 0.  1.
         14    1    4    4    0    0  0.37144981421E+01  0.27993569951E+02 -0.50372440050E+02  0.57747901881E+02  0.00000000000E+00 0. -1.
         -5    1    5    5    0  503 -0.12865733956E+02  0.25903508220E+02 -0.38261206817E+03  0.38373246352E+03  0.47000000000E+01 0.  1.
         11    1    6    6    0    0  0.56667798931E+01  0.74657274892E+01  0.10830763132E+02  0.14323229780E+02  0.00000000000E+00 0. -1.
        -12    1    6    6    0    0  0.36140381323E+02 -0.13121400991E+02 -0.12663899835E+03  0.13234702199E+03  0.00000000000E+00 0.  1.
</event>
<event>
12    1  0.9028446E-003  0.1749139E+03  0.7818608E-02  0.1172893E+00
         21   -1    0    0  501  502  0.00000000000E+00  0.00000000000E+00  0.42499346939E+02  0.42499346939E+02  0.00000000000E+00 0. -1.
         21   -1    0    0  502  503 -0.00000000000E+00 -0.00000000000E+00 -0.85725528182E+03  0.85725528182E+03  0.00000000000E+00 0. -1.
          6    2    1    2  501    0  0.33225659923E+02  0.11138945974E+02 -0.22620141365E+03  0.28575847172E+03  0.17106374259E+03 0.  0.
         24    2    3    3    0    0 -0.26700009318E+02 -0.40404687662E+02 -0.12513093511E+03  0.15736390939E+03  0.82220555683E+02 0.  0.
         -6    2    1    2    0  503 -0.33225659923E+02 -0.11138945974E+02 -0.58855452124E+03  0.61399615704E+03  0.17136754593E+03 0.  0.
        -24    2    5    5    0    0 -0.11899518279E+02  0.57428759237E+02 -0.27630580699E+03  0.29356256943E+03  0.79965131623E+02 0.  0.
          5    1    3    3  501    0  0.59925669242E+02  0.51543633636E+02 -0.10107047854E+03  0.12839456233E+03  0.47000000000E+01 0. -1.
        -11    1    4    4    0    0  0.17202034107E+02 -0.15097683358E+02 -0.96466744748E+02  0.99144757110E+02  0.00000000000E+00 0.  1.
         12    1    4    4    0    0 -0.43902043426E+02 -0.25307004304E+02 -0.28664190357E+02  0.58219152284E+02  0.00000000000E+00 0. -1.
         -5    1    5    5    0  503 -0.21326141644E+02 -0.68567705211E+02 -0.31224871425E+03  0.32043358761E+03  0.47000000000E+01 0.  1.
         13    1    6    6    0    0  0.20123974050E+02 -0.86851496914E+01 -0.10341401845E+03  0.10571123578E+03  0.00000000000E+00 0. -1.
        -14    1    6    6    0    0 -0.32023492329E+02  0.66113908929E+02 -0.17289178854E+03  0.18785133366E+03  0.00000000000E+00 0.  1.
</event>
<event>
12    1  0.9028446E-003  0.2359721E+03  0.7818608E-02  0.1122517E+00
         21   -1    0    0  503  502  0.00000000000E+00  0.00000000000E+00  0.18384174735E+03  0.18384174735E+03  0.00000000000E+00 0.  1.
         21   -1    0    0  501  503 -0.00000000000E+00 -0.00000000000E+00 -0.30799763441E+03  0.30799763441E+03  0.00000000000E+00 0.  1.
          6    2    1    2  501    0  0.11718468676E+03 -0.11112560741E+03 -0.94015917722E+02  0.25395022831E+03  0.17196096720E+03 0.  0.
         24    2    3    3    0    0  0.37977810091E+02 -0.60194831827E+02  0.17089681223E+02  0.10823057511E+03  0.79724954346E+02 0.  0.
         -6    2    1    2    0  502 -0.11718468676E+03  0.11112560741E+03 -0.30139969335E+02  0.23788915345E+03  0.17205138808E+03 0.  0.
        -24    2    5    5    0    0 -0.12038530319E+03  0.13435496302E+03  0.32226085274E+01  0.19684042010E+03  0.78688553607E+02 0.  0.
          5    1    3    3  501    0  0.79206876674E+02 -0.50930775584E+02 -0.11110559895E+03  0.14571965321E+03  0.47000000000E+01 0. -1.
        -13    1    4    4    0    0 -0.19841774833E+01 -0.11781212251E+02  0.39737072882E+02  0.41494203012E+02  0.00000000000E+00 0.  1.
         14    1    4    4    0    0  0.39961987574E+02 -0.48413619576E+02 -0.22647391658E+02  0.66736372094E+02  0.00000000000E+00 0. -1.
         -5    1    5    5    0  502  0.32006164220E+01 -0.23229355610E+02 -0.33362577862E+02  0.41048733344E+02  0.47000000000E+01 0.  1.
         11    1    6    6    0    0 -0.73667976982E+02  0.39262032478E+02  0.27971887559E+02  0.88039221490E+02  0.00000000000E+00 0. -1.
        -12    1    6    6    0    0 -0.46717326204E+02  0.95092930543E+02 -0.24749279032E+02  0.10880119861E+03  0.00000000000E+00 0.  1.
</event>
<event>
12    1  0.9028446E-003  0.2228214E+03  0.7818608E-02  0.1131948E+00
         21   -1    0    0  503  502  0.00000000000E+00  0.00000000000E+00  0.10093947167E+03  0.10093947167E+03  0.00000000000E+00 0. -1.
         21   -1    0    0  501  503 -0.00000000000E+00 -0.00000000000E+00 -0.55424930187E+03  0.55424930187E+03  0.00000000000E+00 0. -1.
          6    2    1    2  501    0 -0.12536445026E+03  0.64923528466E+02 -0.33776635906E+03  0.40419144980E+03  0.17132806201E+03 0.  0.
         24    2    3    3    0    0 -0.92002882259E+02  0.10286878695E+03 -0.19120296724E+03  0.24909227287E+03  0.80261248730E+02 0.  0.
         -6    2    1    2    0  502  0.12536445026E+03 -0.64923528466E+02 -0.11554347114E+03  0.25099732374E+03  0.17238924811E+03 0.  0.
        -24    2    5    5    0    0 -0.18588308397E+01 -0.30395130774E+02 -0.14239085251E+02  0.84676422764E+02  0.77717602873E+02 0.  0.
          5    1    3    3  501    0 -0.33361568005E+02 -0.37945258485E+02 -0.14656339182E+03  0.15509917693E+03  0.47000000000E+01 0. -1.
        -13    1    4    4    0    0 -0.45496492151E+02  0.36770330316E+02 -0.23710564397E+02  0.63120352135E+02  0.00000000000E+00 0.  1.
         14    1    4    4    0    0 -0.46506390109E+02  0.66098456634E+02 -0.16749240285E+03  0.18597192073E+03  0.00000000000E+00 0. -1.
         -5    1    5    5    0  502  0.12722328110E+03 -0.34528397692E+02 -0.10130438588E+03  0.16632090098E+03  0.47000000000E+01 0.  1.
         11    1    6    6    0    0  0.21607236435E+02 -0.26779292684E+02  0.22370285067E+02  0.41041842514E+02  0.00000000000E+00 0. -1.
        -12    1    6    6    0    0 -0.23466067275E+02 -0.36158380898E+01 -0.36609370318E+02  0.43634580249E+02  0.00000000000E+00 0.  1.
</event>
<event>
12    1  0.9028446E-003  0.2590771E+03  0.7818608E-02  0.1108045E+00
         21   -1    0    0  503  502  0.00000000000E+00  0.00000000000E+00  0.71150250807E+03  0.71150250807E+03  0.00000000000E+00 0.  1.
         21   -1    0    0  501  503 -0.00000000000E+00 -0.00000000000E+00 -0.11604739595E+03  0.11604739595E+03  0.00000000000E+00 0.  1.
          6    2    1    2  501    0 -0.49492521709E+02 -0.18736102506E+03  0.11643650915E+03  0.28403942736E+03  0.17195136585E+03 0.  0.
         24    2    3    3    0    0  0.13987479529E+02 -0.13326462263E+03  0.12651504377E+03  0.19989789082E+03  0.77446763809E+02 0.  0.
         -6    2    1    2    0  502  0.49492521709E+02  0.18736102506E+03  0.47901860298E+03  0.54351047666E+03  0.16849674427E+03 0.  0.
        -24    2    5    5    0    0  0.24758164890E+02  0.18516104969E+02  0.16989361109E+03  0.19038054866E+03  0.80156729877E+02 0.  0.
          5    1    3    3  501    0 -0.63480001238E+02 -0.54096402424E+02 -0.10078534619E+02  0.84141536547E+02  0.47000000000E+01 0. -1.
        -13    1    4    4    0    0 -0.26285482803E+02 -0.20848368242E+02  0.41238781825E+02  0.53162187605E+02  0.00000000000E+00 0.  1.
         14    1    4    4    0    0  0.40272962331E+02 -0.11241625439E+03  0.85276261940E+02  0.14673570321E+03  0.00000000000E+00 0. -1.
         -5    1    5    5    0  502  0.24734356819E+02  0.16884492009E+03  0.30912499188E+03  0.35312992801E+03  0.47000000000E+01 0.  1.
         11    1    6    6    0    0  0.11497285434E+02 -0.18091939538E+02  0.64824618160E+01  0.22394824398E+02  0.00000000000E+00 0. -1.
        -12    1    6    6    0    0  0.13260879456E+02  0.36608044507E+02  0.16341114928E+03  0.16798572426E+03  0.00000000000E+00 0.  1.
</event>
<event>
12    1  0.9028446E-003  0.1915243E+03  0.7818608E-02  0.1157501E+00
         21   -1    0    0  503  502  0.00000000000E+00  0.00000000000E+00  0.82344001336E+02  0.82344001336E+02  0.00000000000E+00 0. -1.
         21   -1    0    0  501  503 -0.00000000000E+00 -0.00000000000E+00 -0.58441182151E+03  0.58441182151E+03  0.00000000000E+00 0. -1.
          6    2    1    2  501    0 -0.17461889946E+02 -0.77620146071E+02 -0.41693882863E+03  0.45882408152E+03  0.17421752579E+03 0.  0.
         24    2    3    3    0    0 -0.83814472651E+01  0.28088361280E+02 -0.19494062044E+03  0.21273052736E+03  0.79957658002E+02 0.  0.
         -6    2    1    2    0  502  0.17461889946E+02  0.77620146071E+02 -0.85128991547E+02  0.20793174132E+03  0.17221747638E+03 0.  0.
        -24    2    5    5    0    0  0.53372341226E+02  0.34229339659E+02 -0.10641266398E+03  0.14753797257E+03  0.80147013624E+02 0.  0.
          5    1    3    3  501    0 -0.90804426807E+01 -0.10570850735E+03 -0.22199820819E+03  0.24609355417E+03  0.47000000000E+01 0. -1.
        -11    1    4    4    0    0 -0.17774828704E+02  0.23350914148E+01 -0.22135904379E+01  0.18063697573E+02  0.00000000000E+00 0.  1.
         12    1    4    4    0    0  0.93933814390E+01  0.25753269865E+02 -0.19272703000E+03  0.19466682978E+03  0.00000000000E+00 0. -1.
         -5    1    5    5    0  502 -0.35910451280E+02  0.43390806412E+02  0.21283672433E+02  0.60393768755E+02  0.47000000000E+01 0.  1.
         11    1    6    6    0    0  0.32917079914E+02  0.21156527216E+02 -0.76505259564E+00  0.39137170303E+02  0.00000000000E+00 0. -1.
        -12    1    6    6    0    0  0.20455261312E+02  0.13072812443E+02 -0.10564761138E+03  0.10840080227E+03  0.00000000000E+00 0.  1.
</event>
<event>
12    1  0.9028446E-003  0.3034963E+03  0.7818608E-02  0.1083526E+00
         21   -1    0    0  503  502  0.00000000000E+00  0.00000000000E+00  0.28666765557E+03  0.28666765557E+03  0.00000000000E+00 0. -1.
         21   -1    0    0  501  503 -0.00000000000E+00 -0.00000000000E+00 -0.58425800618E+03  0.58425800618E+03  0.00000000000E+00 0. -1.
          6    2    1    2  501    0 -0.13063898805E+03  0.21307357989E+03 -0.44100412021E+03  0.53525097960E+03  0.17187810061E+03 0.  0.
         24    2    3    3    0    0 -0.60267900806E+02  0.98133435998E+02 -0.11234951530E+03  0.18000561942E+03  0.80729290262E+02 0.  0.
         -6    2    1    2    0  502  0.13063898805E+03 -0.21307357989E+03  0.14341376960E+03  0.33567468215E+03  0.17217167966E+03 0.  0.
        -24    2    5    5    0    0  0.53322890691E+00 -0.10270775254E+03  0.40725524052E+02  0.13648861290E+03  0.80133678169E+02 0.  0.
          5    1    3    3  501    0 -0.70371087248E+02  0.11494014389E+03 -0.32865460491E+03  0.35524536018E+03  0.47000000000E+01 0. -1.
        -13    1    4    4    0    0 -0.96792903342E+01 -0.27347564101E+01  0.95669969530E+01  0.13881461908E+02  0.00000000000E+00 0.  1.
         14    1    4    4    0    0 -0.50588610472E+02  0.10086819241E+03 -0.12191651225E+03  0.16612415751E+03  0.00000000000E+00 0. -1.
         -5    1    5    5    0  502  0.13010575915E+03 -0.11036582735E+03  0.10268824555E+03  0.19918606925E+03  0.47000000000E+01 0.  1.
         13    1    6    6    0    0  0.56648127378E+01 -0.25183188210E+02  0.51929223789E+02  0.57990752324E+02  0.00000000000E+00 0. -1.
        -14    1    6    6    0    0 -0.51315838309E+01 -0.77524564327E+02 -0.11203699737E+02  0.78497860572E+02  0.00000000000E+00 0.  1.
</event>
<event>
12    1  0.9028446E-003  0.5264250E+03  0.7818608E-02  0.1007109E+00
         21   -1    0    0  501  502  0.00000000000E+00  0.00000000000E+00  0.14044689640E+03  0.14044689640E+03  0.00000000000E+00 0.  1.
         21   -1    0    0  502  503 -0.00000000000E+00 -0.00000000000E+00 -0.20485691886E+04  0.20485691886E+04  0.00000000000E+00 0. -1.
          6    2    1    2  501    0  0.48047915142E+03 -0.12832974373E+03 -0.11644729068E+04  0.12778971861E+04  0.17232332840E+03 0.  0.
         24    2    3    3    0    0  0.17500646085E+03 -0.10400779538E+03 -0.44085536105E+03  0.49205396741E+03  0.79490720447E+02 0.  0.
         -6    2    1    2    0  503 -0.48047915142E+03  0.12832974373E+03 -0.74364938536E+03  0.91111889886E+03  0.17261083814E+03 0.  0.
        -24    2    5    5    0    0 -0.43824072883E+03  0.14153113163E+03 -0.59957971546E+03  0.76033255741E+03  0.80769827468E+02 0.  0.
          5    1    3    3  501    0  0.30547269057E+03 -0.24321948356E+02 -0.72361754575E+03  0.78584321869E+03  0.47000000000E+01 0. -1.
        -13    1    4    4    0    0  0.12088896408E+03 -0.43408175834E+02 -0.33379468642E+03  0.35765528662E+03  0.00000000000E+00 0.  1.
         14    1    4    4    0    0  0.54117496762E+02 -0.60599619544E+02 -0.10706067463E+03  0.13439868079E+03  0.00000000000E+00 0. -1.
         -5    1    5    5    0  503 -0.42238422582E+02 -0.13201387894E+02 -0.14406966990E+03  0.15078634146E+03  0.47000000000E+01 0.  1.
         11    1    6    6    0    0 -0.23498602726E+03  0.97416159606E+02 -0.27298691131E+03  0.37313562535E+03  0.00000000000E+00 0. -1.
        -12    1    6    6    0    0 -0.20325470158E+03  0.44114972022E+02 -0.32659280416E+03  0.38719693206E+03  0.00000000000E+00 0.  1.
</event>
<event>
12    1  0.9028446E-003  0.2251164E+03  0.7818608E-02  0.1130532E+00
         21   -1    0    0  503  502  0.00000000000E+00  0.00000000000E+00  0.10507047253E+03  0.10507047253E+03  0.00000000000E+00 0.  1.
         21   -1    0    0  501  503 -0.00000000000E+00 -0.00000000000E+00 -0.54776068890E+03  0.54776068890E+03  0.00000000000E+00 0.  1.
          6    2    1    2  501    0  0.10696561302E+03 -0.94170211703E+02 -0.33725612949E+03  0.40424766903E+03  0.17136163483E+03 0.  0.
         24    2    3    3    0    0  0.14274378743E+03 -0.89291847626E+02 -0.27712584806E+03  0.33395103365E+03  0.79848195416E+02 0.  0.
         -6    2    1    2    0  502 -0.10696561302E+03  0.94170211703E+02 -0.10543408687E+03  0.24858349241E+03  0.17426340660E+03 0.  0.
        -24    2    5    5    0    0 -0.72947397251E+02 -0.10148156824E+02 -0.83921377360E+02  0.13667081356E+03  0.78815010295E+02 0.  0.
          5    1    3    3  501    0 -0.35778174410E+02 -0.48783640772E+01 -0.60130281437E+02  0.70296635380E+02  0.47000000000E+01 0. -1.
        -13    1    4    4    0    0  0.68205537505E+02 -0.36032610176E+02 -0.19943375252E+03  0.21383209765E+03  0.00000000000E+00 0.  1.
         14    1    4    4    0    0  0.74538249924E+02 -0.53259237450E+02 -0.77692095535E+02  0.12011893599E+03  0.00000000000E+00 0. -1.
         -5    1    5    5    0  502 -0.34018215769E+02  0.10431836853E+03 -0.21512709515E+02  0.11191267885E+03  0.47000000000E+01 0.  1.
         11    1    6    6    0    0 -0.36213497904E+02  0.15790193941E+02 -0.82738695633E+02  0.91686637032E+02  0.00000000000E+00 0. -1.
        -12    1    6    6    0    0 -0.36733899346E+02 -0.25938350765E+02 -0.11826817268E+01  0.44984176525E+02  0.00000000000E+00 0.  1.
</event>
<event>
12    1  0.9028446E-003  0.3812664E+03  0.7818608E-02  0.1050524E+00
         21   -1    0    0  501  502  0.00000000000E+00  0.00000000000E+00  0.32516464947E+03  0.32516464947E+03  0.00000000000E+00 0.  1.
         21   -1    0    0  502  503 -0.00000000000E+00 -0.00000000000E+00 -0.45103505500E+03  0.45103505500E+03  0.00000000000E+00 0. -1.
          6    2    1    2  501    0 -0.21164980753E+03  0.26576367175E+03 -0.10255927619E+03  0.39422135069E+03  0.17165691935E+03 0.  0.
         24    2    3    3    0    0 -0.78766045251E+02  0.41915192337E+02 -0.44470578245E+02  0.12745811702E+03  0.79416409078E+02 0.  0.
         -6    2    1    2    0  503  0.21164980753E+03 -0.26576367175E+03 -0.23311129342E+02  0.38197835377E+03  0.17302625162E+03 0.  0.
        -24    2    5    5    0    0  0.38822531544E+02 -0.14391602392E+03 -0.27718394018E+02  0.17041836089E+03  0.77814506782E+02 0.  0.
          5    1    3    3  501    0 -0.13288376228E+03  0.22384847941E+03 -0.58088697942E+02  0.26676323368E+03  0.47000000000E+01 0. -1.
        -11    1    4    4    0    0 -0.76652153069E+02  0.44458725074E+02 -0.62942974061E+02  0.10869199045E+03  0.00000000000E+00 0.  1.
         12    1    4    4    0    0 -0.21138921825E+01 -0.25435327368E+01  0.18472395817E+02  0.18766126562E+02  0.00000000000E+00 0. -1.
         -5    1    5    5    0  503  0.17282727598E+03 -0.12184764783E+03  0.44072646757E+01  0.21155999288E+03  0.47000000000E+01 0.  1.
         13    1    6    6    0    0 -0.13392380452E+02 -0.72483218380E+01 -0.18308039613E+02  0.23813406688E+02  0.00000000000E+00 0. -1.
        -14    1    6    6    0    0  0.52214911996E+02 -0.13666770208E+03 -0.94103544046E+01  0.14660495420E+03  0.00000000000E+00 0.  1.
</event>
<event>
12    1  0.9028446E-003  0.1980538E+03  0.7818608E-02  0.1151460E+00
         21   -1    0    0  501  502  0.00000000000E+00  0.00000000000E+00  0.39129176707E+03  0.39129176707E+03  0.00000000000E+00 0. -1.
         21   -1    0    0  502  503 -0.00000000000E+00 -0.00000000000E+00 -0.10028461090E+03  0.10028461090E+03  0.00000000000E+00 0.  1.
          6    2    1    2  501    0 -0.19015014310E+02 -0.96534246689E+02  0.15660109228E+03  0.25248607498E+03  0.17188625426E+03 0.  0.
         24    2    3    3    0    0 -0.94424441575E+01 -0.60315169075E+02  0.97402033442E+01  0.10084944886E+03  0.79678481428E+02 0.  0.
         -6    2    1    2    0  503  0.19015014310E+02  0.96534246689E+02  0.13440606389E+03  0.23909030298E+03  0.17151895352E+03 0.  0.
        -24    2    5    5    0    0  0.71680366271E+01  0.80588795853E+02  0.16587124468E+03  0.20158355847E+03  0.81097018854E+02 0.  0.
          5    1    3    3  501    0 -0.95725701527E+01 -0.36219077614E+02  0.14686088893E+03  0.15163662612E+03  0.47000000000E+01 0. -1.
        -11    1    4    4    0    0 -0.89002860303E+01  0.17635640962E+02  0.11536183173E+02  0.22876067095E+02  0.00000000000E+00 0.  1.
         12    1    4    4    0    0 -0.54215812719E+00 -0.77950810037E+02 -0.17959798288E+01  0.77973381768E+02  0.00000000000E+00 0. -1.
         -5    1    5    5    0  503  0.11846977683E+02  0.15945450837E+02 -0.31465180784E+02  0.37506744519E+02  0.47000000000E+01 0.  1.
         11    1    6    6    0    0  0.32937046510E+01  0.23840083053E+02  0.13447817890E+03  0.13661470876E+03  0.00000000000E+00 0. -1.
        -12    1    6    6    0    0  0.38743319761E+01  0.56748712800E+02  0.31393065776E+02  0.64968849701E+02  0.00000000000E+00 0.  1.
</event>
<event>
12    1  0.9028446E-003  0.2214309E+03  0.7818608E-02  0.1132834E+00
         21   -1    0    0  503  502  0.00000000000E+00  0.00000000000E+00  0.36433589525E+03  0.36433589525E+03  0.00000000000E+00 0. -1.
         21   -1    0    0  501  503 -0.00000000000E+00 -0.00000000000E+00 -0.14125944807E+03  0.14125944807E+03  0.00000000000E+00 0.  1.
          6    2    1    2  501    0 -0.74568694382E+02  0.11872159711E+03  0.56363938815E+02  0.22842264632E+03  0.17130295956E+03 0.  0.
         24    2    3    3    0    0 -0.59062243594E+02  0.63175580411E+01  0.77113262124E+01  0.10487393234E+03  0.86086102097E+02 0.  0.
         -6    2    1    2    0  502  0.74568694382E+02 -0.11872159711E+03  0.16671250837E+03  0.27717269699E+03  0.17139526164E+03 0.  0.
        -24    2    5    5    0    0  0.11286734579E+03 -0.12177845386E+03  0.14099680711E+03  0.23070207871E+03  0.75988946120E+02 0.  0.
          5    1    3    3  501    0 -0.15506450787E+02  0.11240403906E+03  0.48652612603E+02  0.12354871398E+03  0.47000000000E+01 0. -1.
        -13    1    4    4    0    0 -0.36356686538E+02  0.46011695906E+02  0.96690573976E+00  0.58649976325E+02  0.00000000000E+00 0.  1.
         14    1    4    4    0    0 -0.22705557056E+02 -0.39694137865E+02  0.67444204727E+01  0.46223956014E+02  0.00000000000E+00 0. -1.
         -5    1    5    5    0  502 -0.38298651408E+02  0.30568567576E+01  0.25715701256E+02  0.46470618288E+02  0.47000000000E+01 0.  1.
         11    1    6    6    0    0  0.97552779502E+02 -0.10954785745E+03  0.14940281414E+03  0.20937640443E+03  0.00000000000E+00 0. -1.
        -12    1    6    6    0    0  0.15314566288E+02 -0.12230596409E+02 -0.84060070243E+01  0.21325674273E+02  0.00000000000E+00 0.  1.
</event>
<event>
12    1  0.9028446E-003  0.2889951E+03  0.7818608E-02  0.1091129E+00
         21   -1    0    0  503  502  0.00000000000E+00  0.00000000000E+00  0.44111425570E+03  0.44111425570E+03  0.00000000000E+00 0. -1.
         21   -1    0    0  501  503 -0.00000000000E+00 -0.00000000000E+00 -0.21420218140E+03  0.21420218140E+03  0.00000000000E+00 0.  1.
          6    2    1    2  501    0 -0.16206604189E+03 -0.16464610364E+03 -0.13200336740E+01  0.28706644959E+03  0.17038680293E+03 0.  0.
         24    2    3    3    0    0 -0.40075159048E+02 -0.12830744298E+03  0.23097857505E+02  0.15737220467E+03  0.78509117210E+02 0.  0.
         -6    2    1    2    0  502  0.16206604189E+03  0.16464610364E+03  0.22823210797E+03  0.36824998751E+03  0.17362147568E+03 0.  0.
        -24    2    5    5    0    0  0.85137836967E+02  0.17510096494E+02  0.12760804786E+03  0.17404843040E+03  0.80336713178E+02 0.  0.
          5    1    3    3  501    0 -0.12199088285E+03 -0.36338660659E+02 -0.24417891179E+02  0.12969424492E+03  0.47000000000E+01 0. -1.
        -11    1    4    4    0    0 -0.35674834388E+02 -0.70802989089E+02 -0.24082554796E+02  0.82859679689E+02  0.00000000000E+00 0.  1.
         12    1    4    4    0    0 -0.44003246598E+01 -0.57504453888E+02  0.47180412301E+02  0.74512524980E+02  0.00000000000E+00 0. -1.
         -5    1    5    5    0  502  0.76928204928E+02  0.14713600714E+03  0.10062406011E+03  0.19420155711E+03  0.47000000000E+01 0.  1.
         11    1    6    6    0    0  0.81719608636E+01 -0.50860926702E+01 -0.10557021448E+02  0.14286356599E+02  0.00000000000E+00 0. -1.
        -12    1    6    6    0    0  0.76965876103E+02  0.22596189165E+02  0.13816506931E+03  0.15976207380E+03  0.00000000000E+00 0.  1.
</event>
<event>
12    1  0.9028446E-003  0.1932116E+03  0.7818608E-02  0.1155647E+00
         21   -1    0    0  501  502  0.00000000000E+00  0.00000000000E+00  0.62766106292E+03  0.62766106292E+03  0.00000000000E+00 0.  1.
         21   -1    0    0  502  503 -0.00000000000E+00 -0.00000000000E+00 -0.20670709974E+03  0.20670709974E+03  0.00000000000E+00 0.  1.
          6    2    1    2  501    0 -0.57988484922E+02 -0.67557989397E+02  0.56268584119E+03  0.59493368292E+03  0.17147590178E+03 0.  0.
         24    2    3    3    0    0 -0.97277285106E+02 -0.33211911244E+02  0.31415140360E+03  0.34093620346E+03  0.83549321986E+02 0.  0.
         -6    2    1    2    0  503  0.57988484922E+02  0.67557989397E+02 -0.14173187801E+03  0.23943447973E+03  0.17121389700E+03 0.  0.
        -24    2    5    5    0    0 -0.34110782043E+02  0.45676782255E+02 -0.59393603204E+02  0.11388471390E+03  0.78690622510E+02 0.  0.
          5    1    3    3  501    0  0.39288800184E+02 -0.34346078153E+02  0.24853443759E+03  0.25399747946E+03  0.47000000000E+01 0. -1.
        -11    1    4    4    0    0 -0.13323688367E+01 -0.31770792760E+02  0.12311117240E+03  0.12715156015E+03  0.00000000000E+00 0.  1.
         12    1    4    4    0    0 -0.95944916269E+02 -0.14411184840E+01  0.19104023120E+03  0.21378464331E+03  0.00000000000E+00 0. -1.
         -5    1    5    5    0  503  0.92099266964E+02  0.21881207142E+02 -0.82338274802E+02  0.12554976583E+03  0.47000000000E+01 0.  1.
         11    1    6    6    0    0 -0.44444762770E+02  0.46284309241E+02 -0.11882864476E+02  0.65259303457E+02  0.00000000000E+00 0. -1.
        -12    1    6    6    0    0  0.10333980728E+02 -0.60752698608E+00 -0.47510738728E+02  0.48625410447E+02  0.00000000000E+00 0.  1.
</event>
<event>
12    1  0.9028446E-003  0.2082510E+03  0.7818608E-02  0.1144407E+00
         21   -1    0    0  503  502  0.00000000000E+00  0.00000000000E+00  0.54919478860E+03  0.54919478860E+03  0.00000000000E+00 0. -1.
         21   -1    0    0  501  503 -0.00000000000E+00 -0.00000000000E+00 -0.21007384445E+03  0.21007384445E+03  0.00000000000E+00 0. -1.
          6    2    1    2  501    0 -0.47518318082E+02 -0.91688393368E+02 -0.13230378353E+03  0.24672403750E+03  0.18084166421E+03 0.  0.
         24    2    3    3    0    0 -0.84990013909E+02 -0.10143152458E+03 -0.13836461113E+03  0.20725404605E+03  0.79358788742E+02 0.  0.
         -6    2    1    2    0  502  0.47518318082E+02  0.91688393368E+02  0.47142472768E+03  0.51254459554E+03  0.17261499506E+03 0.  0.
        -24    2    5    5    0    0  0.73460960587E+02  0.74675645682E+01  0.33265587771E+03  0.34809079526E+03  0.71098463561E+02 0.  0.
          5    1    3    3  501    0  0.37471695827E+02  0.97431312143E+01  0.60608275907E+01  0.39469991450E+02  0.47000000000E+01 0. -1.
        -13    1    4    4    0    0 -0.10295833295E+02  0.70622109924E+01  0.41823911351E+01  0.13167057490E+02  0.00000000000E+00 0.  1.
         14    1    4    4    0    0 -0.74694180614E+02 -0.10849373557E+03 -0.14254700226E+03  0.19408698856E+03  0.00000000000E+00 0. -1.
         -5    1    5    5    0  502 -0.25942642504E+02  0.84220828800E+02  0.13876884997E+03  0.16445380028E+03  0.47000000000E+01 0.  1.
         11    1    6    6    0    0  0.67020012537E+02  0.24099464596E+02  0.31515753595E+03  0.32310484171E+03  0.00000000000E+00 0. -1.
        -12    1    6    6    0    0  0.64409480499E+01 -0.16631900028E+02  0.17498341762E+02  0.24985953549E+02  0.00000000000E+00 0.  1.
</event>
<event>
12    1  0.9028446E-003  0.2032355E+03  0.7818608E-02  0.1147591E+00
         21   -1    0    0  501  502  0.00000000000E+00  0.00000000000E+00  0.50951517634E+03  0.50951517634E+03  0.00000000000E+00 0.  1.
         21   -1    0    0  502  503 -0.00000000000E+00 -0.00000000000E+00 -0.81145453726E+02  0.81145453726E+02  0.00000000000E+00 0.  1.
          6    2    1    2  501    0 -0.70136542182E+02 -0.83416938205E+02  0.17785167127E+03  0.26807114221E+03  0.16838467919E+03 0.  0.
         24    2    3    3    0    0 -0.77816897248E+02 -0.24164327615E+02  0.45905034050E+02  0.12315094076E+03  0.80121768779E+02 0.  0.
         -6    2    1    2    0  503  0.70136542182E+02  0.83416938205E+02  0.25051805135E+03  0.32258948786E+03  0.17154347407E+03 0.  0.
        -24    2    5    5    0    0  0.71382427866E+02  0.50091702848E+02  0.66171427061E+02  0.13519180530E+03  0.79331814287E+02 0.  0.
          5    1    3    3  501    0  0.76803550663E+01 -0.59252610590E+02  0.13194663722E+03  0.14492020145E+03  0.47000000000E+01 0. -1.
        -11    1    4    4    0    0 -0.57403917800E+02  0.23790510596E+02  0.23868495398E+02  0.66565030202E+02  0.00000000000E+00 0.  1.
         12    1    4    4    0    0 -0.20412979448E+02 -0.47954838211E+02  0.22036538652E+02  0.56585910557E+02  0.00000000000E+00 0. -1.
         -5    1    5    5    0  503 -0.12458856841E+01  0.33325235357E+02  0.18434662429E+03  0.18739768256E+03  0.47000000000E+01 0.  1.
         11    1    6    6    0    0  0.18019716806E+01 -0.12228167545E+02  0.34358623705E+02  0.36514246622E+02  0.00000000000E+00 0. -1.
        -12    1    6    6    0    0  0.69580456185E+02  0.62319870394E+02  0.31812803356E+02  0.98677558676E+02  0.00000000000E+00 0.  1.
</event>
<event>
12    1  0.9028446E-003  0.3111404E+03  0.7818608E-02  0.1079945E+00
         21   -1    0    0  501  502  0.00000000000E+00  0.00000000000E+00  0.12625412610E+03  0.12625412610E+03  0.00000000000E+00 0. -1.
         21   -1    0    0  502  503 -0.00000000000E+00 -0.00000000000E+00 -0.83343370003E+03  0.83343370003E+03  0.00000000000E+00 0. -1.
          6    2    1    2  501    0 -0.12564030490E+03 -0.22491925981E+03 -0.21424684841E+03  0.37677186068E+03  0.17228221992E+03 0.  0.
         24    2    3    3    0    0  0.45275361061E+01 -0.59111705334E+02 -0.76821902890E+02  0.12509047956E+03  0.78938780217E+02 0.  0.
         -6    2    1    2    0  503  0.12564030490E+03  0.22491925981E+03 -0.49293272552E+03  0.58291596545E+03  0.17445398027E+03 0.  0.
        -24    2    5    5    0    0  0.10796558128E+03  0.10790002359E+03 -0.20534773477E+03  0.27189648952E+03  0.91983841006E+02 0.  0.
          5    1    3    3  501    0 -0.13016784100E+03 -0.16580755448E+03 -0.13742494552E+03  0.25168138112E+03  0.47000000000E+01 0. -1.
        -11    1    4    4    0    0 -0.35776087640E+01 -0.97380635992E+01 -0.74269870018E+02  0.74990951185E+02  0.00000000000E+00 0.  1.
         12    1    4    4    0    0  0.81051448701E+01 -0.49373641735E+02 -0.25520328717E+01  0.50099528374E+02  0.00000000000E+00 0. -1.
         -5    1    5    5    0  503  0.17674723623E+02  0.11701923622E+03 -0.28758499075E+03  0.31101947593E+03  0.47000000000E+01 0.  1.
         13    1    6    6    0    0  0.57107806932E+02  0.54579588986E+01 -0.36624058511E+02  0.68061829168E+02  0.00000000000E+00 0. -1.
        -14    1    6    6    0    0  0.50857774344E+02  0.10244206469E+03 -0.16872367626E+03  0.20383466035E+03  0.00000000000E+00 0.  1.
</event>
<event>
12    1  0.9028446E-003  0.1911000E+03  0.7818608E-02  0.1158138E+00
         21   -1    0    0  503  502  0.00000000000E+00  0.00000000000E+00  0.11066106498E+03  0.11066106498E+03  0.00000000000E+00 0. -1.
         21   -1    0    0  501  503 -0.00000000000E+00 -0.00000000000E+00 -0.39176081658E+03  0.39176081658E+03  0.00000000000E+00 0. -1.
          6    2    1    2  501    0 -0.76184010485E+02 -0.21708794385E+02 -0.24338979944E+03  0.30763673097E+03  0.17066484279E+03 0.  0.
         24    2    3    3    0    0 -0.11037067892E+03  0.12347885937E+02 -0.18232235599E+03  0.22966296344E+03  0.84672771491E+02 0.  0.
         -6    2    1    2    0  502  0.76184010485E+02  0.21708794385E+02 -0.37709952164E+02  0.19478515059E+03  0.17390784684E+03 0.  0.
        -24    2    5    5    0    0  0.10177910868E+03  0.59757762419E+02 -0.39631117878E+02  0.14864824673E+03  0.81213906567E+02 0.  0.
          5    1    3    3  501    0  0.34186668430E+02 -0.34056680323E+02 -0.61067443454E+02  0.77973767530E+02  0.47000000000E+01 0. -1.
        -11    1    4    4    0    0 -0.79469985364E+02  0.29906943696E+02 -0.17331621955E+03  0.19299848656E+03  0.00000000000E+00 0.  1.
         12    1    4    4    0    0 -0.30900693551E+02 -0.17559057759E+02 -0.90061364359E+01  0.36664476879E+02  0.00000000000E+00 0. -1.
         -5    1    5    5    0  502 -0.25595098192E+02 -0.38048968033E+02  0.19211657142E+01  0.46136903858E+02  0.47000000000E+01 0.  1.
         13    1    6    6    0    0  0.70347628003E+02  0.35466303847E+02  0.15900713757E+02  0.80370891324E+02  0.00000000000E+00 0. -1.
        -14    1    6    6    0    0  0.31431480675E+02  0.24291458572E+02 -0.55531831634E+02  0.68277355409E+02  0.00000000000E+00 0.  1.
</event>
<event>
12    1  0.9028446E-003  0.1860638E+03  0.7818608E-02  0.1162121E+00
         21   -1    0    0  501  502  0.00000000000E+00  0.00000000000E+00  0.14489470143E+03  0.14489470143E+03  0.00000000000E+00 0.  1.
         21   -1    0    0  502  503 -0.00000000000E+00 -0.00000000000E+00 -0.24089884409E+03  0.24089884409E+03  0.00000000000E+00 0.  1.
          6    2    1    2  501    0 -0.66966129172E+02  0.20403205633E+02 -0.29163435778E+02  0.18833549099E+03  0.17239198916E+03 0.  0.
         24    2    3    3    0    0 -0.19411522906E+00  0.10969933256E+02  0.41179552205E+02  0.90776716748E+02  0.80151604272E+02 0.  0.
         -6    2    1    2    0  503  0.66966129172E+02 -0.20403205633E+02 -0.66840706886E+02  0.19745805452E+03  0.17210825065E+03 0.  0.
        -24    2    5    5    0    0  0.38405699100E+02  0.23829646684E+02  0.22005023670E+02  0.94075767701E+02  0.79518420617E+02 0.  0.
          5    1    3    3  501    0 -0.66772013943E+02  0.94332723769E+01 -0.70342987983E+02  0.97558774244E+02  0.47000000000E+01 0. -1.
        -11    1    4    4    0    0 -0.24638619057E+02 -0.11854982364E+02  0.49287638160E+02  0.56363759911E+02  0.00000000000E+00 0.  1.
         12    1    4    4    0    0  0.24444503828E+02  0.22824915620E+02 -0.81080859542E+01  0.34412956838E+02  0.00000000000E+00 0. -1.
         -5    1    5    5    0  503  0.28560430072E+02 -0.44232852317E+02 -0.88845730557E+02  0.10338228682E+03  0.47000000000E+01 0.  1.
         11    1    6    6    0    0  0.12597870303E+02  0.81113187653E+01  0.50418420365E+02  0.52597689497E+02  0.00000000000E+00 0. -1.
        -12    1    6    6    0    0  0.25807828797E+02  0.15718327919E+02 -0.28413396695E+02  0.41478078204E+02  0.00000000000E+00 0.  1.
</event>
<event>
12    1  0.9028446E-003  0.1730959E+03  0.7818608E-02  0.1174664E+00
         21   -1    0    0  503  502  0.00000000000E+00  0.00000000000E+00  0.59022499953E+03  0.59022499953E+03  0.00000000000E+00 0. -1.
         21   -1    0    0  501  503 -0.00000000000E+00 -0.00000000000E+00 -0.89940786303E+02  0.89940786303E+02  0.00000000000E+00 0. -1.
          6    2    1    2  501    0  0.83960989274E+01 -0.76063192570E+01  0.25680700989E+02  0.17499052289E+03  0.17272473513E+03 0.  0.
         24    2    3    3    0    0  0.51370114635E+02  0.41443627302E+02  0.34712328472E+02  0.10898807158E+03  0.79479500987E+02 0.  0.
         -6    2    1    2    0  502 -0.83960989274E+01  0.76063192570E+01  0.47460351224E+03  0.50517526294E+03  0.17269974492E+03 0.  0.
        -24    2    5    5    0    0  0.46318448834E+02 -0.42491941292E+02  0.28495363677E+03  0.30147773544E+03  0.75758076014E+02 0.  0.
          5    1    3    3  501    0 -0.42974015708E+02 -0.49049946559E+02 -0.90316274825E+01  0.66002451307E+02  0.47000000000E+01 0. -1.
        -11    1    4    4    0    0  0.15782681270E+02 -0.86308389989E+01  0.43366466909E+02  0.46949279675E+02  0.00000000000E+00 0.  1.
         12    1    4    4    0    0  0.35587433365E+02  0.50074466301E+02 -0.86541384369E+01  0.62038791904E+02  0.00000000000E+00 0. -1.
         -5    1    5    5    0  502 -0.54714547761E+02  0.50098260549E+02  0.18964987547E+03  0.20369752750E+03  0.47000000000E+01 0.  1.
         13    1    6    6    0    0  0.48723800114E+01 -0.16622257404E+02  0.21750194269E+03  0.21819059238E+03  0.00000000000E+00 0. -1.
        -14    1    6    6    0    0  0.41446068823E+02 -0.25869683888E+02  0.67451694074E+02  0.83287143058E+02  0.00000000000E+00 0.  1.
</event>
<event>
12    1  0.9028446E-003  0.1977600E+03  0.7818608E-02  0.1153814E+00
         21   -1    0    0  501  502  0.00000000000E+00  0.00000000000E+00  0.84120975104E+03  0.84120975104E+03  0.00000000000E+00 0. -1.
         21   -1    0    0  502  503 -0.00000000000E+00 -0.00000000000E+00 -0.10845303686E+03  0.10845303686E+03  0.00000000000E+00 0.  1.
          6    2    1    2  501    0  0.38135478166E+02  0.58711424413E+02  0.73563103837E+03  0.76174933036E+03  0.18495316067E+03 0.  0.
         24    2    3    3    0    0  0.43298248761E+02  0.78730392984E+02  0.32353613049E+03  0.34910939482E+03  0.95543334115E+02 0.  0.
         -6    2    1    2    0  503 -0.38135478166E+02 -0.58711424413E+02 -0.28743241942E+01  0.18791345754E+03  0.17436129081E+03 0.  0.
        -24    2    5    5    0    0  0.12041789040E+02 -0.18617914140E+02  0.53873414859E+02  0.10207847867E+03  0.83821474388E+02 0.  0.
          5    1    3    3  501    0 -0.51627705955E+01 -0.20018968571E+02  0.41209490788E+03  0.41263993555E+03  0.47000000000E+01 0. -1.
        -11    1    4    4    0    0 -0.21950880086E+02  0.10853401961E+02  0.20992819798E+02  0.32254239314E+02  0.00000000000E+00 0.  1.
         12    1    4    4    0    0  0.65249128848E+02  0.67876991023E+02  0.30254331069E+03  0.31685515550E+03  0.00000000000E+00 0. -1.
         -5    1    5    5    0  503 -0.50177267205E+02 -0.40093510273E+02 -0.56747739053E+02  0.85834978872E+02  0.47000000000E+01 0.  1.
         13    1    6    6    0    0  0.11463391164E+02  0.10117027844E+02  0.68250677170E+02  0.69942251347E+02  0.00000000000E+00 0. -1.
        -14    1    6    6    0    0  0.57839787538E+00 -0.28734941983E+02 -0.14377262311E+02  0.32136227321E+02  0.00000000000E+00 0.  1.
</event>
<event>
12    1  0.9028446E-003  0.2057250E+03  0.7818608E-02  0.1145341E+00
         21   -1    0    0  501  502  0.00000000000E+00  0.00000000000E+00  0.23007798402E+03  0.23007798402E+03  0.00000000000E+00 0.  1.
         21   -1    0    0  502  503 -0.00000000000E+00 -0.00000000000E+00 -0.31071034671E+03  0.31071034671E+03  0.00000000000E+00 0.  1.
          6    2    1    2  501    0 -0.97959353779E+02 -0.53535580527E+02  0.13351117850E+03  0.24383675522E+03  0.17078944651E+03 0.  0.
         24    2    3    3    0    0 -0.44085345112E+02 -0.67513586283E+02  0.14796601807E+03  0.18614077753E+03  0.79074930107E+02 0.  0.
         -6    2    1    2    0  503  0.97959353779E+02  0.53535580527E+02 -0.21414354119E+03  0.29695157550E+03  0.17280245539E+03 0.  0.
        -24    2    5    5    0    0 -0.17353311761E+02  0.32402113462E+02 -0.10445585919E+03  0.13633678215E+03  0.79534000659E+02 0.  0.
          5    1    3    3  501    0 -0.53874008667E+02  0.13978005755E+02 -0.14454839570E+02  0.57695977691E+02  0.47000000000E+01 0. -1.
        -13    1    4    4    0    0 -0.19174591203E+01 -0.63199327078E+02  0.54356483421E+02  0.83381406095E+02  0.00000000000E+00 0.  1.
         14    1    4    4    0    0 -0.42167885992E+02 -0.43142592051E+01  0.93609534647E+02  0.10275937144E+03  0.00000000000E+00 0. -1.
         -5    1    5    5    0  503  0.11531266554E+03  0.21133467066E+02 -0.10968768200E+03  0.16061479336E+03  0.47000000000E+01 0.  1.
         11    1    6    6    0    0 -0.21921325980E+02  0.51006190259E+02 -0.10314296272E+03  0.11713516439E+03  0.00000000000E+00 0. -1.
        -12    1    6    6    0    0  0.45680142192E+01 -0.18604076798E+02 -0.13128964708E+01  0.19201617759E+02  0.00000000000E+00 0.  1.
</event>
<event>
12    1  0.9028446E-003  0.1878259E+03  0.7818608E-02  0.1160649E+00
         21   -1    0    0  501  502  0.00000000000E+00  0.00000000000E+00  0.13700714524E+04  0.13700714524E+04  0.00000000000E+00 0.  1.
         21   -1    0    0  502  503 -0.00000000000E+00 -0.00000000000E+00 -0.26744089996E+02  0.26744089996E+02  0.00000000000E+00 0.  1.
          6    2    1    2  501    0 -0.46925853738E+02 -0.61343198509E+02  0.81305932792E+03  0.83426532141E+03  0.17020027036E+03 0.  0.
         24    2    3    3    0    0  0.12796820934E+02 -0.23772711110E+02  0.19708691936E+03  0.21424722691E+03  0.79559537686E+02 0.  0.
         -6    2    1    2    0  503  0.46925853738E+02  0.61343198509E+02  0.53026803451E+03  0.56255022101E+03  0.17121197093E+03 0.  0.
        -24    2    5    5    0    0  0.29500759495E+02 -0.33079675726E+02  0.20402608531E+03  0.22243963237E+03  0.76734521612E+02 0.  0.
          5    1    3    3  501    0 -0.59722674672E+02 -0.37570487399E+02  0.61597240856E+03  0.62001809450E+03  0.47000000000E+01 0. -1.
        -13    1    4    4    0    0 -0.23200496061E+02 -0.15202296371E+02  0.15802612775E+03  0.16044198292E+03  0.00000000000E+00 0.  1.
         14    1    4    4    0    0  0.35997316994E+02 -0.85704147389E+01  0.39060791614E+02  0.53805243993E+02  0.00000000000E+00 0. -1.
         -5    1    5    5    0  503  0.17425094243E+02  0.94422874235E+02  0.32624194920E+03  0.34011058864E+03  0.47000000000E+01 0.  1.
         11    1    6    6    0    0  0.11202008796E+02  0.39065088137E+01  0.16569220352E+03  0.16611638125E+03  0.00000000000E+00 0. -1.
        -12    1    6    6    0    0  0.18298750699E+02 -0.36986184540E+02  0.38333881782E+02  0.56323251118E+02  0.00000000000E+00 0.  1.
</event>
<event>
12    1  0.9028446E-003  0.2383922E+03  0.7818608E-02  0.1120929E+00
         21   -1    0    0  501  502  0.00000000000E+00  0.00000000000E+00  0.46087402969E+02  0.46087402969E+02  0.00000000000E+00 0. -1.
         21   -1    0    0  502  503 -0.00000000000E+00 -0.00000000000E+00 -0.17052801166E+04  0.17052801166E+04  0.00000000000E+00 0. -1.
          6    2    1    2  501    0 -0.11195978449E+02 -0.16508062840E+03 -0.36744799101E+03  0.43780926841E+03  0.17111974055E+03 0.  0.
         24    2    3    3    0    0 -0.63043385058E+02 -0.13212866184E+03 -0.31888283096E+03  0.35935768817E+03  0.77583738534E+02 0.  0.
         -6    2    1    2    0  503  0.11195978449E+02  0.16508062840E+03 -0.12917447226E+04  0.13135582512E+04  0.17162134762E+03 0.  0.
        -24    2    5    5    0    0 -0.53304537783E+02  0.59315868910E+02 -0.61196553578E+03  0.62256741634E+03  0.82028195453E+02 0.  0.
          5    1    3    3  501    0  0.51847406609E+02 -0.32951966552E+02 -0.48565160046E+02  0.78451580239E+02  0.47000000000E+01 0. -1.
        -13    1    4    4    0    0 -0.43739988636E+02 -0.13043297027E+03 -0.22683600621E+03  0.26529327178E+03  0.00000000000E+00 0.  1.
         14    1    4    4    0    0 -0.19303396423E+02 -0.16956915691E+01 -0.92046824749E+02  0.94064416385E+02  0.00000000000E+00 0. -1.
         -5    1    5    5    0  503  0.64500516232E+02  0.10576475949E+03 -0.67977918686E+03  0.69099083484E+03  0.47000000000E+01 0.  1.
         11    1    6    6    0    0  0.17487418939E+02  0.34074208506E+02 -0.24606492092E+03  0.24902772298E+03  0.00000000000E+00 0. -1.
        -12    1    6    6    0    0 -0.70791956722E+02  0.25241660404E+02 -0.36590061486E+03  0.37353969336E+03  0.00000000000E+00 0.  1.
</event>
<event>
12    1  0.9028446E-003  0.2565043E+03  0.7818608E-02  0.1109386E+00
         21   -1    0    0  501  502  0.00000000000E+00  0.00000000000E+00  0.13332806204E+03  0.13332806204E+03  0.00000000000E+00 0. -1.
         21   -1    0    0  502  503 -0.00000000000E+00 -0.00000000000E+00 -0.53215591246E+03  0.53215591246E+03  0.00000000000E+00 0.  1.
          6    2    1    2  501    0 -0.89888111554E+02 -0.16663572023E+03 -0.10821074107E+03  0.27839539681E+03  0.17305229449E+03 0.  0.
         24    2    3    3    0    0 -0.27409314930E+01 -0.68183750444E+02  0.29576645651E+01  0.10615159936E+03  0.81258093366E+02 0.  0.
         -6    2    1    2    0  503  0.89888111554E+02  0.16663572023E+03 -0.29061710935E+03  0.38708857768E+03  0.17184855795E+03 0.  0.
        -24    2    5    5    0    0  0.65978784029E+02  0.97371396780E+02 -0.77311222414E+02  0.16149891957E+03  0.79186407029E+02 0.  0.
          5    1    3    3  501    0 -0.87147180061E+02 -0.98451969791E+02 -0.11116840564E+03  0.17224379745E+03  0.47000000000E+01 0. -1.
        -13    1    4    4    0    0  0.26048384888E+02  0.57684342975E+01  0.24488183887E+01  0.26791601315E+02  0.00000000000E+00 0.  1.
         14    1    4    4    0    0 -0.28789316381E+02 -0.73952184742E+02  0.50884617643E+00  0.79359998048E+02  0.00000000000E+00 0. -1.
         -5    1    5    5    0  503  0.23909327526E+02  0.69264323455E+02 -0.21330588693E+03  0.22558965811E+03  0.47000000000E+01 0.  1.
         11    1    6    6    0    0 -0.72100541575E+01 -0.46999267320E+01  0.62552501530E+01  0.10639659145E+02  0.00000000000E+00 0. -1.
        -12    1    6    6    0    0  0.73188838186E+02  0.10207132351E+03 -0.83566472567E+02  0.15085926042E+03  0.00000000000E+00 0.  1.
</event>
<event>
12    1  0.9028446E-003  0.1731910E+03  0.7818608E-02  0.1174834E+00
         21   -1    0    0  501  502  0.00000000000E+00  0.00000000000E+00  0.50341667962E+02  0.50341667962E+02  0.00000000000E+00 0.  1.
         21   -1    0    0  502  503 -0.00000000000E+00 -0.00000000000E+00 -0.61195427678E+03  0.61195427678E+03  0.00000000000E+00 0.  1.
          6    2    1    2  501    0  0.18244781167E+02 -0.16097736177E+00 -0.34122668491E+03  0.38266274852E+03  0.17222726457E+03 0.  0.
         24    2    3    3    0    0 -0.20843971063E+02 -0.58362366539E+02 -0.21392258965E+03  0.23725382540E+03  0.81767147126E+02 0.  0.
         -6    2    1    2    0  503 -0.18244781167E+02  0.16097736177E+00 -0.22038592391E+03  0.27963319622E+03  0.17114868102E+03 0.  0.
        -24    2    5    5    0    0 -0.56772699033E+02  0.59040924938E+01 -0.72260485084E+02  0.12639932446E+03  0.86586453073E+02 0.  0.
          5    1    3    3  501    0  0.39088752230E+02  0.58201389178E+02 -0.12730409526E+03  0.14540892312E+03  0.47000000000E+01 0. -1.
        -11    1    4    4    0    0 -0.24527077570E+02  0.38597976624E+01 -0.13199900077E+03  0.13431385549E+03  0.00000000000E+00 0.  1.
         12    1    4    4    0    0  0.36831065071E+01 -0.62222164202E+02 -0.81923588884E+02  0.10293996992E+03  0.00000000000E+00 0. -1.
         -5    1    5    5    0  503  0.38527917866E+02 -0.57431151320E+01 -0.14812543883E+03  0.15323387176E+03  0.47000000000E+01 0.  1.
         11    1    6    6    0    0 -0.46409252751E+02  0.13779994819E+02 -0.91296759699E+02  0.10333830524E+03  0.00000000000E+00 0. -1.
        -12    1    6    6    0    0 -0.10363446282E+02 -0.78759023257E+01  0.19036274615E+02  0.23061019221E+02  0.00000000000E+00 0.  1.
</event>
<event>
12    1  0.9028446E-003  0.2059685E+03  0.7818608E-02  0.1144980E+00
         21   -1    0    0  503  502  0.00000000000E+00  0.00000000000E+00  0.16400248633E+04  0.16400248633E+04  0.00000000000E+00 0. -1.
         21   -1    0    0  501  503 -0.00000000000E+00 -0.00000000000E+00 -0.40848390273E+02  0.40848390273E+02  0.00000000000E+00 0.  1.
          6    2    1    2  501    0 -0.80598507295E+02 -0.75639495885E+02  0.28981927521E+03  0.35555342693E+03  0.17379750978E+03 0.  0.
         24    2    3    3    0    0 -0.71269435010E+02 -0.22087149699E+02  0.27882723701E+03  0.29989554092E+03  0.81397375974E+02 0.  0.
         -6    2    1    2    0  502  0.80598507295E+02  0.75639495885E+02  0.13093571978E+04  0.13253198267E+04  0.17273945319E+03 0.  0.
        -24    2    5    5    0    0  0.49411168249E+02  0.59490848087E+02  0.12602724252E+04  0.12647819554E+04  0.73526761370E+02 0.  0.
          5    1    3    3  501    0 -0.93290722853E+01 -0.53552346187E+02  0.10992038196E+02  0.55657886014E+02  0.47000000000E+01 0. -1.
        -11    1    4    4    0    0 -0.53183693932E+02  0.19879183334E+02  0.96826691004E+02  0.11224569177E+03  0.00000000000E+00 0.  1.
         12    1    4    4    0    0 -0.18085741077E+02 -0.41966333032E+02  0.18200054601E+03  0.18764984915E+03  0.00000000000E+00 0. -1.
         -5    1    5    5    0  502  0.31187339046E+02  0.16148647798E+02  0.49084772667E+02  0.60537871207E+02  0.47000000000E+01 0.  1.
         11    1    6    6    0    0  0.21565974211E+01  0.28098912039E+01  0.65744027932E+03  0.65744982111E+03  0.00000000000E+00 0. -1.
        -12    1    6    6    0    0  0.47254570828E+02  0.56680956883E+02  0.60283214585E+03  0.60733213434E+03  0.00000000000E+00 0.  1.
</event>
<event>
12    1  0.9028446E-003  0.2152829E+03  0.7818608E-02  0.1138058E+00
         21   -1    0    0  503  502  0.00000000000E+00  0.00000000000E+00  0.83108750053E+02  0.83108750053E+02  0.00000000000E+00 0.  1.
         21   -1    0    0  501  503 -0.00000000000E+00 -0.00000000000E+00 -0.60211700396E+03  0.60211700396E+03  0.00000000000E+00 0. -1.
          6    2    1    2  501    0 -0.80471780325E+01  0.12542233340E+03 -0.16000088753E+03  0.26822939844E+03  0.17478903680E+03 0.  0.
         24    2    3    3    0    0  0.35653484833E+01  0.99886351528E+02 -0.24513778044E+02  0.12978885532E+03  0.79083669104E+02 0.  0.
         -6    2    1    2    0  502  0.80471780325E+01 -0.12542233340E+03 -0.35900736638E+03  0.41699635558E+03  0.17089222528E+03 0.  0.
        -24    2    5    5    0    0  0.18098013948E+02 -0.14094572865E+03 -0.20670383752E+03  0.26350221886E+03  0.80707535999E+02 0.  0.
          5    1    3    3  501    0 -0.11612526516E+02  0.25535981871E+02 -0.13548710949E+03  0.13844054312E+03  0.47000000000E+01 0. -1.
        -13    1    4    4    0    0  0.39496543293E+02  0.32985273242E+02 -0.11767020957E+02  0.52787005647E+02  0.00000000000E+00 0.  1.
         14    1    4    4    0    0 -0.35931194810E+02  0.66901078286E+02 -0.12746757087E+02  0.77001849669E+02  0.00000000000E+00 0. -1.
         -5    1    5    5    0  502 -0.10050835915E+02  0.15523395253E+02 -0.15230352886E+03  0.15349413672E+03  0.47000000000E+01 0.  1.
         13    1    6    6    0    0  0.32231387879E+02 -0.81797706555E+02 -0.65115197883E+02  0.10940619799E+03  0.00000000000E+00 0. -1.
        -14    1    6    6    0    0 -0.14133373931E+02 -0.59148022097E+02 -0.14158863964E+03  0.15409602088E+03  0.00000000000E+00 0.  1.
</event>
<event>
12    1  0.9028446E-003  0.1734739E+03  0.7818608E-02  0.1174375E+00
         21   -1    0    0  501  502  0.00000000000E+00  0.00000000000E+00  0.22121216929E+03  0.22121216929E+03  0.00000000000E+00 0. -1.
         21   -1    0    0  502  503 -0.00000000000E+00 -0.00000000000E+00 -0.38828567785E+03  0.38828567785E+03  0.00000000000E+00 0. -1.
          6    2    1    2  501    0 -0.87620826337E+01 -0.16893860957E+02  0.16227924594E+03  0.23725271412E+03  0.17202360321E+03 0.  0.
         24    2    3    3    0    0 -0.71917346721E+01  0.26660244867E+02  0.17279057036E+03  0.19217495832E+03  0.79449000606E+02 0.  0.
         -6    2    1    2    0  503  0.87620826337E+01  0.16893860957E+02 -0.32935275450E+03  0.37224513302E+03  0.17242687008E+03 0.  0.
        -24    2    5    5    0    0  0.68265615523E+02  0.14149482136E+02 -0.17453224235E+03  0.20629428781E+03  0.85061315862E+02 0.  0.
          5    1    3    3  501    0 -0.15703479616E+01 -0.43554105824E+02 -0.10511324415E+02  0.45077755798E+02  0.47000000000E+01 0. -1.
        -13    1    4    4    0    0 -0.98892490064E+01  0.77807515398E+01 -0.48707067333E+01  0.13493002798E+02  0.00000000000E+00 0.  1.
         14    1    4    4    0    0  0.26975143343E+01  0.18879493327E+02  0.17766127709E+03  0.17868195552E+03  0.00000000000E+00 0. -1.
         -5    1    5    5    0  503 -0.59503532890E+02  0.27443788205E+01 -0.15482051215E+03  0.16595084521E+03  0.47000000000E+01 0.  1.
         13    1    6    6    0    0  0.87331321021E+02  0.20181577412E+02 -0.14871641149E+03  0.17363935828E+03  0.00000000000E+00 0. -1.
        -14    1    6    6    0    0 -0.19065705497E+02 -0.60320952758E+01 -0.25815830852E+02  0.32654929522E+02  0.00000000000E+00 0.  1.
</event>
<event>
12    1  0.9028446E-003  0.2632696E+03  0.7818608E-02  0.1105283E+00
         21   -1    0    0  503  502  0.00000000000E+00  0.00000000000E+00  0.17398861042E+03  0.17398861042E+03  0.00000000000E+00 0. -1.
         21   -1    0    0  501  503 -0.00000000000E+00 -0.00000000000E+00 -0.39777809030E+03  0.39777809030E+03  0.00000000000E+00 0.  1.
          6    2    1    2  501    0 -0.19481501313E+03 -0.36301230773E+02 -0.10397337204E+03  0.28305715849E+03  0.17332115908E+03 0.  0.
         24    2    3    3    0    0 -0.41748575527E+02 -0.62674394164E+02 -0.38109149816E+02  0.11428197123E+03  0.77052179763E+02 0.  0.
         -6    2    1    2    0  502  0.19481501313E+03  0.36301230773E+02 -0.11981610784E+03  0.28870954223E+03  0.17241412755E+03 0.  0.
        -24    2    5    5    0    0  0.21168366419E+03  0.58855832554E+02 -0.10953595322E+03  0.25836101624E+03  0.80487930507E+02 0.  0.
          5    1    3    3  501    0 -0.15306643760E+03  0.26373163391E+02 -0.65864222226E+02  0.16877518726E+03  0.47000000000E+01 0. -1.
        -11    1    4    4    0    0  0.52233180378E+01 -0.33080264990E+02  0.15681728701E+02  0.36979772825E+02  0.00000000000E+00 0.  1.
         12    1    4    4    0    0 -0.46971893564E+02 -0.29594129174E+02 -0.53790878517E+02  0.77302198405E+02  0.00000000000E+00 0. -1.
         -5    1    5    5    0  502 -0.16868651064E+02 -0.22554601781E+02 -0.10280154622E+02  0.30348525982E+02  0.47000000000E+01 0.  1.
         11    1    6    6    0    0 -0.49924205822E+01  0.73841498622E+01  0.22230562800E+01  0.91865070447E+01  0.00000000000E+00 0. -1.
        -12    1    6    6    0    0  0.21667608477E+03  0.51471682691E+02 -0.11175900950E+03  0.24917450920E+03  0.00000000000E+00 0.  1.
</event>
<event>
12    1  0.9028446E-003  0.3905101E+03  0.7818608E-02  0.1047126E+00
         21   -1    0    0  503  502  0.00000000000E+00  0.00000000000E+00  0.21131463734E+03  0.21131463734E+03  0.00000000000E+00 0. -1.
         21   -1    0    0  501  503 -0.00000000000E+00 -0.00000000000E+00 -0.75080537432E+03  0.75080537432E+03  0.00000000000E+00 0.  1.
          6    2    1    2  501    0  0.30865385799E+03 -0.16631435404E+03 -0.17467892060E+03  0.42779768264E+03  0.17196064537E+03 0.  0.
         24    2    3    3    0    0  0.11130454817E+03 -0.74897766953E+02 -0.13345132988E+03  0.20638054980E+03  0.82372907853E+02 0.  0.
         -6    2    1    2    0  502 -0.30865385799E+03  0.16631435404E+03 -0.36481181638E+03  0.53432232902E+03  0.17171203075E+03 0.  0.
        -24    2    5    5    0    0 -0.17289507149E+03  0.95652635488E+02 -0.30053474499E+03  0.36825861086E+03  0.79064145522E+02 0.  0.
          5    1    3    3  501    0  0.19734930982E+03 -0.91416587089E+02 -0.41227590716E+02  0.22141713284E+03  0.47000000000E+01 0. -1.
        -13    1    4    4    0    0  0.10289143806E+03 -0.75686370508E+02 -0.14424680389E+03  0.19267126184E+03  0.00000000000E+00 0.  1.
         14    1    4    4    0    0  0.84131101106E+01  0.78860355503E+00  0.10795474004E+02  0.13709287957E+02  0.00000000000E+00 0. -1.
         -5    1    5    5    0  502 -0.13575878650E+03  0.70661718553E+02 -0.64277071387E+02  0.16606371815E+03  0.47000000000E+01 0.  1.
         13    1    6    6    0    0  0.32477720626E+01  0.12534386779E+02 -0.41342851524E+01  0.13592320957E+02  0.00000000000E+00 0. -1.
        -14    1    6    6    0    0 -0.17614284355E+03  0.83118248710E+02 -0.29640045984E+03  0.35466628991E+03  0.00000000000E+00 0.  1.
</event>
<event>
12    1  0.9028446E-003  0.2037492E+03  0.7818608E-02  0.1146730E+00
         21   -1    0    0  501  502  0.00000000000E+00  0.00000000000E+00  0.11305308442E+04  0.11305308442E+04  0.00000000000E+00 0.  1.
         21   -1    0    0  502  503 -0.00000000000E+00 -0.00000000000E+00 -0.38443168633E+02  0.38443168633E+02  0.00000000000E+00 0. -1.
          6    2    1    2  501    0  0.84151166782E+02  0.68730283531E+02  0.41944484848E+03  0.46631290735E+03  0.17236146872E+03 0.  0.
         24    2    3    3    0    0  0.12140111860E+02  0.90262148063E+02  0.20237206341E+03  0.23654803354E+03  0.81889452507E+02 0.  0.
         -6    2    1    2    0  503 -0.84151166782E+02 -0.68730283531E+02  0.67264282707E+03  0.70266110546E+03  0.17169445413E+03 0.  0.
        -24    2    5    5    0    0 -0.10684466575E+03 -0.31596729901E+01  0.45472559559E+03  0.47391559264E+03  0.79967840595E+02 0.  0.
          5    1    3    3  501    0  0.72011054922E+02 -0.21531864532E+02  0.21707278506E+03  0.22976487381E+03  0.47000000000E+01 0. -1.
        -13    1    4    4    0    0 -0.27414247740E+01  0.40480558906E+02  0.17123078905E+03  0.17597208352E+03  0.00000000000E+00 0.  1.
         14    1    4    4    0    0  0.14881536634E+02  0.49781589157E+02  0.31141274358E+02  0.60575950015E+02  0.00000000000E+00 0. -1.
         -5    1    5    5    0  503  0.22693498964E+02 -0.65570610541E+02  0.21791723148E+03  0.22874551282E+03  0.47000000000E+01 0.  1.
         13    1    6    6    0    0 -0.60518638628E+02 -0.41434015657E+02  0.25690202433E+03  0.26716649000E+03  0.00000000000E+00 0. -1.
        -14    1    6    6    0    0 -0.46326027118E+02  0.38274342667E+02  0.19782357126E+03  0.20674910264E+03  0.00000000000E+00 0.  1.
</event>
<event>
12    1  0.9028446E-003  0.1861181E+03  0.7818608E-02  0.1162360E+00
         21   -1    0    0  501  502  0.00000000000E+00  0.00000000000E+00  0.16628565103E+03  0.16628565103E+03  0.00000000000E+00 0. -1.
         21   -1    0    0  502  503 -0.00000000000E+00 -0.00000000000E+00 -0.22787209780E+03  0.22787209780E+03  0.00000000000E+00 0.  1.
          6    2    1    2  501    0  0.69537691080E+02  0.81715718112E+01  0.29258796650E+02  0.18840390644E+03  0.17244619367E+03 0.  0.
         24    2    3    3    0    0  0.10236530780E+03  0.38432781336E+02 -0.39575267561E+00  0.13459985903E+03  0.78493506166E+02 0.  0.
         -6    2    1    2    0  503 -0.69537691080E+02 -0.81715718112E+01 -0.90845243415E+02  0.20575384239E+03  0.17082014032E+03 0.  0.
        -24    2    5    5    0    0 -0.80796267572E+02 -0.55472828585E+02 -0.29973425796E+02  0.12770493069E+03  0.76189707337E+02 0.  0.
          5    1    3    3  501    0 -0.32827616717E+02 -0.30261209524E+02  0.29654549326E+02  0.53804047403E+02  0.47000000000E+01 0. -1.
        -13    1    4    4    0    0  0.18918349974E+01  0.63121459299E+01 -0.25360766849E+02  0.26202876198E+02  0.00000000000E+00 0.  1.
         14    1    4    4    0    0  0.10047347280E+03  0.32120635406E+02  0.24965014173E+02  0.10839698284E+03  0.00000000000E+00 0. -1.
         -5    1    5    5    0  503  0.11258576492E+02  0.47301256774E+02 -0.60871817619E+02  0.78048911698E+02  0.47000000000E+01 0.  1.
         11    1    6    6    0    0 -0.85910040923E+02 -0.20104232594E+02 -0.24344393220E+02  0.91527945355E+02  0.00000000000E+00 0. -1.
        -12    1    6    6    0    0  0.51137733518E+01 -0.35368595991E+02 -0.56290325767E+01  0.36176985336E+02  0.00000000000E+00 0.  1.
</event>
<event>
12    1  0.9028446E-003  0.1718994E+03  0.7818608E-02  0.1175902E+00
         21   -1    0    0  501  502  0.00000000000E+00  0.00000000000E+00  0.24434239616E+03  0.24434239616E+03  0.00000000000E+00 0.  1.
         21   -1    0    0  502  503 -0.00000000000E+00 -0.00000000000E+00 -0.14170018196E+03  0.14170018196E+03  0.00000000000E+00 0.  1.
          6    2    1    2  501    0 -0.86380914356E+01 -0.70312251365E+00  0.12530335922E+03  0.21265593756E+03  0.17159983958E+03 0.  0.
         24    2    3    3    0    0 -0.65449441368E+02  0.23275924064E+02  0.10625228629E+03  0.14794459748E+03  0.75978007107E+02 0.  0.
         -6    2    1    2    0  503  0.86380914356E+01  0.70312251365E+00 -0.22661145023E+02  0.17338664055E+03  0.17168077535E+03 0.  0.
        -24    2    5    5    0    0  0.64171968525E+02 -0.25573754165E+02  0.60901260156E+01  0.10539243978E+03  0.79362574817E+02 0.  0.
          5    1    3    3  501    0  0.56811349932E+02 -0.23979046578E+02  0.19051072935E+02  0.64711340087E+02  0.47000000000E+01 0. -1.
        -13    1    4    4    0    0 -0.63940993566E+02 -0.13285225846E+02  0.57682982897E+02  0.87133658249E+02  0.00000000000E+00 0.  1.
         14    1    4    4    0    0 -0.15084478018E+01  0.36561149910E+02  0.48569303393E+02  0.60810939226E+02  0.00000000000E+00 0. -1.
         -5    1    5    5    0  503 -0.55533877089E+02  0.26276876678E+02 -0.28751271038E+02  0.67994200773E+02  0.47000000000E+01 0.  1.
         11    1    6    6    0    0 -0.37567332153E+00 -0.16563754897E+01  0.31849123473E+02  0.31894378442E+02  0.00000000000E+00 0. -1.
        -12    1    6    6    0    0  0.64547641846E+02 -0.23917378675E+02 -0.25758997457E+02  0.73498061339E+02  0.00000000000E+00 0.  1.
</event>
<event>
12    1  0.9028446E-003  0.2001804E+03  0.7818608E-02  0.1150153E+00
         21   -1    0    0  501  502  0.00000000000E+00  0.00000000000E+00  0.11423980512E+03  0.11423980512E+03  0.00000000000E+00 0. -1.
         21   -1    0    0  502  503 -0.00000000000E+00 -0.00000000000E+00 -0.35204965846E+03  0.35204965846E+03  0.00000000000E+00 0. -1.
          6    2    1    2  501    0 -0.93056251839E+02 -0.28344012477E+02 -0.89409119148E+02  0.21924004380E+03  0.17495530049E+03 0.  0.
         24    2    3    3    0    0 -0.57141363939E+02  0.31633456103E+02 -0.97182066335E+02  0.14874405372E+03  0.91731284090E+02 0.  0.
         -6    2    1    2    0  503  0.93056251839E+02  0.28344012477E+02 -0.14840073419E+03  0.24704941978E+03  0.17189470281E+03 0.  0.
        -24    2    5    5    0    0 -0.46285676809E+01  0.46796288134E+02 -0.10411930270E+03  0.13811941649E+03  0.77619764203E+02 0.  0.
          5    1    3    3  501    0 -0.35914887900E+02 -0.59977468579E+02  0.77729471873E+01  0.70495990085E+02  0.47000000000E+01 0. -1.
        -13    1    4    4    0    0  0.18982481708E+01  0.44664601549E+02 -0.15915095997E+02  0.47453348230E+02  0.00000000000E+00 0.  1.
         14    1    4    4    0    0 -0.59039612110E+02 -0.13031145447E+02 -0.81266970339E+02  0.10129070549E+03  0.00000000000E+00 0. -1.
         -5    1    5    5    0  503  0.97684819520E+02 -0.18452275657E+02 -0.44281431491E+02  0.10893000329E+03  0.47000000000E+01 0.  1.
         13    1    6    6    0    0  0.32671746340E+02  0.10177227346E+02 -0.62688045849E+02  0.71419955599E+02  0.00000000000E+00 0. -1.
        -14    1    6    6    0    0 -0.37300314021E+02  0.36619060788E+02 -0.41431256855E+02  0.66699460895E+02  0.00000000000E+00 0.  1.
</event>
<event>
12    1  0.9028446E-003  0.1737681E+03  0.7818608E-02  0.1174166E+00
         21   -1    0    0  503  502  0.00000000000E+00  0.00000000000E+00  0.40374756836E+03  0.40374756836E+03  0.00000000000E+00 0.  1.
         21   -1    0    0  501  503 -0.00000000000E+00 -0.00000000000E+00 -0.75272172774E+02  0.75272172774E+02  0.00000000000E+00 0.  1.
          6    2    1    2  501    0  0.17519559867E+02 -0.11352442011E+02  0.13976659831E+03  0.22300238173E+03  0.17250955722E+03 0.  0.
         24    2    3    3    0    0  0.52519021386E+02 -0.22933872260E+01  0.11555586878E+02  0.89708787603E+02  0.71767874100E+02 0.  0.
         -6    2    1    2    0  502 -0.17519559867E+02  0.11352442011E+02  0.18870879727E+03  0.25601735941E+03  0.17175000796E+03 0.  0.
        -24    2    5    5    0    0  0.50013588380E+02 -0.20356213232E+02  0.84610030908E+02  0.12785805195E+03  0.79202838831E+02 0.  0.
          5    1    3    3  501    0 -0.34999461519E+02 -0.90590547854E+01  0.12821101144E+03  0.13329359412E+03  0.47000000000E+01 0. -1.
        -13    1    4    4    0    0  0.29117157113E+02 -0.29238679892E+02  0.28552440670E+02  0.50179189994E+02  0.00000000000E+00 0.  1.
         14    1    4    4    0    0  0.23401864273E+02  0.26945292666E+02 -0.16996853793E+02  0.39529597610E+02  0.00000000000E+00 0. -1.
         -5    1    5    5    0  502 -0.67533148247E+02  0.31708655243E+02  0.10409876636E+03  0.12815930746E+03  0.47000000000E+01 0.  1.
         11    1    6    6    0    0 -0.18041738669E+02 -0.61149486313E+01  0.42491964557E+02  0.46566769083E+02  0.00000000000E+00 0. -1.
        -12    1    6    6    0    0  0.68055327050E+02 -0.14241264601E+02  0.42118066352E+02  0.81291282869E+02  0.00000000000E+00 0.  1.
</event>
<event>
12    1  0.9028446E-003  0.2005716E+03  0.7818608E-02  0.1149433E+00
         21   -1    0    0  503  502  0.00000000000E+00  0.00000000000E+00  0.81616537634E+02  0.81616537634E+02  0.00000000000E+00 0. -1.
         21   -1    0    0  501  503 -0.00000000000E+00 -0.00000000000E+00 -0.58619945489E+03  0.58619945489E+03  0.00000000000E+00 0. -1.
          6    2    1    2  501    0 -0.92395912825E+02  0.41743683844E+02 -0.38739621885E+03  0.43623940347E+03  0.17305908504E+03 0.  0.
         24    2    3    3    0    0 -0.90835600703E+01 -0.66879444324E+01 -0.83997036166E+02  0.11786898275E+03  0.81916758634E+02 0.  0.
         -6    2    1    2    0  502  0.92395912825E+02 -0.41743683844E+02 -0.11718669840E+03  0.23157658905E+03  0.17209141311E+03 0.  0.
        -24    2    5    5    0    0  0.94938491429E+02  0.30135252703E+02 -0.73142408299E+02  0.14710744844E+03  0.79808137952E+02 0.  0.
          5    1    3    3  501    0 -0.83312352755E+02  0.48431628277E+02 -0.30339918268E+03  0.31837042072E+03  0.47000000000E+01 0. -1.
        -11    1    4    4    0    0 -0.97751989023E+01 -0.38642625004E+02 -0.74554827361E+02  0.84541287331E+02  0.00000000000E+00 0.  1.
         12    1    4    4    0    0  0.69163883198E+00  0.31954680571E+02 -0.94422088058E+01  0.33327695417E+02  0.00000000000E+00 0. -1.
         -5    1    5    5    0  502 -0.25425786039E+01 -0.71878936547E+02 -0.44044290105E+02  0.84469140614E+02  0.47000000000E+01 0.  1.
         11    1    6    6    0    0  0.72756612798E+02  0.45566840080E+02 -0.20999725119E+02  0.88379013775E+02  0.00000000000E+00 0. -1.
        -12    1    6    6    0    0  0.22181878631E+02 -0.15431587377E+02 -0.52142683180E+02  0.58728434661E+02  0.00000000000E+00 0.  1.
</event>
<event>
12    1  0.9028446E-003  0.2016126E+03  0.7818608E-02  0.1149313E+00
         21   -1    0    0  501  502  0.00000000000E+00  0.00000000000E+00  0.43797125008E+02  0.43797125008E+02  0.00000000000E+00 0.  1.
         21   -1    0    0  502  503 -0.00000000000E+00 -0.00000000000E+00 -0.11848410142E+04  0.11848410142E+04  0.00000000000E+00 0.  1.
          6    2    1    2  501    0 -0.75817889017E+01  0.96106973668E+02 -0.26877390941E+03  0.33337137614E+03  0.17205529967E+03 0.  0.
         24    2    3    3    0    0  0.26329725098E+02 -0.85907902799E+01 -0.90266354442E+02  0.12361282510E+03  0.79781324148E+02 0.  0.
         -6    2    1    2    0  503  0.75817889017E+01 -0.96106973668E+02 -0.87226997975E+03  0.89526676303E+03  0.17706954990E+03 0.  0.
        -24    2    5    5    0    0 -0.25959504921E+02 -0.12842877662E+03 -0.70188030634E+03  0.71856235408E+03  0.80796322386E+02 0.  0.
          5    1    3    3  501    0 -0.33911514000E+02  0.10469776395E+03 -0.17850755497E+03  0.20975855105E+03  0.47000000000E+01 0. -1.
        -13    1    4    4    0    0  0.35422111316E+02  0.17189740867E+02 -0.12700158080E+02  0.41370365921E+02  0.00000000000E+00 0.  1.
         14    1    4    4    0    0 -0.90923862180E+01 -0.25780531147E+02 -0.77566196361E+02  0.82242459176E+02  0.00000000000E+00 0. -1.
         -5    1    5    5    0  503  0.33541293823E+02  0.32321802955E+02 -0.17038967341E+03  0.17670440895E+03  0.47000000000E+01 0.  1.
         13    1    6    6    0    0  0.31976454783E+01  0.10924788229E+02 -0.43530475432E+02  0.44994202135E+02  0.00000000000E+00 0. -1.
        -14    1    6    6    0    0 -0.29157150399E+02 -0.13935356485E+03 -0.65834983091E+03  0.67356815194E+03  0.00000000000E+00 0.  1.
</event>
<event>
12    1  0.9028446E-003  0.1931816E+03  0.7818608E-02  0.1155910E+00
         21   -1    0    0  501  502  0.00000000000E+00  0.00000000000E+00  0.16692436026E+03  0.16692436026E+03  0.00000000000E+00 0. -1.
         21   -1    0    0  502  503 -0.00000000000E+00 -0.00000000000E+00 -0.25179602577E+03  0.25179602577E+03  0.00000000000E+00 0. -1.
          6    2    1    2  501    0 -0.84215334930E+02  0.19267041169E+02  0.29626452855E+02  0.19415650699E+03  0.17133470455E+03 0.  0.
         24    2    3    3    0    0 -0.49288766127E+02  0.48809570065E+02 -0.43379170440E+02  0.10787477512E+03  0.70309729643E+02 0.  0.
         -6    2    1    2    0  503  0.84215334930E+02 -0.19267041169E+02 -0.11449811837E+03  0.22456387904E+03  0.17278794850E+03 0.  0.
        -24    2    5    5    0    0  0.23762891806E+02 -0.17549327632E+02  0.89859025418E+01  0.86985385664E+02  0.81320704296E+02 0.  0.
          5    1    3    3  501    0 -0.34926568802E+02 -0.29542528896E+02  0.73005623295E+02  0.86281731871E+02  0.47000000000E+01 0. -1.
        -11    1    4    4    0    0  0.71734751582E+00  0.84976081723E+01 -0.42799494832E+02  0.43640814497E+02  0.00000000000E+00 0.  1.
         12    1    4    4    0    0 -0.50006113643E+02  0.40311961893E+02 -0.57967560839E+00  0.64233960622E+02  0.00000000000E+00 0. -1.
         -5    1    5    5    0  503  0.60452443123E+02 -0.17177135373E+01 -0.12348402091E+03  0.13757849338E+03  0.47000000000E+01 0.  1.
         13    1    6    6    0    0 -0.18370719295E+02 -0.31157923124E+02 -0.11835019663E+02  0.38057419661E+02  0.00000000000E+00 0. -1.
        -14    1    6    6    0    0  0.42133611101E+02  0.13608595492E+02  0.20820922205E+02  0.48927966003E+02  0.00000000000E+00 0.  1.
</event>
<event>
12    1  0.9028446E-003  0.1779853E+03  0.7818608E-02  0.1170024E+00
         21   -1    0    0  503  502  0.00000000000E+00  0.00000000000E+00  0.13351438218E+03  0.13351438218E+03  0.00000000000E+00 0.  1.
         21   -1    0    0  501  503 -0.00000000000E+00 -0.00000000000E+00 -0.29823919863E+03  0.29823919863E+03  0.00000000000E+00 0.  1.
          6    2    1    2  501    0 -0.11177745889E+02 -0.41553695317E+02 -0.18126534044E+03  0.25403916459E+03  0.17270530364E+03 0.  0.
         24    2    3    3    0    0  0.43064720814E+02 -0.45508686198E+02 -0.16947644013E+03  0.19819155661E+03  0.81437206816E+02 0.  0.
         -6    2    1    2    0  502  0.11177745889E+02  0.41553695317E+02  0.16540523987E+02  0.17771441621E+03  0.17163092145E+03 0.  0.
        -24    2    5    5    0    0  0.27265248900E+02 -0.39789400466E+02  0.10013437966E+02  0.94406554416E+02  0.80534082163E+02 0.  0.
          5    1    3    3  501    0 -0.54242466703E+02  0.39549908809E+01 -0.11788900303E+02  0.55847607981E+02  0.47000000000E+01 0. -1.
        -11    1    4    4    0    0 -0.23247654508E+02 -0.27235507924E+01 -0.31557581924E+02  0.39290611423E+02  0.00000000000E+00 0.  1.
         12    1    4    4    0    0  0.66312375322E+02 -0.42785135405E+02 -0.13791885821E+03  0.15890094519E+03  0.00000000000E+00 0. -1.
         -5    1    5    5    0  502 -0.16087503011E+02  0.81343095782E+02  0.65270860206E+01  0.83307861793E+02  0.47000000000E+01 0.  1.
         11    1    6    6    0    0  0.49463067320E+01  0.21057762857E+02 -0.13458308548E+02  0.25475898331E+02  0.00000000000E+00 0. -1.
        -12    1    6    6    0    0  0.22318942168E+02 -0.60847163323E+02  0.23471746514E+02  0.68930656085E+02  0.00000000000E+00 0.  1.
</event>
<event>
12    1  0.9028446E-003  0.2304294E+03  0.7818608E-02  0.1126531E+00
         21   -1    0    0  503  502  0.00000000000E+00  0.00000000000E+00  0.19171224431E+03  0.19171224431E+03  0.00000000000E+00 0. -1.
         21   -1    0    0  501  503 -0.00000000000E+00 -0.00000000000E+00 -0.28629256098E+03  0.28629256098E+03  0.00000000000E+00 0. -1.
          6    2    1    2  501    0 -0.10877471289E+03 -0.10518169177E+03 -0.93475958029E+02  0.24866733211E+03  0.17378883992E+03 0.  0.
         24    2    3    3    0    0 -0.55300390045E+02 -0.11390763573E+03 -0.10654576922E+03  0.19273384244E+03  0.98799040824E+02 0.  0.
         -6    2    1    2    0  502  0.10877471289E+03  0.10518169177E+03 -0.11043586398E+01  0.22933747319E+03  0.17233493712E+03 0.  0.
        -24    2    5    5    0    0  0.92678232624E+02  0.11806758197E+03  0.44115068413E+02  0.17941724256E+03  0.87836205248E+02 0.  0.
          5    1    3    3  501    0 -0.53474322847E+02  0.87259439551E+01  0.13069811190E+02  0.55933489667E+02  0.47000000000E+01 0. -1.
        -13    1    4    4    0    0 -0.82307036569E+01  0.17229412731E+02 -0.34351077222E+01  0.19400956441E+02  0.00000000000E+00 0.  1.
         14    1    4    4    0    0 -0.47069686388E+02 -0.13113704846E+03 -0.10311066150E+03  0.17333288600E+03  0.00000000000E+00 0. -1.
         -5    1    5    5    0  502  0.16096480267E+02 -0.12885890196E+02 -0.45219427052E+02  0.49920230629E+02  0.47000000000E+01 0.  1.
         11    1    6    6    0    0  0.10050271697E+03  0.64060784395E+02  0.33767249151E+02  0.12387415926E+03  0.00000000000E+00 0. -1.
        -12    1    6    6    0    0 -0.78244843478E+01  0.54006797573E+02  0.10347819262E+02  0.55543083303E+02  0.00000000000E+00 0.  1.
</event>
<event>
12    1  0.9028446E-003  0.1903294E+03  0.7818608E-02  0.1158350E+00
         21   -1    0    0  503  502  0.00000000000E+00  0.00000000000E+00  0.14330422387E+03  0.14330422387E+03  0.00000000000E+00 0. -1.
         21   -1    0    0  501  503 -0.00000000000E+00 -0.00000000000E+00 -0.25416332196E+03  0.25416332196E+03  0.00000000000E+00 0. -1.
          6    2    1    2  501    0 -0.81509446806E+02  0.28789361058E+01 -0.74888976131E+02  0.20376895679E+03  0.17105949495E+03 0.  0.
         24    2    3    3    0    0 -0.66044149522E+01 -0.37461932202E+02 -0.81038708958E+02  0.11834028088E+03  0.77395962874E+02 0.  0.
         -6    2    1    2    0  502  0.81509446806E+02 -0.28789361058E+01 -0.35970121961E+02  0.19369858904E+03  0.17196864694E+03 0.  0.
        -24    2    5    5    0    0  0.55039181584E+02 -0.19853774389E+02 -0.88061825128E+02  0.13267027090E+03  0.80143819912E+02 0.  0.
          5    1    3    3  501    0 -0.74905031854E+02  0.40340868307E+02  0.61497328267E+01  0.85428675904E+02  0.47000000000E+01 0. -1.
        -11    1    4    4    0    0 -0.15202339546E+02 -0.20697136578E+02 -0.92694054024E+02  0.96185603089E+02  0.00000000000E+00 0.  1.
         12    1    4    4    0    0  0.85979245935E+01 -0.16764795624E+02  0.11655345066E+02  0.22154677796E+02  0.00000000000E+00 0. -1.
         -5    1    5    5    0  502  0.26470265222E+02  0.16974838283E+02  0.52091703167E+02  0.61028318136E+02  0.47000000000E+01 0.  1.
         13    1    6    6    0    0  0.54670311803E+02  0.18966508901E+02 -0.37627646614E+02  0.69024714721E+02  0.00000000000E+00 0. -1.
        -14    1    6    6    0    0  0.36886978097E+00 -0.38820283290E+02 -0.50434178514E+02  0.63645556184E+02  0.00000000000E+00 0.  1.
</event>
<event>
12    1  0.9028446E-003  0.1778807E+03  0.7818608E-02  0.1170067E+00
         21   -1    0    0  501  502  0.00000000000E+00  0.00000000000E+00  0.36696614258E+03  0.36696614258E+03  0.00000000000E+00 0. -1.
         21   -1    0    0  502  503 -0.00000000000E+00 -0.00000000000E+00 -0.86456138519E+02  0.86456138519E+02  0.00000000000E+00 0. -1.
          6    2    1    2  501    0 -0.46078079410E+02 -0.89770291316E+00  0.15975157964E+03  0.23908599566E+03  0.17180672527E+03 0.  0.
         24    2    3    3    0    0  0.27824425222E+02 -0.34141411942E+02  0.65689821349E+02  0.11484257026E+03  0.83269614309E+02 0.  0.
         -6    2    1    2    0  503  0.46078079410E+02  0.89770291316E+00  0.12075842442E+03  0.21433628544E+03  0.17097792523E+03 0.  0.
        -24    2    5    5    0    0  0.63592317828E+02 -0.45996438856E+02  0.39302782640E+02  0.11861313956E+03  0.79779150654E+02 0.  0.
          5    1    3    3  501    0 -0.73902504633E+02  0.33243709029E+02  0.94061758295E+02  0.12424342540E+03  0.47000000000E+01 0. -1.
        -13    1    4    4    0    0 -0.18076202019E+02 -0.18662971552E+02 -0.75288133997E+01  0.27050667603E+02  0.00000000000E+00 0.  1.
         14    1    4    4    0    0  0.45900627241E+02 -0.15478440390E+02  0.73218634749E+02  0.87791902659E+02  0.00000000000E+00 0. -1.
         -5    1    5    5    0  503 -0.17514238417E+02  0.46894141769E+02  0.81455641777E+02  0.95723145879E+02  0.47000000000E+01 0.  1.
         11    1    6    6    0    0 -0.37158948121E+01 -0.38243222030E+02  0.32852822415E+02  0.50553534457E+02  0.00000000000E+00 0. -1.
        -12    1    6    6    0    0  0.67308212640E+02 -0.77532168259E+01  0.64499602250E+01  0.68059605103E+02  0.00000000000E+00 0.  1.
</event>
<event>
12    1  0.9028446E-003  0.1934353E+03  0.7818608E-02  0.1155506E+00
         21   -1    0    0  503  502  0.00000000000E+00  0.00000000000E+00  0.24464819234E+03  0.24464819234E+03  0.00000000000E+00 0.  1.
         21   -1    0    0  501  503 -0.00000000000E+00 -0.00000000000E+00 -0.20859411969E+03  0.20859411969E+03  0.00000000000E+00 0.  1.
          6    2    1    2  501    0 -0.85146265494E+02  0.28944697023E+02 -0.99411644758E+02  0.21748540227E+03  0.17125870218E+03 0.  0.
         24    2    3    3    0    0 -0.93143470088E+02  0.96013122599E+01 -0.13227573247E+03  0.17823925499E+03  0.74192124925E+02 0.  0.
         -6    2    1    2    0  502  0.85146265494E+02 -0.28944697023E+02  0.13546571741E+03  0.23575690976E+03  0.17071226638E+03 0.  0.
        -24    2    5    5    0    0  0.95810462482E+02 -0.70534470106E+02  0.80001907576E+02  0.16545926738E+03  0.82593630219E+02 0.  0.
          5    1    3    3  501    0  0.79972045936E+01  0.19343384763E+02  0.32864087710E+02  0.39246147281E+02  0.47000000000E+01 0. -1.
        -13    1    4    4    0    0 -0.76358925787E+02  0.13069412122E+01 -0.13879166919E+03  0.15841565920E+03  0.00000000000E+00 0.  1.
         14    1    4    4    0    0 -0.16784544301E+02  0.82943710478E+01  0.65159367247E+01  0.19823595785E+02  0.00000000000E+00 0. -1.
         -5    1    5    5    0  502 -0.10664196987E+02  0.41589773082E+02  0.55463809837E+02  0.70297642379E+02  0.47000000000E+01 0.  1.
         13    1    6    6    0    0  0.33349288771E+02 -0.58672551192E+02  0.57875408605E+01  0.67735802602E+02  0.00000000000E+00 0. -1.
        -14    1    6    6    0    0  0.62461173710E+02 -0.11861918913E+02  0.74214366716E+02  0.97723464780E+02  0.00000000000E+00 0.  1.
</event>
<event>
12    1  0.9028446E-003  0.1900432E+03  0.7818608E-02  0.1159031E+00
         21   -1    0    0  501  502  0.00000000000E+00  0.00000000000E+00  0.19843609178E+02  0.19843609178E+02  0.00000000000E+00 0.  1.
         21   -1    0    0  502  503 -0.00000000000E+00 -0.00000000000E+00 -0.18082564977E+04  0.18082564977E+04  0.00000000000E+00 0.  1.
          6    2    1    2  501    0 -0.54495051059E+02 -0.53710763826E+02 -0.96763204231E+03  0.98560522730E+03  0.17103022550E+03 0.  0.
         24    2    3    3    0    0 -0.16861205786E+02 -0.40755265139E+02 -0.23076036650E+03  0.24764445066E+03  0.78307951675E+02 0.  0.
         -6    2    1    2    0  503  0.54495051059E+02  0.53710763826E+02 -0.82078084622E+03  0.84249487959E+03  0.17395938569E+03 0.  0.
        -24    2    5    5    0    0 -0.20658720392E+02 -0.49166951144E+01 -0.52910945770E+03  0.53560799947E+03  0.80424836045E+02 0.  0.
          5    1    3    3  501    0 -0.37633845273E+02 -0.12955498687E+02 -0.73687167581E+03  0.73796077665E+03  0.47000000000E+01 0. -1.
        -11    1    4    4    0    0 -0.10470664988E+02  0.21381121320E+02 -0.36408615049E+02  0.43501430137E+02  0.00000000000E+00 0.  1.
         12    1    4    4    0    0 -0.63905407985E+01 -0.62136386459E+02 -0.19435175145E+03  0.20414302052E+03  0.00000000000E+00 0. -1.
         -5    1    5    5    0  503  0.75153771450E+02  0.58627458941E+02 -0.29167138853E+03  0.30688688012E+03  0.47000000000E+01 0.  1.
         13    1    6    6    0    0  0.30953905412E+02  0.23268746288E+01 -0.19164611414E+03  0.19414373972E+03  0.00000000000E+00 0. -1.
        -14    1    6    6    0    0 -0.51612625804E+02 -0.72435697432E+01 -0.33746334355E+03  0.34146425975E+03  0.00000000000E+00 0.  1.
</event>
<event>
12    1  0.9028446E-003  0.1960076E+03  0.7818608E-02  0.1153160E+00
         21   -1    0    0  503  502  0.00000000000E+00  0.00000000000E+00  0.15226439999E+03  0.15226439999E+03  0.00000000000E+00 0.  1.
         21   -1    0    0  501  503 -0.00000000000E+00 -0.00000000000E+00 -0.25839324055E+03  0.25839324055E+03  0.00000000000E+00 0. -1.
          6    2    1    2  501    0 -0.88794692877E+02  0.33377437180E+02 -0.21460429958E+02  0.19717894044E+03  0.17152385754E+03 0.  0.
         24    2    3    3    0    0 -0.60927991730E+02 -0.31021622810E+02  0.29472025923E+02  0.11034578420E+03  0.81443419143E+02 0.  0.
         -6    2    1    2    0  502  0.88794692877E+02 -0.33377437180E+02 -0.84668410601E+02  0.21347870010E+03  0.17148138338E+03 0.  0.
        -24    2    5    5    0    0  0.78794058973E+02 -0.17573277365E+01 -0.11999243155E+03  0.16479892549E+03  0.80925337710E+02 0.  0.
          5    1    3    3  501    0 -0.27866701147E+02  0.64399059989E+02 -0.50932455881E+02  0.86833156239E+02  0.47000000000E+01 0. -1.
        -13    1    4    4    0    0 -0.30943759368E+02  0.26567837166E+02  0.17227613545E+02  0.44273659030E+02  0.00000000000E+00 0.  1.
         14    1    4    4    0    0 -0.29984232362E+02 -0.57589459975E+02  0.12244412378E+02  0.66072125175E+02  0.00000000000E+00 0. -1.
         -5    1    5    5    0  502  0.10000633905E+02 -0.31620109443E+02  0.35324020948E+02  0.48679774606E+02  0.47000000000E+01 0.  1.
         11    1    6    6    0    0  0.40011001593E+02 -0.41202431471E+02 -0.66162468570E+02  0.87612743679E+02  0.00000000000E+00 0. -1.
        -12    1    6    6    0    0  0.38783057380E+02  0.39445103734E+02 -0.53829962979E+02  0.77186181811E+02  0.00000000000E+00 0.  1.
</event>
<event>
12    1  0.9028446E-003  0.2017995E+03  0.7818608E-02  0.1148678E+00
         21   -1    0    0  503  502  0.00000000000E+00  0.00000000000E+00  0.26828459962E+03  0.26828459962E+03  0.00000000000E+00 0.  1.
         21   -1    0    0  501  503 -0.00000000000E+00 -0.00000000000E+00 -0.16249172500E+03  0.16249172500E+03  0.00000000000E+00 0.  1.
          6    2    1    2  501    0 -0.95024896717E+02 -0.47476390531E+02 -0.61131727138E+01  0.20189210532E+03  0.17157888173E+03 0.  0.
         24    2    3    3    0    0 -0.43231363185E+02 -0.70555132802E+02  0.46593597902E+02  0.12433379094E+03  0.80255533617E+02 0.  0.
         -6    2    1    2    0  502  0.95024896717E+02  0.47476390531E+02  0.11190604733E+03  0.22888421931E+03  0.16906000049E+03 0.  0.
        -24    2    5    5    0    0  0.65606642444E+02 -0.52567954443E+01  0.30384357796E+01  0.10430304323E+03  0.80858068886E+02 0.  0.
          5    1    3    3  501    0 -0.51793533532E+02  0.23078742271E+02 -0.52706770616E+02  0.77558314379E+02  0.47000000000E+01 0. -1.
        -11    1    4    4    0    0  0.10660593091E+02  0.12397782600E+02  0.67372894145E+01  0.17684578793E+02  0.00000000000E+00 0.  1.
         12    1    4    4    0    0 -0.53891956276E+02 -0.82952915402E+02  0.39856308488E+02  0.10664921215E+03  0.00000000000E+00 0. -1.
         -5    1    5    5    0  502  0.29418254272E+02  0.52733185975E+02  0.10886761156E+03  0.12458117608E+03  0.47000000000E+01 0.  1.
         13    1    6    6    0    0 -0.73930478536E+01  0.24377031719E+02  0.78882884377E+00  0.25485664263E+02  0.00000000000E+00 0. -1.
        -14    1    6    6    0    0  0.72999690298E+02 -0.29633827163E+02  0.22496069358E+01  0.78817378967E+02  0.00000000000E+00 0.  1.
</event>
<event>
12    1  0.9028446E-003  0.2117487E+03  0.7818608E-02  0.1140265E+00
         21   -1    0    0  503  502  0.00000000000E+00  0.00000000000E+00  0.60866080928E+02  0.60866080928E+02  0.00000000000E+00 0. -1.
         21   -1    0    0  501  503 -0.00000000000E+00 -0.00000000000E+00 -0.81858012247E+03  0.81858012247E+03  0.00000000000E+00 0.  1.
          6    2    1    2  501    0  0.86814381142E+02 -0.85772200758E+02 -0.51879753054E+03  0.56019928612E+03  0.17256522036E+03 0.  0.
         24    2    3    3    0    0  0.10700410423E+03 -0.10556717912E+03 -0.30174181039E+03  0.34125924470E+03  0.53060760699E+02 0.  0.
         -6    2    1    2    0  502 -0.86814381142E+02  0.85772200758E+02 -0.23891651100E+03  0.31924691728E+03  0.17304302288E+03 0.  0.
        -24    2    5    5    0    0 -0.76995023109E+02  0.61323188455E+02 -0.62503616310E+02  0.14081549233E+03  0.78952731446E+02 0.  0.
          5    1    3    3  501    0 -0.20189723093E+02  0.19794978360E+02 -0.21705572015E+03  0.21894004142E+03  0.47000000000E+01 0. -1.
        -11    1    4    4    0    0  0.18211351922E+02 -0.50754993428E+02 -0.84220250918E+02  0.10000386673E+03  0.00000000000E+00 0.  1.
         12    1    4    4    0    0  0.88792752313E+02 -0.54812185690E+02 -0.21752155947E+03  0.24125537797E+03  0.00000000000E+00 0. -1.
         -5    1    5    5    0  502 -0.98193580326E+01  0.24449012304E+02 -0.17641289469E+03  0.17843142495E+03  0.47000000000E+01 0.  1.
         13    1    6    6    0    0 -0.26738683490E+02  0.37055125474E+02  0.12455541109E+02  0.47362221475E+02  0.00000000000E+00 0. -1.
        -14    1    6    6    0    0 -0.50256339619E+02  0.24268062980E+02 -0.74959157420E+02  0.93453270857E+02  0.00000000000E+00 0.  1.
</event>
<event>
12    1  0.9028446E-003  0.3176334E+03  0.7818608E-02  0.1077024E+00
         21   -1    0    0  501  502  0.00000000000E+00  0.00000000000E+00  0.18967019525E+03  0.18967019525E+03  0.00000000000E+00 0. -1.
         21   -1    0    0  502  503 -0.00000000000E+00 -0.00000000000E+00 -0.74984230029E+03  0.74984230029E+03  0.00000000000E+00 0.  1.
          6    2    1    2  501    0  0.25829609163E+03  0.61857610675E+02 -0.25275804160E+02  0.31863743775E+03  0.17420595717E+03 0.  0.
         24    2    3    3    0    0  0.20151337047E+03  0.26203849983E+02 -0.79825733290E+02  0.23207386088E+03  0.78688302655E+02 0.  0.
         -6    2    1    2    0  503 -0.25829609163E+03 -0.61857610675E+02 -0.53489630088E+03  0.62087505779E+03  0.16978972215E+03 0.  0.
        -24    2    5    5    0    0 -0.40840882694E+02 -0.21291896752E+02 -0.14465608501E+03  0.17227516800E+03  0.81437264284E+02 0.  0.
          5    1    3    3  501    0  0.56782721153E+02  0.35653760693E+02  0.54549929130E+02  0.86563576874E+02  0.47000000000E+01 0. -1.
        -11    1    4    4    0    0 -0.73826247400E+01  0.16674758424E+01 -0.23219773650E+01  0.79167671824E+01  0.00000000000E+00 0.  1.
         12    1    4    4    0    0  0.20889599521E+03  0.24536374140E+02 -0.77503755925E+02  0.22415709370E+03  0.00000000000E+00 0. -1.
         -5    1    5    5    0  503 -0.21745520893E+03 -0.40565713924E+02 -0.39024021587E+03  0.44859988979E+03  0.47000000000E+01 0.  1.
         11    1    6    6    0    0 -0.52844627868E+02  0.72456985887E+01 -0.12419714352E+03  0.13516650954E+03  0.00000000000E+00 0. -1.
        -12    1    6    6    0    0  0.12003745174E+02 -0.28537595340E+02 -0.20458941484E+02  0.37108658459E+02  0.00000000000E+00 0.  1.
</event>
<event>
12    1  0.9028446E-003  0.1838538E+03  0.7818608E-02  0.1164132E+00
         21   -1    0    0  503  502  0.00000000000E+00  0.00000000000E+00  0.38806341815E+03  0.38806341815E+03  0.00000000000E+00 0. -1.
         21   -1    0    0  501  503 -0.00000000000E+00 -0.00000000000E+00 -0.88631276292E+02  0.88631276292E+02  0.00000000000E+00 0. -1.
          6    2    1    2  501    0 -0.59679676853E+02 -0.25844842863E+02  0.11827821438E+03  0.21858821373E+03  0.17193443940E+03 0.  0.
         24    2    3    3    0    0 -0.55714431301E+02  0.31220783000E+02  0.17874409617E+02  0.10293691525E+03  0.78725338083E+02 0.  0.
         -6    2    1    2    0  502  0.59679676853E+02  0.25844842863E+02  0.18115392747E+03  0.25810648071E+03  0.17196682882E+03 0.  0.
        -24    2    5    5    0    0  0.93697108106E+02 -0.17265483121E+02  0.15118347178E+03  0.19536889987E+03  0.78964041955E+02 0.  0.
          5    1    3    3  501    0 -0.39652455515E+01 -0.57065625863E+02  0.10040380477E+03  0.11565129848E+03  0.47000000000E+01 0. -1.
        -13    1    4    4    0    0 -0.56783441152E+02 -0.50963984788E+01  0.30268057542E+02  0.64548336724E+02  0.00000000000E+00 0.  1.
         14    1    4    4    0    0  0.10690098504E+01  0.36317181479E+02 -0.12393647925E+02  0.38388578530E+02  0.00000000000E+00 0. -1.
         -5    1    5    5    0  502 -0.34017431253E+02  0.43110325984E+02  0.29970455693E+02  0.62737580842E+02  0.47000000000E+01 0.  1.
         13    1    6    6    0    0 -0.29103686614E+01  0.75856988986E+01 -0.53677772053E+01  0.97378696670E+01  0.00000000000E+00 0. -1.
        -14    1    6    6    0    0  0.96607476767E+02 -0.24851182020E+02  0.15655124899E+03  0.18563103020E+03  0.00000000000E+00 0.  1.
</event>
<event>
12    1  0.9028446E-003  0.2267584E+03  0.7818608E-02  0.1130399E+00
         21   -1    0    0  501  502  0.00000000000E+00  0.00000000000E+00  0.48546898679E+03  0.48546898679E+03  0.00000000000E+00 0. -1.
         21   -1    0    0  502  503 -0.00000000000E+00 -0.00000000000E+00 -0.10548525198E+03  0.10548525198E+03  0.00000000000E+00 0.  1.
          6    2    1    2  501    0  0.11594522438E+03 -0.69334339791E+02  0.24521235043E+03  0.33398871611E+03  0.18212309014E+03 0.  0.
         24    2    3    3    0    0  0.47195344127E+02  0.18003142623E+02  0.18658332558E+03  0.20823564687E+03  0.77441807795E+02 0.  0.
         -6    2    1    2    0  503 -0.11594522438E+03  0.69334339791E+02  0.13477138438E+03  0.25696552266E+03  0.17209708905E+03 0.  0.
        -24    2    5    5    0    0 -0.77320438058E+02  0.10095296575E+03  0.14157678791E+03  0.20636893046E+03  0.79838569301E+02 0.  0.
          5    1    3    3  501    0  0.68749880248E+02 -0.87337482413E+02  0.58629024850E+02  0.12575306924E+03  0.47000000000E+01 0. -1.
        -13    1    4    4    0    0  0.39637248214E+02  0.92851203079E+01  0.28412845672E+02  0.49644885983E+02  0.00000000000E+00 0.  1.
         14    1    4    4    0    0  0.75580959132E+01  0.87180223149E+01  0.15817047990E+03  0.15859076089E+03  0.00000000000E+00 0. -1.
         -5    1    5    5    0  503 -0.38624786317E+02 -0.31618625956E+02 -0.68054035294E+01  0.50596592204E+02  0.47000000000E+01 0.  1.
         13    1    6    6    0    0 -0.19973747498E+02  0.45933454240E+02  0.10997508572E+03  0.12084433080E+03  0.00000000000E+00 0. -1.
        -14    1    6    6    0    0 -0.57346690559E+02  0.55019511507E+02  0.31601702188E+02  0.85524599652E+02  0.00000000000E+00 0.  1.
</event>
<event>
12    1  0.9028446E-003  0.2023823E+03  0.7818608E-02  0.1148268E+00
         21   -1    0    0  501  502  0.00000000000E+00  0.00000000000E+00  0.24826132327E+03  0.24826132327E+03  0.00000000000E+00 0.  1.
         21   -1    0    0  502  503 -0.00000000000E+00 -0.00000000000E+00 -0.16539519525E+03  0.16539519525E+03  0.00000000000E+00 0.  1.
          6    2    1    2  501    0 -0.98771687460E+02  0.22996998827E+02  0.66850211482E+02  0.21313735762E+03  0.17513958501E+03 0.  0.
         24    2    3    3    0    0 -0.55333793546E+02 -0.31882414806E+02 -0.17926142526E+02  0.10310226836E+03  0.78932972032E+02 0.  0.
         -6    2    1    2    0  503  0.98771687460E+02 -0.22996998827E+02  0.16015916536E+02  0.20051916090E+03  0.17224028595E+03 0.  0.
        -24    2    5    5    0    0  0.45729472308E+02  0.34283078875E+02 -0.36866243454E+02  0.10610996254E+03  0.81447468398E+02 0.  0.
          5    1    3    3  501    0 -0.43437893913E+02  0.54879413633E+02  0.84776354008E+02  0.11003508925E+03  0.47000000000E+01 0. -1.
        -11    1    4    4    0    0  0.62146379519E+01  0.19109517681E+02 -0.10915639895E+02  0.22868025389E+02  0.00000000000E+00 0.  1.
         12    1    4    4    0    0 -0.61548431498E+02 -0.50991932487E+02 -0.70105026311E+01  0.80234242975E+02  0.00000000000E+00 0. -1.
         -5    1    5    5    0  503  0.53042215152E+02 -0.57280077702E+02  0.52882159990E+02  0.94409198360E+02  0.47000000000E+01 0.  1.
         13    1    6    6    0    0  0.11391661682E+02  0.27475147059E+02  0.22429277259E+02  0.37252196448E+02  0.00000000000E+00 0. -1.
        -14    1    6    6    0    0  0.34337810626E+02  0.68079318157E+01 -0.59295520713E+02  0.68857766089E+02  0.00000000000E+00 0.  1.
</event>
<event>
12    1  0.9028446E-003  0.2076536E+03  0.7818608E-02  0.1143635E+00
         21   -1    0    0  503  502  0.00000000000E+00  0.00000000000E+00  0.61843435058E+03  0.61843435058E+03  0.00000000000E+00 0. -1.
         21   -1    0    0  501  503 -0.00000000000E+00 -0.00000000000E+00 -0.74732742758E+02  0.74732742758E+02  0.00000000000E+00 0. -1.
          6    2    1    2  501    0  0.81084302688E+02 -0.82302127720E+02  0.17983296326E+03  0.27469968572E+03  0.17254482979E+03 0.  0.
         24    2    3    3    0    0 -0.70799054148E+01 -0.41598728594E+02  0.43745898341E+02  0.10745294127E+03  0.88610674772E+02 0.  0.
         -6    2    1    2    0  502 -0.81084302688E+02  0.82302127720E+02  0.36386864456E+03  0.41846740763E+03  0.17136591370E+03 0.  0.
        -24    2    5    5    0    0 -0.48141539226E+02  0.10577137654E+03  0.34689183767E+03  0.37435014029E+03  0.79365537847E+02 0.  0.
          5    1    3    3  501    0  0.88164208103E+02 -0.40703399126E+02  0.13608706492E+03  0.16724674445E+03  0.47000000000E+01 0. -1.
        -13    1    4    4    0    0 -0.24681650848E+02 -0.10244747939E+02  0.61717775659E+02  0.67254907488E+02  0.00000000000E+00 0.  1.
         14    1    4    4    0    0  0.17601745433E+02 -0.31353980655E+02 -0.17971877318E+02  0.40198033777E+02  0.00000000000E+00 0. -1.
         -5    1    5    5    0  502 -0.32942763462E+02 -0.23469248823E+02  0.16976806891E+02  0.44117267335E+02  0.47000000000E+01 0.  1.
         13    1    6    6    0    0 -0.91266361166E+01  0.43071092405E+01  0.14242331528E+03  0.14278041677E+03  0.00000000000E+00 0. -1.
        -14    1    6    6    0    0 -0.39014903109E+02  0.10146426730E+03  0.20446852239E+03  0.23156972352E+03  0.00000000000E+00 0.  1.
</event>
<event>
12    1  0.9028446E-003  0.1856900E+03  0.7818608E-02  0.1162450E+00
         21   -1    0    0  501  502  0.00000000000E+00  0.00000000000E+00  0.35370200141E+04  0.35370200141E+04  0.00000000000E+00 0. -1.
         21   -1    0    0  502  503 -0.00000000000E+00 -0.00000000000E+00 -0.10975173431E+02  0.10975173431E+02  0.00000000000E+00 0.  1.
          6    2    1    2  501    0  0.22972336039E+02  0.67537588551E+02  0.23576629620E+04  0.23649495438E+04  0.17123857193E+03 0.  0.
         24    2    3    3    0    0  0.68924998362E+02  0.57624946270E+02  0.11315002192E+04  0.11378769830E+04  0.79999954237E+02 0.  0.
         -6    2    1    2    0  503 -0.22972336039E+02 -0.67537588551E+02  0.11683818788E+04  0.11830456438E+04  0.17144015435E+03 0.  0.
        -24    2    5    5    0    0  0.15434912361E+02 -0.94824507243E+02  0.78894500719E+03  0.80066609127E+03  0.96964125539E+02 0.  0.
          5    1    3    3  501    0 -0.45952662322E+02  0.99126422815E+01  0.12261627428E+04  0.12270725608E+04  0.47000000000E+01 0. -1.
        -11    1    4    4    0    0  0.42516501714E+02  0.38447609398E+02  0.10222515990E+04  0.10238575113E+04  0.00000000000E+00 0.  1.
         12    1    4    4    0    0  0.26408496647E+02  0.19177336872E+02  0.10924862012E+03  0.11401947177E+03  0.00000000000E+00 0. -1.
         -5    1    5    5    0  503 -0.38407248400E+02  0.27286918692E+02  0.37943687156E+03  0.38237955249E+03  0.47000000000E+01 0.  1.
         11    1    6    6    0    0 -0.67668178001E+01 -0.74516537323E+02  0.73580046760E+03  0.73959504615E+03  0.00000000000E+00 0. -1.
        -12    1    6    6    0    0  0.22201730161E+02 -0.20307969920E+02  0.53144539589E+02  0.61071045124E+02  0.00000000000E+00 0.  1.
</event>
<event>
12    1  0.9028446E-003  0.1906793E+03  0.7818608E-02  0.1157883E+00
         21   -1    0    0  503  502  0.00000000000E+00  0.00000000000E+00  0.12701434681E+03  0.12701434681E+03  0.00000000000E+00 0. -1.
         21   -1    0    0  501  503 -0.00000000000E+00 -0.00000000000E+00 -0.32627224338E+03  0.32627224338E+03  0.00000000000E+00 0. -1.
          6    2    1    2  501    0  0.13578758869E+02 -0.80687739047E+02 -0.17918865668E+03  0.26155399752E+03  0.17206692014E+03 0.  0.
         24    2    3    3    0    0  0.65123211369E+01  0.24483633382E+02 -0.64165709778E+02  0.10546645658E+03  0.79775162313E+02 0.  0.
         -6    2    1    2    0  502 -0.13578758869E+02  0.80687739047E+02 -0.20069239883E+02  0.19173259267E+03  0.17223158472E+03 0.  0.
        -24    2    5    5    0    0  0.88324085715E+01  0.15662411419E-01 -0.55880004196E+02  0.10054736790E+03  0.83121517290E+02 0.  0.
          5    1    3    3  501    0  0.70664377320E+01 -0.10517137243E+03 -0.11502294691E+03  0.15608754094E+03  0.47000000000E+01 0. -1.
        -13    1    4    4    0    0  0.78723673575E+01  0.10869069738E+02  0.17841576208E+02  0.22325606069E+02  0.00000000000E+00 0.  1.
         14    1    4    4    0    0 -0.13600462206E+01  0.13614563644E+02 -0.82007285985E+02  0.83140850511E+02  0.00000000000E+00 0. -1.
         -5    1    5    5    0  502 -0.22411167440E+02  0.80672076636E+02  0.35810764313E+02  0.91185224765E+02  0.47000000000E+01 0.  1.
         13    1    6    6    0    0  0.12217795629E+02  0.34611646025E+02 -0.24261653728E+01  0.36784872557E+02  0.00000000000E+00 0. -1.
        -14    1    6    6    0    0 -0.33853870574E+01 -0.34595983614E+02 -0.53453838824E+02  0.63762495346E+02  0.00000000000E+00 0.  1.
</event>
<event>
12    1  0.9028446E-003  0.1859191E+03  0.7818608E-02  0.1162457E+00
         21   -1    0    0  503  502  0.00000000000E+00  0.00000000000E+00  0.32355974838E+03  0.32355974838E+03  0.00000000000E+00 0.  1.
         21   -1    0    0  501  503 -0.00000000000E+00 -0.00000000000E+00 -0.18702065292E+03  0.18702065292E+03  0.00000000000E+00 0.  1.
          6    2    1    2  501    0  0.32347759219E+02  0.62341515959E+02 -0.99452869881E+02  0.21084778496E+03  0.17214259484E+03 0.  0.
         24    2    3    3    0    0  0.44455475630E+02  0.10386187316E+03 -0.55048545144E+02  0.14868372047E+03  0.79453938862E+02 0.  0.
         -6    2    1    2    0  502 -0.32347759219E+02 -0.62341515959E+02  0.23599196534E+03  0.29973261634E+03  0.17092276460E+03 0.  0.
        -24    2    5    5    0    0 -0.38681712047E+02  0.80985520140E+01  0.20345293485E+03  0.22174030493E+03  0.78827690180E+02 0.  0.
          5    1    3    3  501    0 -0.12107716412E+02 -0.41520357200E+02 -0.44404324737E+02  0.62164064491E+02  0.47000000000E+01 0. -1.
        -13    1    4    4    0    0  0.54668143521E+02  0.10952942545E+03 -0.59595012566E+02  0.13615016150E+03  0.00000000000E+00 0.  1.
         14    1    4    4    0    0 -0.10212667891E+02 -0.56675522868E+01  0.45464674218E+01  0.12533558967E+02  0.00000000000E+00 0. -1.
         -5    1    5    5    0  502  0.63339528277E+01 -0.70440067973E+02  0.32539030483E+02  0.77992311411E+02  0.47000000000E+01 0.  1.
         13    1    6    6    0    0 -0.13877601407E+02 -0.19423015144E+02  0.17047939852E+03  0.17214257654E+03  0.00000000000E+00 0. -1.
        -14    1    6    6    0    0 -0.24804110640E+02  0.27521567158E+02  0.32973536339E+02  0.49597728397E+02  0.00000000000E+00 0.  1.
</event>
<event>
12    1  0.9028446E-003  0.1831955E+03  0.7818608E-02  0.1164857E+00
         21   -1    0    0  501  502  0.00000000000E+00  0.00000000000E+00  0.42566222251E+03  0.42566222251E+03  0.00000000000E+00 0.  1.
         21   -1    0    0  502  503 -0.00000000000E+00 -0.00000000000E+00 -0.81010118602E+02  0.81010118602E+02  0.00000000000E+00 0.  1.
          6    2    1    2  501    0 -0.62521964384E+02 -0.78791449399E+01  0.21586678641E+03  0.28312374252E+03  0.17201600841E+03 0.  0.
         24    2    3    3    0    0 -0.37778859740E+02 -0.18804782058E+02  0.28819163175E+02  0.94072177778E+02  0.78982076412E+02 0.  0.
         -6    2    1    2    0  503  0.62521964384E+02  0.78791449399E+01  0.12878531749E+03  0.22354859859E+03  0.17151455032E+03 0.  0.
        -24    2    5    5    0    0 -0.28050050587E+02  0.32624872193E+02  0.68824327320E+02  0.11204500557E+03  0.77240582717E+02 0.  0.
          5    1    3    3  501    0 -0.24743104644E+02  0.10925637118E+02  0.18704762324E+03  0.18905156475E+03  0.47000000000E+01 0. -1.
        -11    1    4    4    0    0 -0.52722832250E+00  0.18454850942E+02  0.36426794910E+02  0.40838350608E+02  0.00000000000E+00 0.  1.
         12    1    4    4    0    0 -0.37251631418E+02 -0.37259633000E+02 -0.76076317355E+01  0.53233827170E+02  0.00000000000E+00 0. -1.
         -5    1    5    5    0  503  0.90572014972E+02 -0.24745727253E+02  0.59960990175E+02  0.11150359302E+03  0.47000000000E+01 0.  1.
         13    1    6    6    0    0 -0.30809805546E+01 -0.19423183040E+02  0.45894161194E+02  0.49930216426E+02  0.00000000000E+00 0. -1.
        -14    1    6    6    0    0 -0.24969070033E+02  0.52048055233E+02  0.22930166126E+02  0.62114789144E+02  0.00000000000E+00 0.  1.
</event>
<event>
12    1  0.9028446E-003  0.2131096E+03  0.7818608E-02  0.1139378E+00
         21   -1    0    0  501  502  0.00000000000E+00  0.00000000000E+00  0.63426693154E+02  0.63426693154E+02  0.00000000000E+00 0. -1.
         21   -1    0    0  502  503 -0.00000000000E+00 -0.00000000000E+00 -0.86519988276E+03  0.86519988276E+03  0.00000000000E+00 0.  1.
          6    2    1    2  501    0 -0.11986074007E+03 -0.33373519704E+02 -0.20632384967E+03  0.29662303406E+03  0.17301822033E+03 0.  0.
         24    2    3    3    0    0 -0.82659750354E+02 -0.85943010813E+02 -0.17005432406E+03  0.22256202192E+03  0.79978403539E+02 0.  0.
         -6    2    1    2    0  503  0.11986074007E+03  0.33373519704E+02 -0.59544933994E+03  0.63200354186E+03  0.17142978636E+03 0.  0.
        -24    2    5    5    0    0  0.19719266376E+00  0.44411522547E+02 -0.27038983458E+03  0.28541015746E+03  0.79849064572E+02 0.  0.
          5    1    3    3  501    0 -0.37200989721E+02  0.52569491110E+02 -0.36269525606E+02  0.74061012142E+02  0.47000000000E+01 0. -1.
        -11    1    4    4    0    0 -0.58397976762E+02 -0.93339746273E+01 -0.98875935128E+02  0.11521240089E+03  0.00000000000E+00 0.  1.
         12    1    4    4    0    0 -0.24261773591E+02 -0.76609036186E+02 -0.71178388931E+02  0.10734962102E+03  0.00000000000E+00 0. -1.
         -5    1    5    5    0  503  0.11966354741E+03 -0.11038002843E+02 -0.32505950536E+03  0.34659338440E+03  0.47000000000E+01 0.  1.
         13    1    6    6    0    0 -0.79280348865E+01  0.63837498416E+02 -0.15028920854E+03  0.16347760135E+03  0.00000000000E+00 0. -1.
        -14    1    6    6    0    0  0.81252275503E+01 -0.19425975869E+02 -0.12010062605E+03  0.12193255611E+03  0.00000000000E+00 0.  1.
</event>
<event>
12    1  0.9028446E-003  0.1871802E+03  0.7818608E-02  0.1161101E+00
         21   -1    0    0  501  502  0.00000000000E+00  0.00000000000E+00  0.70202930378E+02  0.70202930378E+02  0.00000000000E+00 0.  1.
         21   -1    0    0  502  503 -0.00000000000E+00 -0.00000000000E+00 -0.53700529399E+03  0.53700529399E+03  0.00000000000E+00 0.  1.
          6    2    1    2  501    0 -0.68745370905E+02 -0.24977346363E+02 -0.31514132637E+03  0.36653853521E+03  0.17229813799E+03 0.  0.
         24    2    3    3    0    0  0.15562619818E+02  0.15471606034E+01 -0.22983607411E+03  0.24361391264E+03  0.79237166975E+02 0.  0.
         -6    2    1    2    0  503  0.68745370905E+02  0.24977346363E+02 -0.15166103724E+03  0.24066968916E+03  0.17196230753E+03 0.  0.
        -24    2    5    5    0    0 -0.42715521506E+00 -0.27429242582E+02 -0.12530082001E+03  0.14984986760E+03  0.77473489112E+02 0.  0.
          5    1    3    3  501    0 -0.84307990724E+02 -0.26524506967E+02 -0.85305252264E+02  0.12292462257E+03  0.47000000000E+01 0. -1.
        -11    1    4    4    0    0 -0.44745134923E+01 -0.12776217618E+02 -0.21378956027E+03  0.21421771423E+03  0.00000000000E+00 0.  1.
         12    1    4    4    0    0  0.20037133311E+02  0.14323378221E+02 -0.16046513836E+02  0.29396198415E+02  0.00000000000E+00 0. -1.
         -5    1    5    5    0  503  0.69172526120E+02  0.52406588946E+02 -0.26360217231E+02  0.90819821555E+02  0.47000000000E+01 0.  1.
         11    1    6    6    0    0  0.32648405263E+02 -0.18126658606E+02 -0.10123042268E+03  0.10789852916E+03  0.00000000000E+00 0. -1.
        -12    1    6    6    0    0 -0.33075560478E+02 -0.93025839762E+01 -0.24070397327E+02  0.41951338442E+02  0.00000000000E+00 0.  1.
</event>
<event>
12    1  0.9028446E-003  0.1967966E+03  0.7818608E-02  0.1153119E+00
         21   -1    0    0  501  502  0.00000000000E+00  0.00000000000E+00  0.27771271685E+03  0.27771271685E+03  0.00000000000E+00 0.  1.
         21   -1    0    0  502  503 -0.00000000000E+00 -0.00000000000E+00 -0.16121819922E+03  0.16121819922E+03  0.00000000000E+00 0.  1.
          6    2    1    2  501    0  0.93927075178E+02  0.18558265267E+01  0.14231292301E+03  0.24044794264E+03  0.16951845185E+03 0.  0.
         24    2    3    3    0    0  0.11889465373E+03  0.14078997581E+02  0.15248589369E+03  0.21047520132E+03  0.81937206077E+02 0.  0.
         -6    2    1    2    0  503 -0.93927075178E+02 -0.18558265267E+01 -0.25818405382E+02  0.19848297343E+03  0.17292530510E+03 0.  0.
        -24    2    5    5    0    0 -0.55242235740E+02 -0.57633426386E+02 -0.54694739671E+02  0.12456687146E+03  0.78435160942E+02 0.  0.
          5    1    3    3  501    0 -0.24967578551E+02 -0.12223171055E+02 -0.10172970678E+02  0.29972741312E+02  0.47000000000E+01 0. -1.
        -13    1    4    4    0    0  0.83937695666E+02  0.34395869347E+02  0.57913601471E+02  0.10762247821E+03  0.00000000000E+00 0.  1.
         14    1    4    4    0    0  0.34956958063E+02 -0.20316871765E+02  0.94572292218E+02  0.10285272311E+03  0.00000000000E+00 0. -1.
         -5    1    5    5    0  503 -0.38684839439E+02  0.55777599860E+02  0.28876334289E+02  0.73916101970E+02  0.47000000000E+01 0.  1.
         11    1    6    6    0    0 -0.42332530762E+02 -0.76965561177E+02 -0.36825951915E+02  0.95246477638E+02  0.00000000000E+00 0. -1.
        -12    1    6    6    0    0 -0.12909704977E+02  0.19332134791E+02 -0.17868787757E+02  0.29320393825E+02  0.00000000000E+00 0.  1.
</event>
<event>
12    1  0.9028446E-003  0.3316619E+03  0.7818608E-02  0.1071488E+00
         21   -1    0    0  501  502  0.00000000000E+00  0.00000000000E+00  0.72242584260E+02  0.72242584260E+02  0.00000000000E+00 0.  1.
         21   -1    0    0  502  503 -0.00000000000E+00 -0.00000000000E+00 -0.15323000707E+04  0.15323000707E+04  0.00000000000E+00 0.  1.
          6    2    1    2  501    0  0.11179152836E+03  0.24799813661E+03 -0.89097761227E+03  0.95070538093E+03  0.18973453610E+03 0.  0.
         24    2    3    3    0    0  0.29157248238E+02  0.12774575226E+03 -0.65839689418E+03  0.67610578039E+03  0.80395482823E+02 0.  0.
         -6    2    1    2    0  503 -0.11179152836E+03 -0.24799813661E+03 -0.56907987421E+03  0.65383727407E+03  0.17219423961E+03 0.  0.
        -24    2    5    5    0    0 -0.10048680906E+02 -0.48761607035E+02 -0.12155289056E+03  0.15348810317E+03  0.79402911171E+02 0.  0.
          5    1    3    3  501    0  0.82634280118E+02  0.12025238435E+03 -0.23258071809E+03  0.27459960055E+03  0.47000000000E+01 0. -1.
        -13    1    4    4    0    0 -0.16177697802E+02  0.56406445371E+02 -0.39881341311E+03  0.40310735972E+03  0.00000000000E+00 0.  1.
         14    1    4    4    0    0  0.45334946040E+02  0.71339306891E+02 -0.25958348107E+03  0.27299842067E+03  0.00000000000E+00 0. -1.
         -5    1    5    5    0  503 -0.10174284745E+03 -0.19923652958E+03 -0.44752698365E+03  0.50034917090E+03  0.47000000000E+01 0.  1.
         13    1    6    6    0    0  0.15550041116E+02  0.16707935775E+02 -0.22715741574E+02  0.32201922487E+02  0.00000000000E+00 0. -1.
        -14    1    6    6    0    0 -0.25598722022E+02 -0.65469542810E+02 -0.98837148989E+02  0.12128618068E+03  0.00000000000E+00 0.  1.
</event>
<event>
12    1  0.9028446E-003  0.1925678E+03  0.7818608E-02  0.1156871E+00
         21   -1    0    0  503  502  0.00000000000E+00  0.00000000000E+00  0.33049301034E+02  0.33049301034E+02  0.00000000000E+00 0.  1.
         21   -1    0    0  501  503 -0.00000000000E+00 -0.00000000000E+00 -0.12218505669E+04  0.12218505669E+04  0.00000000000E+00 0.  1.
          6    2    1    2  501    0 -0.71873288533E+02 -0.41567731121E+02 -0.39486714022E+03  0.43794591581E+03  0.17024371023E+03 0.  0.
         24    2    3    3    0    0 -0.95360278829E+02 -0.19725284461E+02 -0.38338755409E+03  0.40355693376E+03  0.79934426392E+02 0.  0.
         -6    2    1    2    0  502  0.71873288533E+02  0.41567731121E+02 -0.79393412562E+03  0.81695395209E+03  0.17374900906E+03 0.  0.
        -24    2    5    5    0    0  0.80676514420E+02  0.89763216045E+02 -0.57192232368E+03  0.58955203532E+03  0.76878625728E+02 0.  0.
          5    1    3    3  501    0  0.23486990297E+02 -0.21842446660E+02 -0.11479586131E+02  0.34388982059E+02  0.47000000000E+01 0. -1.
        -13    1    4    4    0    0 -0.39950066941E+02 -0.23363888043E+02 -0.61788776948E+02  0.77199300967E+02  0.00000000000E+00 0.  1.
         14    1    4    4    0    0 -0.55410211888E+02  0.36386035821E+01 -0.32159877715E+03  0.32635763279E+03  0.00000000000E+00 0. -1.
         -5    1    5    5    0  502 -0.88032258873E+01 -0.48195484924E+02 -0.22201180194E+03  0.22740191678E+03  0.47000000000E+01 0.  1.
         11    1    6    6    0    0  0.50448744257E+02  0.27807093884E+01 -0.22640624180E+03  0.23197541781E+03  0.00000000000E+00 0. -1.
        -12    1    6    6    0    0  0.30227770163E+02  0.86982506657E+02 -0.34551608188E+03  0.35757661751E+03  0.00000000000E+00 0.  1.
</event>
<event>
12    1  0.9028446E-003  0.1850783E+03  0.7818608E-02  0.1163041E+00
         21   -1    0    0  501  502  0.00000000000E+00  0.00000000000E+00  0.12022255641E+04  0.12022255641E+04  0.00000000000E+00 0. -1.
         21   -1    0    0  502  503 -0.00000000000E+00 -0.00000000000E+00 -0.32367840274E+02  0.32367840274E+02  0.00000000000E+00 0. -1.
          6    2    1    2  501    0  0.43998392525E+02  0.51896376512E+02  0.80007662889E+03  0.82120435717E+03  0.17211883017E+03 0.  0.
         24    2    3    3    0    0 -0.16991656773E+02  0.22158473900E+01  0.60910241504E+03  0.61461011368E+03  0.80288314540E+02 0.  0.
         -6    2    1    2    0  503 -0.43998392525E+02 -0.51896376512E+02  0.36978109492E+03  0.41338904719E+03  0.17182361227E+03 0.  0.
        -24    2    5    5    0    0 -0.91499676304E+02 -0.20861065411E+02  0.20588662563E+03  0.23988674300E+03  0.79680436988E+02 0.  0.
          5    1    3    3  501    0  0.60990049299E+02  0.49680529122E+02  0.19097421385E+03  0.20659424349E+03  0.47000000000E+01 0. -1.
        -13    1    4    4    0    0 -0.29982606007E+01 -0.35842062411E+02  0.17751989597E+03  0.18112690708E+03  0.00000000000E+00 0.  1.
         14    1    4    4    0    0 -0.13993396173E+02  0.38057909801E+02  0.43158251907E+03  0.43348320660E+03  0.00000000000E+00 0. -1.
         -5    1    5    5    0  503  0.47501283778E+02 -0.31035311101E+02  0.16389446929E+03  0.17350230419E+03  0.47000000000E+01 0.  1.
         13    1    6    6    0    0 -0.59402602465E+02  0.27086644570E+02  0.11467763608E+03  0.13195952300E+03  0.00000000000E+00 0. -1.
        -14    1    6    6    0    0 -0.32097073839E+02 -0.47947709980E+02  0.91208989554E+02  0.10792722000E+03  0.00000000000E+00 0.  1.
</event>
<event>
12    1  0.9028446E-003  0.1894211E+03  0.7818608E-02  0.1159062E+00
         21   -1    0    0  501  502  0.00000000000E+00  0.00000000000E+00  0.24962326712E+02  0.24962326712E+02  0.00000000000E+00 0. -1.
         21   -1    0    0  502  503 -0.00000000000E+00 -0.00000000000E+00 -0.17859470447E+04  0.17859470447E+04  0.00000000000E+00 0. -1.
          6    2    1    2  501    0 -0.44037598790E+02 -0.67330352451E+02 -0.47836590729E+03  0.51437885690E+03  0.17111101865E+03 0.  0.
         24    2    3    3    0    0 -0.70642253823E+02  0.84509414610E+01 -0.29319161891E+03  0.31248230108E+03  0.81376388789E+02 0.  0.
         -6    2    1    2    0  503  0.44037598790E+02  0.67330352451E+02 -0.12826188107E+04  0.12965305145E+04  0.17148666136E+03 0.  0.
        -24    2    5    5    0    0  0.72065718143E+02 -0.42303662854E+01 -0.89227457314E+03  0.89866467565E+03  0.78948854627E+02 0.  0.
          5    1    3    3  501    0  0.26604655033E+02 -0.75781293912E+02 -0.18517428838E+03  0.20189655582E+03  0.47000000000E+01 0. -1.
        -11    1    4    4    0    0 -0.23281177329E+02  0.43386013275E+02 -0.13252783056E+03  0.14137887126E+03  0.00000000000E+00 0.  1.
         12    1    4    4    0    0 -0.47361076494E+02 -0.34935071814E+02 -0.16066378835E+03  0.17110342982E+03  0.00000000000E+00 0. -1.
         -5    1    5    5    0  503 -0.28028119352E+02  0.71560718736E+02 -0.39034423756E+03  0.39786583886E+03  0.47000000000E+01 0.  1.
         11    1    6    6    0    0  0.48342443720E+02  0.23834678094E+02 -0.74227141479E+03  0.74422572984E+03  0.00000000000E+00 0. -1.
        -12    1    6    6    0    0  0.23723274423E+02 -0.28065044379E+02 -0.15000315836E+03  0.15443894581E+03  0.00000000000E+00 0.  1.
</event>
<event>
12    1  0.9028446E-003  0.2355492E+03  0.7818608E-02  0.1123205E+00
         21   -1    0    0  503  502  0.00000000000E+00  0.00000000000E+00  0.49469644381E+03  0.49469644381E+03  0.00000000000E+00 0.  1.
         21   -1    0    0  501  503 -0.00000000000E+00 -0.00000000000E+00 -0.12162200377E+03  0.12162200377E+03  0.00000000000E+00 0. -1.
          6    2    1    2  501    0 -0.39065889790E+01 -0.15834062883E+03  0.96415840664E+02  0.25451809064E+03  0.17434571391E+03 0.  0.
         24    2    3    3    0    0 -0.58880123849E+02 -0.15270087078E+03  0.76162829273E+02  0.19547428591E+03  0.74999966450E+02 0.  0.
         -6    2    1    2    0  502  0.39065889790E+01  0.15834062883E+03  0.27665859938E+03  0.36180035694E+03  0.17109208484E+03 0.  0.
        -24    2    5    5    0    0  0.20884466581E+02  0.13978503894E+02  0.66738807808E+02  0.10642400655E+03  0.78996463129E+02 0.  0.
          5    1    3    3  501    0  0.54973534870E+02 -0.56397580496E+01  0.20253011392E+02  0.59043804733E+02  0.47000000000E+01 0. -1.
        -11    1    4    4    0    0 -0.25386361331E+02 -0.14288514353E+03  0.61641469279E+02  0.15767150129E+03  0.00000000000E+00 0.  1.
         12    1    4    4    0    0 -0.33493762518E+02 -0.98157272493E+01  0.14521359994E+02  0.37802784621E+02  0.00000000000E+00 0. -1.
         -5    1    5    5    0  502 -0.16977877602E+02  0.14436212494E+03  0.20991979157E+03  0.25537635039E+03  0.47000000000E+01 0.  1.
         11    1    6    6    0    0  0.10939309213E+01  0.44257539260E+02  0.23744022261E+02  0.50236491312E+02  0.00000000000E+00 0. -1.
        -12    1    6    6    0    0  0.19790535660E+02 -0.30279035365E+02  0.42994785547E+02  0.56187515238E+02  0.00000000000E+00 0.  1.
</event>
<event>
12    1  0.9028446E-003  0.1768482E+03  0.7818608E-02  0.1170917E+00
         21   -1    0    0  501  502  0.00000000000E+00  0.00000000000E+00  0.17107302000E+03  0.17107302000E+03  0.00000000000E+00 0.  1.
         21   -1    0    0  502  503 -0.00000000000E+00 -0.00000000000E+00 -0.20207579432E+03  0.20207579432E+03  0.00000000000E+00 0.  1.
          6    2    1    2  501    0  0.42870645902E+02  0.10292582055E+02 -0.73268130372E+02  0.19132020889E+03  0.17114722865E+03 0.  0.
         24    2    3    3    0    0  0.76517904738E+02  0.47918269758E+02 -0.71648975793E+02  0.14059997561E+03  0.80520972965E+02 0.  0.
         -6    2    1    2    0  503 -0.42870645902E+02 -0.10292582055E+02  0.42265356053E+02  0.18182860542E+03  0.17126427503E+03 0.  0.
        -24    2    5    5    0    0 -0.52623748431E+02  0.52562974482E+02  0.32315854030E+02  0.11727609512E+03  0.84718609991E+02 0.  0.
          5    1    3    3  501    0 -0.33647258836E+02 -0.37625687703E+02 -0.16191545787E+01  0.50720233279E+02  0.47000000000E+01 0. -1.
        -13    1    4    4    0    0  0.15895925331E+02 -0.14696011215E+02 -0.44217083533E+02  0.49232140558E+02  0.00000000000E+00 0.  1.
         14    1    4    4    0    0  0.60621979407E+02  0.62614280974E+02 -0.27431892260E+02  0.91367835052E+02  0.00000000000E+00 0. -1.
         -5    1    5    5    0  503  0.97531025290E+01 -0.62855556537E+02  0.99495020224E+01  0.64552510307E+02  0.47000000000E+01 0.  1.
         13    1    6    6    0    0  0.26865905457E+01  0.40163224593E+02  0.43750643778E+02  0.59450998389E+02  0.00000000000E+00 0. -1.
        -14    1    6    6    0    0 -0.55310338976E+02  0.12399749889E+02 -0.11434789748E+02  0.57825096728E+02  0.00000000000E+00 0.  1.
</event>
<event>
12    1  0.9028446E-003  0.2712891E+03  0.7818608E-02  0.1100688E+00
         21   -1    0    0  501  502  0.00000000000E+00  0.00000000000E+00  0.13152230344E+03  0.13152230344E+03  0.00000000000E+00 0.  1.
         21   -1    0    0  502  503 -0.00000000000E+00 -0.00000000000E+00 -0.56461747400E+03  0.56461747400E+03  0.00000000000E+00 0.  1.
          6    2    1    2  501    0 -0.19193672220E+02  0.20811549336E+03 -0.17706805462E+03  0.32311476560E+03  0.17137561132E+03 0.  0.
         24    2    3    3    0    0  0.42560089687E+02  0.87467564881E+02 -0.12392677687E+03  0.17745922964E+03  0.81682287059E+02 0.  0.
         -6    2    1    2    0  503  0.19193672220E+02 -0.20811549336E+03 -0.25602711594E+03  0.37302501183E+03  0.17296623870E+03 0.  0.
        -24    2    5    5    0    0 -0.73804300099E+01 -0.20172870970E+03 -0.14738898157E+03  0.26090316671E+03  0.74819833234E+02 0.  0.
          5    1    3    3  501    0 -0.61753761906E+02  0.12064792848E+03 -0.53141277743E+02  0.14565553596E+03  0.47000000000E+01 0. -1.
        -13    1    4    4    0    0 -0.66960736993E+01  0.49753613309E+02 -0.98222896130E+02  0.11030864320E+03  0.00000000000E+00 0.  1.
         14    1    4    4    0    0  0.49256163386E+02  0.37713951572E+02 -0.25703880745E+02  0.67150586446E+02  0.00000000000E+00 0. -1.
         -5    1    5    5    0  503  0.26574102230E+02 -0.63867836547E+01 -0.10863813437E+03  0.11212184512E+03  0.47000000000E+01 0.  1.
         13    1    6    6    0    0 -0.37313350521E+02 -0.63516299408E+02 -0.55877903155E+02  0.92460513077E+02  0.00000000000E+00 0. -1.
        -14    1    6    6    0    0  0.29932920511E+02 -0.13821241030E+03 -0.91511078415E+02  0.16844265363E+03  0.00000000000E+00 0.  1.
</event>
<event>
12    1  0.9028446E-003  0.2067781E+03  0.7818608E-02  0.1144696E+00
         21   -1    0    0  503  502  0.00000000000E+00  0.00000000000E+00  0.75010392426E+02  0.75010392426E+02  0.00000000000E+00 0.  1.
         21   -1    0    0  501  503 -0.00000000000E+00 -0.00000000000E+00 -0.60636754461E+03  0.60636754461E+03  0.00000000000E+00 0.  1.
          6    2    1    2  501    0  0.82748064768E+02  0.71505697686E+02 -0.17246327829E+03  0.26717749510E+03  0.17227862462E+03 0.  0.
         24    2    3    3    0    0  0.87545075375E+02  0.11052481575E+03 -0.16458671137E+03  0.22680877958E+03  0.66884690458E+02 0.  0.
         -6    2    1    2    0  502 -0.82748064768E+02 -0.71505697686E+02 -0.35889387390E+03  0.41420044194E+03  0.17549041672E+03 0.  0.
        -24    2    5    5    0    0 -0.92981373535E+02  0.29063427922E+00 -0.15502057755E+03  0.19776143239E+03  0.80203393854E+02 0.  0.
          5    1    3    3  501    0 -0.47970106061E+01 -0.39019118068E+02 -0.78765669232E+01  0.40368715512E+02  0.47000000000E+01 0. -1.
        -11    1    4    4    0    0  0.20294175586E+02  0.27375322727E+02 -0.46219212327E+01  0.34389300851E+02  0.00000000000E+00 0.  1.
         12    1    4    4    0    0  0.67250899789E+02  0.83149493027E+02 -0.15996479013E+03  0.19241947873E+03  0.00000000000E+00 0. -1.
         -5    1    5    5    0  502  0.10233308766E+02 -0.71796331965E+02 -0.20387329635E+03  0.21643900955E+03  0.47000000000E+01 0.  1.
         11    1    6    6    0    0 -0.24446385756E+02 -0.26614977870E+02 -0.14149241052E+02  0.38809584459E+02  0.00000000000E+00 0. -1.
        -12    1    6    6    0    0 -0.68534987779E+02  0.26905612149E+02 -0.14087133650E+03  0.15895184794E+03  0.00000000000E+00 0.  1.
</event>
<event>
12    1  0.9028446E-003  0.2024723E+03  0.7818608E-02  0.1147905E+00
         21   -1    0    0  503  502  0.00000000000E+00  0.00000000000E+00  0.14287744953E+03  0.14287744953E+03  0.00000000000E+00 0.  1.
         21   -1    0    0  501  503 -0.00000000000E+00 -0.00000000000E+00 -0.28533256293E+03  0.28533256293E+03  0.00000000000E+00 0.  1.
          6    2    1    2  501    0 -0.97471831023E+02  0.43007748569E+02 -0.70079017101E+02  0.21319063802E+03  0.17084716919E+03 0.  0.
         24    2    3    3    0    0  0.12583279427E+02  0.89839147850E+01 -0.52016334592E+02  0.96494026669E+02  0.79789400752E+02 0.  0.
         -6    2    1    2    0  502  0.97471831023E+02 -0.43007748569E+02 -0.72376096296E+02  0.21501937444E+03  0.17217609529E+03 0.  0.
        -24    2    5    5    0    0  0.50150068932E+02 -0.41624099825E+02 -0.11279323629E+03  0.15259422842E+03  0.79467536096E+02 0.  0.
          5    1    3    3  501    0 -0.11005511045E+03  0.34023833784E+02 -0.18062682509E+02  0.11669661135E+03  0.47000000000E+01 0. -1.
        -11    1    4    4    0    0  0.14427164166E+02 -0.33904196024E+02 -0.33297887470E+02  0.49662731338E+02  0.00000000000E+00 0.  1.
         12    1    4    4    0    0 -0.18438847397E+01  0.42888110809E+02 -0.18718447122E+02  0.46831295331E+02  0.00000000000E+00 0. -1.
         -5    1    5    5    0  502  0.47321762091E+02 -0.13836487435E+01  0.40417139993E+02  0.62425146027E+02  0.47000000000E+01 0.  1.
         13    1    6    6    0    0  0.16893334863E+01  0.17033030559E+02 -0.53385781245E+02  0.56062640116E+02  0.00000000000E+00 0. -1.
        -14    1    6    6    0    0  0.48460735446E+02 -0.58657130385E+02 -0.59407455045E+02  0.96531588301E+02  0.00000000000E+00 0.  1.
</event>
<event>
12    1  0.9028446E-003  0.1919689E+03  0.7818608E-02  0.1156721E+00
         21   -1    0    0  501  502  0.00000000000E+00  0.00000000000E+00  0.32116482713E+02  0.32116482713E+02  0.00000000000E+00 0. -1.
         21   -1    0    0  502  503 -0.00000000000E+00 -0.00000000000E+00 -0.11690593970E+04  0.11690593970E+04  0.00000000000E+00 0. -1.
          6    2    1    2  501    0  0.55491011997E+02 -0.64628416656E+02 -0.65117041016E+03  0.67884746538E+03  0.17191536735E+03 0.  0.
         24    2    3    3    0    0  0.52082439772E+01 -0.90848979604E+02 -0.54678458352E+03  0.55995942778E+03  0.79375796586E+02 0.  0.
         -6    2    1    2    0  503 -0.55491011997E+02  0.64628416656E+02 -0.48577250415E+03  0.52232841436E+03  0.17203476976E+03 0.  0.
        -24    2    5    5    0    0  0.23935945054E+02  0.22088697220E+02 -0.12321660360E+03  0.14871479006E+03  0.76634961796E+02 0.  0.
          5    1    3    3  501    0  0.50282768020E+02  0.26220562948E+02 -0.10438582664E+03  0.11888803760E+03  0.47000000000E+01 0. -1.
        -13    1    4    4    0    0  0.16342732808E+02 -0.21476736327E+02 -0.39541275016E+02  0.47873244603E+02  0.00000000000E+00 0.  1.
         14    1    4    4    0    0 -0.11134488830E+02 -0.69372243277E+02 -0.50724330850E+03  0.51208618318E+03  0.00000000000E+00 0. -1.
         -5    1    5    5    0  503 -0.79426957051E+02  0.42539719436E+02 -0.36255590056E+03  0.37361362430E+03  0.47000000000E+01 0.  1.
         13    1    6    6    0    0  0.27027973621E+02  0.48127266197E+02 -0.67956204915E+02  0.87548791517E+02  0.00000000000E+00 0. -1.
        -14    1    6    6    0    0 -0.30920285669E+01 -0.26038568977E+02 -0.55260398680E+02  0.61165998539E+02  0.00000000000E+00 0.  1.
</event>
<event>
12    1  0.9028446E-003  0.2262646E+03  0.7818608E-02  0.1130052E+00
         21   -1    0    0  503  502  0.00000000000E+00  0.00000000000E+00  0.59284816690E+02  0.59284816690E+02  0.00000000000E+00 0.  1.
         21   -1    0    0  501  503 -0.00000000000E+00 -0.00000000000E+00 -0.92550457053E+03  0.92550457053E+03  0.00000000000E+00 0.  1.
          6    2    1    2  501    0  0.84283273110E+02 -0.12001435247E+03 -0.57214927307E+03  0.61374611884E+03  0.16680045801E+03 0.  0.
         24    2    3    3    0    0  0.24614346285E+02 -0.27416200358E+02 -0.38548575999E+03  0.39695092582E+03  0.87253952727E+02 0.  0.
         -6    2    1    2    0  502 -0.84283273110E+02  0.12001435247E+03 -0.29407048077E+03  0.37104326838E+03  0.17230364019E+03 0.  0.
        -24    2    5    5    0    0 -0.19829070907E+02  0.61334576862E+02 -0.53416992119E+02  0.11504746403E+03  0.78914013710E+02 0.  0.
          5    1    3    3  501    0  0.59668926825E+02 -0.92598152109E+02 -0.18666351308E+03  0.21679519302E+03  0.47000000000E+01 0. -1.
        -13    1    4    4    0    0  0.55906044087E+02 -0.52509762257E+01 -0.24203247386E+03  0.24846081567E+03  0.00000000000E+00 0.  1.
         14    1    4    4    0    0 -0.31291697802E+02 -0.22165224133E+02 -0.14345328613E+03  0.14849011015E+03  0.00000000000E+00 0. -1.
         -5    1    5    5    0  502 -0.64454202203E+02  0.58679775606E+02 -0.24065348865E+03  0.25599580435E+03  0.47000000000E+01 0.  1.
         13    1    6    6    0    0  0.39656782374E+01  0.11082014933E+02  0.19846571943E+02  0.23074316388E+02  0.00000000000E+00 0. -1.
        -14    1    6    6    0    0 -0.23794749145E+02  0.50252561929E+02 -0.73263564063E+02  0.91973147638E+02  0.00000000000E+00 0.  1.
</event>
<event>
12    1  0.9028446E-003  0.1773699E+03  0.7818608E-02  0.1170902E+00
         21   -1    0    0  503  502  0.00000000000E+00  0.00000000000E+00  0.53398396714E+02  0.53398396714E+02  0.00000000000E+00 0.  1.
         21   -1    0    0  501  503 -0.00000000000E+00 -0.00000000000E+00 -0.59090707412E+03  0.59090707412E+03  0.00000000000E+00 0.  1.
          6    2    1    2  501    0 -0.17609997213E+02 -0.39931338593E+02 -0.30968383570E+03  0.35688117224E+03  0.17191704164E+03 0.  0.
         24    2    3    3    0    0 -0.60735351106E+02  0.90234212259E+01 -0.24426021662E+03  0.26436790514E+03  0.80356274424E+02 0.  0.
         -6    2    1    2    0  502  0.17609997213E+02  0.39931338593E+02 -0.22782484171E+03  0.28742429859E+03  0.16971725050E+03 0.  0.
        -24    2    5    5    0    0  0.12995008508E+02  0.29556214480E+01 -0.23570379104E+03  0.24904892079E+03  0.79318862145E+02 0.  0.
          5    1    3    3  501    0  0.43125353893E+02 -0.48954759819E+02 -0.65423619081E+02  0.92513267108E+02  0.47000000000E+01 0. -1.
        -11    1    4    4    0    0 -0.83546784023E+01  0.74391921297E+01 -0.18468717318E+03  0.18502565814E+03  0.00000000000E+00 0.  1.
         12    1    4    4    0    0 -0.52380672704E+02  0.15842290962E+01 -0.59573043434E+02  0.79342246998E+02  0.00000000000E+00 0. -1.
         -5    1    5    5    0  502  0.46149887045E+01  0.36975717145E+02  0.78789493270E+01  0.38375377804E+02  0.47000000000E+01 0.  1.
         11    1    6    6    0    0 -0.28425541875E+02 -0.11348308750E+02 -0.53373231134E+02  0.61526395507E+02  0.00000000000E+00 0. -1.
        -12    1    6    6    0    0  0.41420550384E+02  0.14303930198E+02 -0.18233055990E+03  0.18752252528E+03  0.00000000000E+00 0.  1.
</event>
<event>
12    1  0.9028446E-003  0.2425057E+03  0.7818608E-02  0.1118338E+00
         21   -1    0    0  503  502  0.00000000000E+00  0.00000000000E+00  0.44461785772E+03  0.44461785772E+03  0.00000000000E+00 0.  1.
         21   -1    0    0  501  503 -0.00000000000E+00 -0.00000000000E+00 -0.13730927157E+03  0.13730927157E+03  0.00000000000E+00 0.  1.
          6    2    1    2  501    0  0.10825019661E+03 -0.13094521120E+03  0.94679957447E+02  0.26033309590E+03  0.17304413620E+03 0.  0.
         24    2    3    3    0    0  0.18256087518E+02 -0.10674302939E+02  0.51579397486E+02  0.10398803101E+03  0.87782975992E+02 0.  0.
         -6    2    1    2    0  502 -0.10825019661E+03  0.13094521120E+03  0.21262862870E+03  0.32159403340E+03  0.17130976380E+03 0.  0.
        -24    2    5    5    0    0 -0.24104439558E+02  0.91497495405E+02  0.18799950350E+03  0.22533752962E+03  0.80500765640E+02 0.  0.
          5    1    3    3  501    0  0.89994109096E+02 -0.12027090826E+03  0.43100559961E+02  0.15634506489E+03  0.47000000000E+01 0. -1.
        -11    1    4    4    0    0  0.34270764073E+02 -0.28102405474E+02  0.63539327018E+02  0.77469197372E+02  0.00000000000E+00 0.  1.
         12    1    4    4    0    0 -0.16014676555E+02  0.17428102535E+02 -0.11959929533E+02  0.26518833639E+02  0.00000000000E+00 0. -1.
         -5    1    5    5    0  502 -0.84145757056E+02  0.39447715792E+02  0.24629125207E+02  0.96256503781E+02  0.47000000000E+01 0.  1.
         13    1    6    6    0    0  0.23931777566E+02  0.56567199363E+02  0.69257848611E+02  0.92570122693E+02  0.00000000000E+00 0. -1.
        -14    1    6    6    0    0 -0.48036217123E+02  0.34930296042E+02  0.11874165489E+03  0.13276740693E+03  0.00000000000E+00 0.  1.
</event>
<event>
12    1  0.9028446E-003  0.3127802E+03  0.7818608E-02  0.1079024E+00
         21   -1    0    0  503  502  0.00000000000E+00  0.00000000000E+00  0.19962105952E+03  0.19962105952E+03  0.00000000000E+00 0. -1.
         21   -1    0    0  501  503 -0.00000000000E+00 -0.00000000000E+00 -0.52431247766E+03  0.52431247766E+03  0.00000000000E+00 0. -1.
          6    2    1    2  501    0  0.10081074170E+03  0.24120346876E+03 -0.25487187526E+03  0.40345540264E+03  0.17168188647E+03 0.  0.
         24    2    3    3    0    0  0.52078505680E+02  0.18540100405E+03 -0.25415501053E+03  0.32921693694E+03  0.81873800037E+02 0.  0.
         -6    2    1    2    0  502 -0.10081074170E+03 -0.24120346876E+03 -0.69819542887E+02  0.32047813454E+03  0.17172520831E+03 0.  0.
        -24    2    5    5    0    0 -0.63392771928E+02 -0.17656318024E+03 -0.11355299568E+03  0.23379955440E+03  0.81084823881E+02 0.  0.
          5    1    3    3  501    0  0.48732236016E+02  0.55802464711E+02 -0.71686472567E+00  0.74238465704E+02  0.47000000000E+01 0. -1.
        -11    1    4    4    0    0  0.10871672379E+02 -0.40011639141E+01 -0.33860967012E+02  0.35787814406E+02  0.00000000000E+00 0.  1.
         12    1    4    4    0    0  0.41206833301E+02  0.18940216796E+03 -0.22029404352E+03  0.29342912253E+03  0.00000000000E+00 0. -1.
         -5    1    5    5    0  502 -0.37417969768E+02 -0.64640288522E+02  0.43733452791E+02  0.86678580139E+02  0.47000000000E+01 0.  1.
         11    1    6    6    0    0 -0.33109500173E+02 -0.17004038621E+03 -0.99590533899E+02  0.19982053545E+03  0.00000000000E+00 0. -1.
        -12    1    6    6    0    0 -0.30283271755E+02 -0.65227940219E+01 -0.13962461780E+02  0.33979018952E+02  0.00000000000E+00 0.  1.
</event>
<event>
12    1  0.9028446E-003  0.4548031E+03  0.7818608E-02  0.1026312E+00
         21   -1    0    0  501  502  0.00000000000E+00  0.00000000000E+00  0.30308770748E+03  0.30308770748E+03  0.00000000000E+00 0.  1.
         21   -1    0    0  502  503 -0.00000000000E+00 -0.00000000000E+00 -0.82201537877E+03  0.82201537877E+03  0.00000000000E+00 0. -1.
          6    2    1    2  501    0 -0.40834865819E+03 -0.10124645828E+03 -0.27500196040E+02  0.45563377609E+03  0.17276112168E+03 0.  0.
         24    2    3    3    0    0 -0.14484214608E+03 -0.72662933516E+02  0.34498837278E+02  0.18338633358E+03  0.78620788500E+02 0.  0.
         -6    2    1    2    0  503  0.40834865819E+03  0.10124645828E+03 -0.49142747524E+03  0.66946931016E+03  0.17230415509E+03 0.  0.
        -24    2    5    5    0    0  0.33791160202E+03  0.21933677229E+02 -0.36152659858E+03  0.50169498591E+03  0.79567835389E+02 0.  0.
          5    1    3    3  501    0 -0.26350651212E+03 -0.28583524767E+02 -0.61999033318E+02  0.27224744250E+03  0.47000000000E+01 0. -1.
        -11    1    4    4    0    0 -0.11023337484E+03 -0.87356479570E+02  0.16228648174E+02  0.14158361654E+03  0.00000000000E+00 0.  1.
         12    1    4    4    0    0 -0.34608771237E+02  0.14693546054E+02  0.18270189104E+02  0.41802717042E+02  0.00000000000E+00 0. -1.
         -5    1    5    5    0  503  0.70437056176E+02  0.79312781054E+02 -0.12990087666E+03  0.16777432425E+03  0.47000000000E+01 0.  1.
         11    1    6    6    0    0  0.10881625720E+03  0.22831689677E+02 -0.16976347243E+03  0.20293324137E+03  0.00000000000E+00 0. -1.
        -12    1    6    6    0    0  0.22909534482E+03 -0.89801244828E+00 -0.19176312615E+03  0.29876174454E+03  0.00000000000E+00 0.  1.
</event>
<event>
12    1  0.9028446E-003  0.4641466E+03  0.7818608E-02  0.1023735E+00
         21   -1    0    0  501  502  0.00000000000E+00  0.00000000000E+00  0.98061855767E+02  0.98061855767E+02  0.00000000000E+00 0.  1.
         21   -1    0    0  502  503 -0.00000000000E+00 -0.00000000000E+00 -0.22409982707E+04  0.22409982707E+04  0.00000000000E+00 0. -1.
          6    2    1    2  501    0 -0.42996857790E+03 -0.18426650762E+02 -0.12506046153E+04  0.13332330563E+04  0.16818430056E+03 0.  0.
         24    2    3    3    0    0 -0.20141848120E+03  0.47845273461E+02 -0.54751403007E+03  0.59094902994E+03  0.81182313941E+02 0.  0.
         -6    2    1    2    0  503  0.42996857790E+03  0.18426650762E+02 -0.89233179962E+03  0.10058270702E+04  0.17383766900E+03 0.  0.
        -24    2    5    5    0    0  0.27147229439E+03  0.20470326749E+02 -0.70504305853E+03  0.76042044637E+03  0.83888616504E+02 0.  0.
          5    1    3    3  501    0 -0.22855009669E+03 -0.66271924223E+02 -0.70309058528E+03  0.74228402633E+03  0.47000000000E+01 0. -1.
        -13    1    4    4    0    0 -0.74664241184E+02  0.57503983782E+02 -0.26126136642E+03  0.27773901175E+03  0.00000000000E+00 0.  1.
         14    1    4    4    0    0 -0.12675424002E+03 -0.96587103208E+01 -0.28625266365E+03  0.31321001819E+03  0.00000000000E+00 0. -1.
         -5    1    5    5    0  503  0.15849628351E+03 -0.20436759868E+01 -0.18728874109E+03  0.24540662386E+03  0.47000000000E+01 0.  1.
         11    1    6    6    0    0  0.26570739891E+03  0.96009212694E+01 -0.62161582175E+03  0.67609084402E+03  0.00000000000E+00 0. -1.
        -12    1    6    6    0    0  0.57648954871E+01  0.10869405479E+02 -0.83427236784E+02  0.84329602352E+02  0.00000000000E+00 0.  1.
</event>
<event>
12    1  0.9028446E-003  0.2704530E+03  0.7818608E-02  0.1101089E+00
         21   -1    0    0  503  502  0.00000000000E+00  0.00000000000E+00  0.73257915473E+02  0.73257915473E+02  0.00000000000E+00 0.  1.
         21   -1    0    0  501  503 -0.00000000000E+00 -0.00000000000E+00 -0.10350207900E+04  0.10350207900E+04  0.00000000000E+00 0. -1.
          6    2    1    2  501    0  0.23853170044E+02  0.20603964616E+03 -0.58794432450E+03  0.64716563142E+03  0.17356127526E+03 0.  0.
         24    2    3    3    0    0  0.96662390124E+01  0.12673467454E+03 -0.19563923744E+03  0.24664607027E+03  0.80027862916E+02 0.  0.
         -6    2    1    2    0  502 -0.23853170044E+02 -0.20603964616E+03 -0.37381854998E+03  0.46111307400E+03  0.17281102163E+03 0.  0.
        -24    2    5    5    0    0 -0.81232239689E+02 -0.12659628176E+03 -0.20615574715E+03  0.26685419715E+03  0.78010737321E+02 0.  0.
          5    1    3    3  501    0  0.14186931032E+02  0.79304971616E+02 -0.39230508706E+03  0.40051956116E+03  0.47000000000E+01 0. -1.
        -11    1    4    4    0    0  0.16165085746E+02  0.12913111671E+03 -0.19988879061E+03  0.23851977677E+03  0.00000000000E+00 0.  1.
         12    1    4    4    0    0 -0.64988467339E+01 -0.23964421631E+01  0.42495531658E+01  0.81262934984E+01  0.00000000000E+00 0. -1.
         -5    1    5    5    0  502  0.57379069645E+02 -0.79443364400E+02 -0.16766280283E+03  0.19425887685E+03  0.47000000000E+01 0.  1.
         13    1    6    6    0    0 -0.19799488305E+02 -0.66883576251E+02 -0.14710147193E+03  0.16280133769E+03  0.00000000000E+00 0. -1.
        -14    1    6    6    0    0 -0.61432751385E+02 -0.59712705510E+02 -0.59054275218E+02  0.10405285947E+03  0.00000000000E+00 0.  1.
</event>
<event>
12    1  0.9028446E-003  0.2312337E+03  0.7818608E-02  0.1126984E+00
         21   -1    0    0  503  502  0.00000000000E+00  0.00000000000E+00  0.10305783771E+04  0.10305783771E+04  0.00000000000E+00 0. -1.
         21   -1    0    0  501  503 -0.00000000000E+00 -0.00000000000E+00 -0.57728740649E+02  0.57728740649E+02  0.00000000000E+00 0. -1.
          6    2    1    2  501    0  0.79032668723E+02 -0.12089105374E+03  0.28575450520E+03  0.36334593146E+03  0.17176675773E+03 0.  0.
         24    2    3    3    0    0  0.55923133321E+02 -0.15140905848E+03  0.19801454146E+03  0.26750340187E+03  0.79348670761E+02 0.  0.
         -6    2    1    2    0  502 -0.79032668723E+02  0.12089105374E+03  0.68709513128E+03  0.72496118633E+03  0.18057738687E+03 0.  0.
        -24    2    5    5    0    0 -0.69084134045E+02  0.61454519056E+02  0.19949213410E+03  0.23362581424E+03  0.78959698736E+02 0.  0.
          5    1    3    3  501    0  0.23109535402E+02  0.30518004740E+02  0.87739963744E+02  0.95842529587E+02  0.47000000000E+01 0. -1.
        -13    1    4    4    0    0  0.38296263190E+02 -0.91594673869E+02  0.17468339003E+03  0.20092405234E+03  0.00000000000E+00 0.  1.
         14    1    4    4    0    0  0.17626870130E+02 -0.59814384613E+02  0.23331151433E+02  0.66579349535E+02  0.00000000000E+00 0. -1.
         -5    1    5    5    0  502 -0.99485346776E+01  0.59436534688E+02  0.48760299718E+03  0.49133537208E+03  0.47000000000E+01 0.  1.
         13    1    6    6    0    0 -0.59607376033E+02  0.64671971442E+01  0.13872266273E+03  0.15112524962E+03  0.00000000000E+00 0. -1.
        -14    1    6    6    0    0 -0.94767580123E+01  0.54987321912E+02  0.60769471366E+02  0.82500564625E+02  0.00000000000E+00 0.  1.
</event>
<event>
12    1  0.9028446E-003  0.2482239E+03  0.7818608E-02  0.1114612E+00
         21   -1    0    0  501  502  0.00000000000E+00  0.00000000000E+00  0.28627816060E+03  0.28627816060E+03  0.00000000000E+00 0. -1.
         21   -1    0    0  502  503 -0.00000000000E+00 -0.00000000000E+00 -0.21798610246E+03  0.21798610246E+03  0.00000000000E+00 0. -1.
          6    2    1    2  501    0  0.17019960242E+03 -0.51028030176E+02  0.67217291706E+02  0.25716388748E+03  0.17333013642E+03 0.  0.
         24    2    3    3    0    0  0.18139089619E+03 -0.61814107130E+01  0.37505391816E+02  0.20201543938E+03  0.80391021097E+02 0.  0.
         -6    2    1    2    0  503 -0.17019960242E+03  0.51028030176E+02  0.10747664369E+01  0.24710037557E+03  0.17171393641E+03 0.  0.
        -24    2    5    5    0    0 -0.19207151428E+03  0.59622227842E+02 -0.16200596632E+02  0.21755771268E+03  0.81379495984E+02 0.  0.
          5    1    3    3  501    0 -0.11191293767E+02 -0.44846619463E+02  0.29711899890E+02  0.55148448106E+02  0.47000000000E+01 0. -1.
        -11    1    4    4    0    0  0.47685970936E+02  0.47699769927E+01  0.47519769035E+02  0.67489502545E+02  0.00000000000E+00 0.  1.
         12    1    4    4    0    0  0.13370492525E+03 -0.10951387706E+02 -0.10014377219E+02  0.13452593683E+03  0.00000000000E+00 0. -1.
         -5    1    5    5    0  503  0.21871911855E+02 -0.85941976657E+01  0.17275363069E+02  0.29542662894E+02  0.47000000000E+01 0.  1.
         11    1    6    6    0    0 -0.13106416521E+03  0.56229792463E+02  0.23712861573E+02  0.14457491058E+03  0.00000000000E+00 0. -1.
        -12    1    6    6    0    0 -0.61007349061E+02  0.33924353790E+01 -0.39913458205E+02  0.72982802106E+02  0.00000000000E+00 0.  1.
</event>
<event>
12    1  0.9028446E-003  0.2369463E+03  0.7818608E-02  0.1122000E+00
         21   -1    0    0  503  502  0.00000000000E+00  0.00000000000E+00  0.37526945240E+03  0.37526945240E+03  0.00000000000E+00 0.  1.
         21   -1    0    0  501  503 -0.00000000000E+00 -0.00000000000E+00 -0.14947861019E+03  0.14947861019E+03  0.00000000000E+00 0.  1.
          6    2    1    2  501    0 -0.15075318104E+03 -0.59178513637E+02  0.98255790749E+02  0.25565932109E+03  0.17169411747E+03 0.  0.
         24    2    3    3    0    0 -0.11086752724E+03 -0.10514719090E+02  0.12629881256E+03  0.18661200868E+03  0.80439317590E+02 0.  0.
         -6    2    1    2    0  502  0.15075318104E+03  0.59178513637E+02  0.12753505146E+03  0.26908874150E+03  0.17295936917E+03 0.  0.
        -24    2    5    5    0    0  0.14229855509E+03 -0.14407462966E+02  0.55884968815E+02  0.16592769752E+03  0.62868253466E+02 0.  0.
          5    1    3    3  501    0 -0.39885653796E+02 -0.48663794547E+02 -0.28043021811E+02  0.69047312408E+02  0.47000000000E+01 0. -1.
        -11    1    4    4    0    0 -0.49772034327E+02 -0.45000540433E+02  0.57813503329E+02  0.88570340450E+02  0.00000000000E+00 0.  1.
         12    1    4    4    0    0 -0.61095492918E+02  0.34485821344E+02  0.68485309230E+02  0.98041668228E+02  0.00000000000E+00 0. -1.
         -5    1    5    5    0  502  0.84546259461E+01  0.73585976603E+02  0.71650082642E+02  0.10316104398E+03  0.47000000000E+01 0.  1.
         11    1    6    6    0    0  0.12682106678E+03  0.87284520580E+01  0.53726934531E+02  0.13800852274E+03  0.00000000000E+00 0. -1.
        -12    1    6    6    0    0  0.15477488315E+02 -0.23135915024E+02  0.21580342841E+01  0.27919174782E+02  0.00000000000E+00 0.  1.
</event>
<event>
12    1  0.9028446E-003  0.1949892E+03  0.7818608E-02  0.1154225E+00
         21   -1    0    0  501  502  0.00000000000E+00  0.00000000000E+00  0.87435190969E+03  0.87435190969E+03  0.00000000000E+00 0.  1.
         21   -1    0    0  502  503 -0.00000000000E+00 -0.00000000000E+00 -0.67963094734E+02  0.67963094734E+02  0.00000000000E+00 0.  1.
          6    2    1    2  501    0  0.51117896801E+02 -0.75463768449E+02  0.68649442401E+03  0.71341445483E+03  0.17139944704E+03 0.  0.
         24    2    3    3    0    0  0.51147954223E+02  0.13841326443E+02  0.23821177402E+03  0.25629868704E+03  0.78335637870E+02 0.  0.
         -6    2    1    2    0  503 -0.51117896801E+02  0.75463768449E+02  0.11989439095E+03  0.22890054959E+03  0.17237452510E+03 0.  0.
        -24    2    5    5    0    0  0.12700884899E+02 -0.39024164243E+01  0.93996575092E+02  0.12371207558E+03  0.79327045733E+02 0.  0.
          5    1    3    3  501    0 -0.30057421922E-01 -0.89305094891E+02  0.44828264999E+03  0.45711576779E+03  0.47000000000E+01 0. -1.
        -11    1    4    4    0    0 -0.11251681561E+02 -0.18513195333E+02  0.85259572834E+02  0.87968934853E+02  0.00000000000E+00 0.  1.
         12    1    4    4    0    0  0.62399635784E+02  0.32354521776E+02  0.15295220118E+03  0.16832975219E+03  0.00000000000E+00 0. -1.
         -5    1    5    5    0  503 -0.63818781699E+02  0.79366184873E+02  0.25897815856E+02  0.10518847401E+03  0.47000000000E+01 0.  1.
         11    1    6    6    0    0  0.28191820422E+02  0.31206909512E+02  0.49569102365E+02  0.65005737049E+02  0.00000000000E+00 0. -1.
        -12    1    6    6    0    0 -0.15490935523E+02 -0.35109325936E+02  0.44427472727E+02  0.58706338533E+02  0.00000000000E+00 0.  1.
</event>
<event>
12    1  0.9028446E-003  0.1790748E+03  0.7818608E-02  0.1169244E+00
         21   -1    0    0  503  502  0.00000000000E+00  0.00000000000E+00  0.31331516901E+03  0.31331516901E+03  0.00000000000E+00 0. -1.
         21   -1    0    0  501  503 -0.00000000000E+00 -0.00000000000E+00 -0.10530749097E+03  0.10530749097E+03  0.00000000000E+00 0. -1.
          6    2    1    2  501    0  0.30510999935E+01  0.41317617178E+02  0.14527069845E+03  0.22887620806E+03  0.17194268838E+03 0.  0.
         24    2    3    3    0    0 -0.89839458432E+01  0.83693951639E+02  0.14383095275E+03  0.18455060690E+03  0.79285526497E+02 0.  0.
         -6    2    1    2    0  502 -0.30510999935E+01 -0.41317617178E+02  0.62736979600E+02  0.18974645192E+03  0.17421633881E+03 0.  0.
        -24    2    5    5    0    0 -0.60848678816E+01 -0.40523168054E+02  0.11021522843E+03  0.14193317962E+03  0.79488855397E+02 0.  0.
          5    1    3    3  501    0  0.12035045837E+02 -0.42376334461E+02  0.14397456936E+01  0.44325601161E+02  0.47000000000E+01 0. -1.
        -13    1    4    4    0    0  0.19178943473E+02  0.36360597392E+02  0.11553222089E+03  0.12262796981E+03  0.00000000000E+00 0.  1.
         14    1    4    4    0    0 -0.28162889317E+02  0.47333354247E+02  0.28298731865E+02  0.61922637089E+02  0.00000000000E+00 0. -1.
         -5    1    5    5    0  502  0.30337678881E+01 -0.79444912426E+00 -0.47478248828E+02  0.47813272308E+02  0.47000000000E+01 0.  1.
         13    1    6    6    0    0  0.15018301625E+02 -0.58501630151E+02  0.86204418221E+02  0.10525774002E+03  0.00000000000E+00 0. -1.
        -14    1    6    6    0    0 -0.21103169506E+02  0.17978462097E+02  0.24010810207E+02  0.36675439593E+02  0.00000000000E+00 0.  1.
</event>
<event>
12    1  0.9028446E-003  0.1746902E+03  0.7818608E-02  0.1173221E+00
         21   -1    0    0  501  502  0.00000000000E+00  0.00000000000E+00  0.48158495545E+03  0.48158495545E+03  0.00000000000E+00 0. -1.
         21   -1    0    0  502  503 -0.00000000000E+00 -0.00000000000E+00 -0.97645594123E+02  0.97645594123E+02  0.00000000000E+00 0. -1.
          6    2    1    2  501    0  0.73474464399E+01  0.26127320888E+02  0.36395215155E+03  0.40340063303E+03  0.17185540506E+03 0.  0.
         24    2    3    3    0    0  0.42112136616E+02  0.58674817949E+02  0.16224851603E+03  0.19609802854E+03  0.83148599094E+02 0.  0.
         -6    2    1    2    0  503 -0.73474464399E+01 -0.26127320888E+02  0.19987209776E+02  0.17582991654E+03  0.17256896920E+03 0.  0.
        -24    2    5    5    0    0  0.21807277057E+02 -0.71758493417E+02  0.41841581140E+02  0.11724745025E+03  0.79821099766E+02 0.  0.
          5    1    3    3  501    0 -0.34764690176E+02 -0.32547497062E+02  0.20170363552E+03  0.20730260449E+03  0.47000000000E+01 0. -1.
        -11    1    4    4    0    0  0.25395711875E+02  0.24207064715E+02  0.64669219148E+01  0.35675555256E+02  0.00000000000E+00 0.  1.
         12    1    4    4    0    0  0.16716424740E+02  0.34467753235E+02  0.15578159412E+03  0.16042247328E+03  0.00000000000E+00 0. -1.
         -5    1    5    5    0  503 -0.29154723497E+02  0.45631172529E+02 -0.21854371365E+02  0.58582466287E+02  0.47000000000E+01 0.  1.
         11    1    6    6    0    0  0.23991622793E+02 -0.39740119247E+02  0.63406124838E+02  0.78582515288E+02  0.00000000000E+00 0. -1.
        -12    1    6    6    0    0 -0.21843457364E+01 -0.32018374170E+02 -0.21564543698E+02  0.38664934963E+02  0.00000000000E+00 0.  1.
</event>
<event>
12    1  0.9028446E-003  0.2096996E+03  0.7818608E-02  0.1142738E+00
         21   -1    0    0  501  502  0.00000000000E+00  0.00000000000E+00  0.16008013849E+04  0.16008013849E+04  0.00000000000E+00 0.  1.
         21   -1    0    0  502  503 -0.00000000000E+00 -0.00000000000E+00 -0.31918757421E+02  0.31918757421E+02  0.00000000000E+00 0. -1.
          6    2    1    2  501    0  0.24026473065E+02  0.11431077519E+03  0.46699694738E+03  0.51191804420E+03  0.17415427178E+03 0.  0.
         24    2    3    3    0    0  0.34093500387E+02  0.97475093274E+02  0.47303064663E+03  0.49086381063E+03  0.80780736297E+02 0.  0.
         -6    2    1    2    0  503 -0.24026473065E+02 -0.11431077519E+03  0.11018856801E+04  0.11208020981E+04  0.16852615947E+03 0.  0.
        -24    2    5    5    0    0  0.37936505436E+02 -0.10017699265E+03  0.87410065568E+03  0.88427032042E+03  0.80046455394E+02 0.  0.
          5    1    3    3  501    0 -0.10067027322E+02  0.16835681911E+02 -0.60336992482E+01  0.21054233568E+02  0.47000000000E+01 0. -1.
        -13    1    4    4    0    0  0.33589614220E+02  0.98418307803E+02  0.29435050638E+03  0.31218047040E+03  0.00000000000E+00 0.  1.
         14    1    4    4    0    0  0.50388616742E+00 -0.94321452907E+00  0.17868014025E+03  0.17868334023E+03  0.00000000000E+00 0. -1.
         -5    1    5    5    0  503 -0.61962978501E+02 -0.14133782535E+02  0.22778502443E+03  0.23653177771E+03  0.47000000000E+01 0.  1.
         13    1    6    6    0    0  0.16051795173E+02 -0.74114361892E+02  0.78871796439E+03  0.79235511365E+03  0.00000000000E+00 0. -1.
        -14    1    6    6    0    0  0.21884710263E+02 -0.26062630758E+02  0.85382691285E+02  0.91915206774E+02  0.00000000000E+00 0.  1.
</event>
<event>
12    1  0.9028446E-003  0.1869269E+03  0.7818608E-02  0.1164427E+00
         21   -1    0    0  501  502  0.00000000000E+00  0.00000000000E+00  0.58729309528E+03  0.58729309528E+03  0.00000000000E+00 0. -1.
         21   -1    0    0  502  503 -0.00000000000E+00 -0.00000000000E+00 -0.70252445945E+02  0.70252445945E+02  0.00000000000E+00 0. -1.
          6    2    1    2  501    0 -0.13630968329E+02  0.33179176273E+02  0.41724587343E+03  0.45720431144E+03  0.18345299798E+03 0.  0.
         24    2    3    3    0    0 -0.56047619341E+02 -0.54841507816E+01  0.12486081119E+03  0.15920239909E+03  0.81140434815E+02 0.  0.
         -6    2    1    2    0  503  0.13630968329E+02 -0.33179176273E+02  0.99794775906E+02  0.20034122979E+03  0.16997338032E+03 0.  0.
        -24    2    5    5    0    0 -0.11973838862E+02 -0.23252854252E+02 -0.12689150544E+02  0.84458264128E+02  0.79297640508E+02 0.  0.
          5    1    3    3  501    0  0.42416651012E+02  0.38663327055E+02  0.29238506224E+03  0.29800191235E+03  0.47000000000E+01 0. -1.
        -11    1    4    4    0    0 -0.56484146871E+01  0.64621148565E+01 -0.10913407650E+02  0.13884018994E+02  0.00000000000E+00 0.  1.
         12    1    4    4    0    0 -0.50399204654E+02 -0.11946265638E+02  0.13577421884E+03  0.14531838010E+03  0.00000000000E+00 0. -1.
         -5    1    5    5    0  503  0.25604807191E+02 -0.99263220212E+01  0.11248392645E+03  0.11588296566E+03  0.47000000000E+01 0.  1.
         13    1    6    6    0    0 -0.13655228855E+02 -0.51102796494E+02  0.19870788049E+01  0.52933066856E+02  0.00000000000E+00 0. -1.
        -14    1    6    6    0    0  0.16813899934E+01  0.27849942242E+02 -0.14676229348E+02  0.31525197273E+02  0.00000000000E+00 0.  1.
</event>
<event>
12    1  0.9028446E-003  0.1888659E+03  0.7818608E-02  0.1159561E+00
         21   -1    0    0  503  502  0.00000000000E+00  0.00000000000E+00  0.10399065033E+04  0.10399065033E+04  0.00000000000E+00 0. -1.
         21   -1    0    0  501  503 -0.00000000000E+00 -0.00000000000E+00 -0.42740980104E+02  0.42740980104E+02  0.00000000000E+00 0. -1.
          6    2    1    2  501    0 -0.61324482490E+02  0.44477100827E+02  0.25755300914E+03  0.31938046233E+03  0.17300700144E+03 0.  0.
         24    2    3    3    0    0 -0.95342101055E+02 -0.55129559880E+01  0.20284180471E+03  0.23770053796E+03  0.78969861938E+02 0.  0.
         -6    2    1    2    0  502  0.61324482490E+02 -0.44477100827E+02  0.73961251405E+03  0.76326702107E+03  0.17265853546E+03 0.  0.
        -24    2    5    5    0    0  0.15183215584E+02 -0.23118683069E+01  0.64289777832E+03  0.64801619265E+03  0.79822038279E+02 0.  0.
          5    1    3    3  501    0  0.34017618564E+02  0.49990056815E+02  0.54711204434E+02  0.81679924362E+02  0.47000000000E+01 0. -1.
        -11    1    4    4    0    0 -0.34985784702E+02  0.29396656789E+02  0.12554429987E+03  0.13360216986E+03  0.00000000000E+00 0.  1.
         12    1    4    4    0    0 -0.60356316353E+02 -0.34909612777E+02  0.77297504840E+02  0.10409836811E+03  0.00000000000E+00 0. -1.
         -5    1    5    5    0  502  0.46141266906E+02 -0.42165232520E+02  0.96714735730E+02  0.11525082842E+03  0.47000000000E+01 0.  1.
         13    1    6    6    0    0  0.21271754324E+02 -0.30499266744E+02  0.16024711369E+03  0.16450480312E+03  0.00000000000E+00 0. -1.
        -14    1    6    6    0    0 -0.60885387400E+01  0.28187398437E+02  0.48265066463E+03  0.48351138952E+03  0.00000000000E+00 0.  1.
</event>
<event>
12    1  0.9028446E-003  0.1798802E+03  0.7818608E-02  0.1168160E+00
         21   -1    0    0  501  502  0.00000000000E+00  0.00000000000E+00  0.75059959849E+02  0.75059959849E+02  0.00000000000E+00 0.  1.
         21   -1    0    0  502  503 -0.00000000000E+00 -0.00000000000E+00 -0.44001852998E+03  0.44001852998E+03  0.00000000000E+00 0.  1.
          6    2    1    2  501    0 -0.50981937182E+02 -0.12282885831E+02 -0.14167239225E+03  0.22897154107E+03  0.17206647754E+03 0.  0.
         24    2    3    3    0    0 -0.85530507013E+02 -0.51072341273E+02 -0.10283623725E+03  0.16394414327E+03  0.79865754527E+02 0.  0.
         -6    2    1    2    0  503  0.50981937182E+02  0.12282885831E+02 -0.22328617788E+03  0.28610694875E+03  0.17102760505E+03 0.  0.
        -24    2    5    5    0    0 -0.22549766950E+02 -0.21820002276E+02 -0.63858333908E+02  0.10719566928E+03  0.80177429575E+02 0.  0.
          5    1    3    3  501    0  0.34548569831E+02  0.38789455441E+02 -0.38836154996E+02  0.65027397808E+02  0.47000000000E+01 0. -1.
        -11    1    4    4    0    0 -0.35873513093E+02  0.19520150859E+02 -0.26198619292E+02  0.48521262185E+02  0.00000000000E+00 0.  1.
         12    1    4    4    0    0 -0.49656993921E+02 -0.70592492132E+02 -0.76637617959E+02  0.11542288108E+03  0.00000000000E+00 0. -1.
         -5    1    5    5    0  503  0.73531704132E+02  0.34102888107E+02 -0.15942784397E+03  0.17891127948E+03  0.47000000000E+01 0.  1.
         13    1    6    6    0    0 -0.16072267515E+02 -0.23688120452E+02 -0.82525056209E+02  0.87348896593E+02  0.00000000000E+00 0. -1.
        -14    1    6    6    0    0 -0.64774994353E+01  0.18681181762E+01  0.18666722302E+02  0.19846772683E+02  0.00000000000E+00 0.  1.
</event>
<event>
12    1  0.9028446E-003  0.2194628E+03  0.7818608E-02  0.1134458E+00
         21   -1    0    0  501  502  0.00000000000E+00  0.00000000000E+00  0.14655971707E+03  0.14655971707E+03  0.00000000000E+00 0.  1.
         21   -1    0    0  502  503 -0.00000000000E+00 -0.00000000000E+00 -0.36832582526E+03  0.36832582526E+03  0.00000000000E+00 0.  1.
          6    2    1    2  501    0 -0.63189245744E+02 -0.11859070766E+03 -0.19665287988E+03  0.29399058299E+03  0.17234114715E+03 0.  0.
         24    2    3    3    0    0 -0.87795338598E+02 -0.14099103359E+03 -0.18275843494E+03  0.25762603972E+03  0.73376002655E+02 0.  0.
         -6    2    1    2    0  503  0.63189245744E+02  0.11859070766E+03 -0.25113228304E+02  0.22089495934E+03  0.17351447233E+03 0.  0.
        -24    2    5    5    0    0  0.42927265818E+02  0.72104609267E+01 -0.51737257908E+02  0.10450322362E+03  0.79683367107E+02 0.  0.
          5    1    3    3  501    0  0.24606092854E+02  0.22400325934E+02 -0.13894444940E+02  0.36364543276E+02  0.47000000000E+01 0. -1.
        -11    1    4    4    0    0 -0.58314630071E+02 -0.66899538495E+02 -0.47623671565E+02  0.10071821297E+03  0.00000000000E+00 0.  1.
         12    1    4    4    0    0 -0.29480708527E+02 -0.74091495095E+02 -0.13513476338E+03  0.15690782674E+03  0.00000000000E+00 0. -1.
         -5    1    5    5    0  503  0.20261979927E+02  0.11138024673E+03  0.26624029605E+02  0.11639173572E+03  0.47000000000E+01 0.  1.
         11    1    6    6    0    0 -0.61070683601E+01  0.11167454921E+02  0.16214547089E+02  0.20613584615E+02  0.00000000000E+00 0. -1.
        -12    1    6    6    0    0  0.49034334178E+02 -0.39569939947E+01 -0.67951804998E+02  0.83889639004E+02  0.00000000000E+00 0.  1.
</event>
<event>
12    1  0.9028446E-003  0.1923867E+03  0.7818608E-02  0.1157547E+00
         21   -1    0    0  501  502  0.00000000000E+00  0.00000000000E+00  0.65057813515E+03  0.65057813515E+03  0.00000000000E+00 0. -1.
         21   -1    0    0  502  503 -0.00000000000E+00 -0.00000000000E+00 -0.59864207736E+02  0.59864207736E+02  0.00000000000E+00 0. -1.
          6    2    1    2  501    0 -0.84339731192E+01  0.85698019557E+02  0.19338587168E+03  0.26898767850E+03  0.16595479312E+03 0.  0.
         24    2    3    3    0    0 -0.41548372869E+02  0.11203444886E+03  0.13943925050E+03  0.20026723819E+03  0.79910431688E+02 0.  0.
         -6    2    1    2    0  503  0.84339731192E+01 -0.85698019557E+02  0.39732805573E+03  0.44145466439E+03  0.17203881649E+03 0.  0.
        -24    2    5    5    0    0  0.50722690259E+02 -0.10558341378E+03  0.33118335434E+03  0.36033144932E+03  0.80222756169E+02 0.  0.
          5    1    3    3  501    0  0.33114399750E+02 -0.26336429301E+02  0.53946621181E+02  0.68720440307E+02  0.47000000000E+01 0. -1.
        -11    1    4    4    0    0 -0.99660506546E+01  0.59561866073E+02  0.12273290113E+03  0.13678560990E+03  0.00000000000E+00 0.  1.
         12    1    4    4    0    0 -0.31582322215E+02  0.52472582785E+02  0.16706349366E+02  0.63481628285E+02  0.00000000000E+00 0. -1.
         -5    1    5    5    0  503 -0.42288717140E+02  0.19885394218E+02  0.66144701394E+02  0.81123215068E+02  0.47000000000E+01 0.  1.
         11    1    6    6    0    0 -0.14102844626E+02 -0.21177208848E+02  0.23033747189E+02  0.34320808713E+02  0.00000000000E+00 0. -1.
        -12    1    6    6    0    0  0.64825534885E+02 -0.84406204927E+02  0.30814960715E+03  0.32601064061E+03  0.00000000000E+00 0.  1.
</event>
<event>
12    1  0.9028446E-003  0.1773406E+03  0.7818608E-02  0.1170615E+00
         21   -1    0    0  503  502  0.00000000000E+00  0.00000000000E+00  0.42557679309E+02  0.42557679309E+02  0.00000000000E+00 0. -1.
         21   -1    0    0  501  503 -0.00000000000E+00 -0.00000000000E+00 -0.10604944650E+04  0.10604944650E+04  0.00000000000E+00 0. -1.
          6    2    1    2  501    0  0.44050736490E+02  0.24631714893E+01 -0.81346804225E+03  0.83239153813E+03  0.17087680470E+03 0.  0.
         24    2    3    3    0    0  0.24113491768E+02 -0.22216281444E+02 -0.19688393684E+03  0.21497383660E+03  0.79846366152E+02 0.  0.
         -6    2    1    2    0  502 -0.44050736490E+02 -0.24631714893E+01 -0.20446874348E+03  0.27066060622E+03  0.17176484536E+03 0.  0.
        -24    2    5    5    0    0 -0.18242176822E+02  0.17485750620E+02 -0.23362280420E+02  0.86579965719E+02  0.79446622505E+02 0.  0.
          5    1    3    3  501    0  0.19937244722E+02  0.24679452933E+02 -0.61658410541E+03  0.61741770153E+03  0.47000000000E+01 0. -1.
        -11    1    4    4    0    0  0.17442369008E+02  0.29445972430E+02 -0.77671309537E+02  0.84877169216E+02  0.00000000000E+00 0.  1.
         12    1    4    4    0    0  0.66711227601E+01 -0.51662253874E+02 -0.11921262731E+03  0.13009666738E+03  0.00000000000E+00 0. -1.
         -5    1    5    5    0  502 -0.25808559668E+02 -0.19948922110E+02 -0.18110646306E+03  0.18408064050E+03  0.47000000000E+01 0.  1.
         13    1    6    6    0    0 -0.10076982135E+02  0.48600012577E+02 -0.22250545314E+02  0.54392955042E+02  0.00000000000E+00 0. -1.
        -14    1    6    6    0    0 -0.81651946867E+01 -0.31114261957E+02 -0.11117351064E+01  0.32187010677E+02  0.00000000000E+00 0.  1.
</event>
<event>
12    1  0.9028446E-003  0.1860076E+03  0.7818608E-02  0.1162697E+00
         21   -1    0    0  501  502  0.00000000000E+00  0.00000000000E+00  0.12264537090E+03  0.12264537090E+03  0.00000000000E+00 0. -1.
         21   -1    0    0  502  503 -0.00000000000E+00 -0.00000000000E+00 -0.29340310666E+03  0.29340310666E+03  0.00000000000E+00 0. -1.
          6    2    1    2  501    0 -0.33283079201E+02  0.46598535064E+02 -0.37667977373E+02  0.18733097466E+03  0.17434113317E+03 0.  0.
         24    2    3    3    0    0  0.39595216920E+02  0.35137072990E+02 -0.60903093888E+02  0.10984180253E+03  0.74522745764E+02 0.  0.
         -6    2    1    2    0  503  0.33283079201E+02 -0.46598535064E+02 -0.13308975838E+03  0.22871750290E+03  0.17697351642E+03 0.  0.
        -24    2    5    5    0    0 -0.24658652701E+02 -0.56321522134E+02 -0.13565183414E+03  0.16972229118E+03  0.81388408323E+02 0.  0.
          5    1    3    3  501    0 -0.72878296120E+02  0.11461462074E+02  0.23235116515E+02  0.77489172132E+02  0.47000000000E+01 0. -1.
        -11    1    4    4    0    0  0.31076727334E+02  0.26914736158E+02 -0.78511029087E+02  0.88623629426E+02  0.00000000000E+00 0.  1.
         12    1    4    4    0    0  0.85184895855E+01  0.82223368321E+01  0.17607935199E+02  0.21218173102E+02  0.00000000000E+00 0. -1.
         -5    1    5    5    0  503  0.57941731902E+02  0.97229870704E+01  0.25620757586E+01  0.58995211717E+02  0.47000000000E+01 0.  1.
         11    1    6    6    0    0 -0.23497451476E+02 -0.57641258544E+02 -0.14626768449E+03  0.15896188360E+03  0.00000000000E+00 0. -1.
        -12    1    6    6    0    0 -0.11612012257E+01  0.13197364098E+01  0.10615850353E+02  0.10760407575E+02  0.00000000000E+00 0.  1.
</event>
<event>
12    1  0.9028446E-003  0.2677891E+03  0.7818608E-02  0.1103963E+00
         21   -1    0    0  501  502  0.00000000000E+00  0.00000000000E+00  0.48128370228E+02  0.48128370228E+02  0.00000000000E+00 0. -1.
         21   -1    0    0  502  503 -0.00000000000E+00 -0.00000000000E+00 -0.19221229831E+04  0.19221229831E+04  0.00000000000E+00 0. -1.
          6    2    1    2  501    0 -0.65334908224E+02 -0.19305373650E+03 -0.45500030382E+03  0.52795483002E+03  0.17370270767E+03 0.  0.
         24    2    3    3    0    0 -0.93197169675E+02 -0.13877265226E+03 -0.41553428528E+03  0.45513726113E+03  0.80855567376E+02 0.  0.
         -6    2    1    2    0  503  0.65334908224E+02  0.19305373650E+03 -0.14189943091E+04  0.14422965233E+04  0.15854342190E+03 0.  0.
        -24    2    5    5    0    0  0.75158427762E+02  0.20739476868E+03 -0.13744857296E+04  0.13942832919E+04  0.78444235144E+02 0.  0.
          5    1    3    3  501    0  0.27862261451E+02 -0.54281084238E+02 -0.39466018544E+02  0.72817568889E+02  0.47000000000E+01 0. -1.
        -13    1    4    4    0    0 -0.30135141146E+02 -0.47612753498E+01 -0.12935003477E+03  0.13289931516E+03  0.00000000000E+00 0.  1.
         14    1    4    4    0    0 -0.63062028529E+02 -0.13401137691E+03 -0.28618425050E+03  0.32223794596E+03  0.00000000000E+00 0. -1.
         -5    1    5    5    0  503 -0.98235195385E+01 -0.14341032184E+02 -0.44508579506E+02  0.48013231404E+02  0.47000000000E+01 0.  1.
         11    1    6    6    0    0  0.81253633070E+02  0.11112741841E+03 -0.81053689085E+03  0.82214445655E+03  0.00000000000E+00 0. -1.
        -12    1    6    6    0    0 -0.60952053080E+01  0.96267350276E+02 -0.56394883872E+03  0.57213883538E+03  0.00000000000E+00 0.  1.
</event>
<event>
12    1  0.9028446E-003  0.1715092E+03  0.7818608E-02  0.1176311E+00
         21   -1    0    0  503  502  0.00000000000E+00  0.00000000000E+00  0.17528458314E+04  0.17528458314E+04  0.00000000000E+00 0.  1.
         21   -1    0    0  501  503 -0.00000000000E+00 -0.00000000000E+00 -0.20273319802E+02  0.20273319802E+02  0.00000000000E+00 0.  1.
          6    2    1    2  501    0  0.88085455663E+01  0.36691286200E+01  0.49755635287E+03  0.52625094453E+03  0.17113351324E+03 0.  0.
         24    2    3    3    0    0 -0.51821697794E+02 -0.23982439970E+02  0.35958970442E+03  0.37296193077E+03  0.80840586877E+02 0.  0.
         -6    2    1    2    0  502 -0.88085455663E+01 -0.36691286200E+01  0.12350161587E+04  0.12468682067E+04  0.17124356781E+03 0.  0.
        -24    2    5    5    0    0 -0.48248679132E+02 -0.53753795407E+02  0.79862402810E+03  0.80581925287E+03  0.79541966719E+02 0.  0.
          5    1    3    3  501    0  0.60630243361E+02  0.27651568590E+02  0.13796664845E+03  0.15328901376E+03  0.47000000000E+01 0. -1.
        -13    1    4    4    0    0  0.12747790245E+02  0.12212820082E+02  0.27179420326E+02  0.32409566794E+02  0.00000000000E+00 0.  1.
         14    1    4    4    0    0 -0.64569488039E+02 -0.36195260052E+02  0.33241028409E+03  0.34055236397E+03  0.00000000000E+00 0. -1.
         -5    1    5    5    0  502  0.39440133566E+02  0.50084666787E+02  0.43639213060E+03  0.44104895379E+03  0.47000000000E+01 0.  1.
         13    1    6    6    0    0 -0.37833670966E+01 -0.15688868573E+02  0.55601391385E+03  0.55624808032E+03  0.00000000000E+00 0. -1.
        -14    1    6    6    0    0 -0.44465312035E+02 -0.38064926834E+02  0.24261011425E+03  0.24957117255E+03  0.00000000000E+00 0.  1.
</event>
<event>
12    1  0.9028446E-003  0.1781042E+03  0.7818608E-02  0.1169793E+00
         21   -1    0    0  501  502  0.00000000000E+00  0.00000000000E+00  0.61844825526E+02  0.61844825526E+02  0.00000000000E+00 0. -1.
         21   -1    0    0  502  503 -0.00000000000E+00 -0.00000000000E+00 -0.66321737707E+03  0.66321737707E+03  0.00000000000E+00 0. -1.
          6    2    1    2  501    0  0.38347800112E+02  0.28489736040E+02 -0.12752398208E+03  0.21905127201E+03  0.17157760615E+03 0.  0.
         24    2    3    3    0    0 -0.16442447197E+01  0.39401998477E+02 -0.14761699622E+03  0.17274511326E+03  0.80590790774E+02 0.  0.
         -6    2    1    2    0  503 -0.38347800112E+02 -0.28489736040E+02 -0.47384856946E+03  0.50601093058E+03  0.17097478251E+03 0.  0.
        -24    2    5    5    0    0 -0.85150819010E+02 -0.17701553027E+02 -0.39490578654E+03  0.41348547222E+03  0.86346097375E+02 0.  0.
          5    1    3    3  501    0  0.39992044832E+02 -0.10912262437E+02  0.20093014138E+02  0.46306158754E+02  0.47000000000E+01 0. -1.
        -13    1    4    4    0    0  0.20229769345E+02  0.16986177032E+02 -0.13722766564E+03  0.13974693555E+03  0.00000000000E+00 0.  1.
         14    1    4    4    0    0 -0.21874014065E+02  0.22415821446E+02 -0.10389330578E+02  0.32998177711E+02  0.00000000000E+00 0. -1.
         -5    1    5    5    0  503  0.46803018897E+02 -0.10788183013E+02 -0.78942782919E+02  0.92525458365E+02  0.47000000000E+01 0.  1.
         13    1    6    6    0    0 -0.30451062775E+02 -0.50324474795E+02 -0.19522348194E+03  0.20389219673E+03  0.00000000000E+00 0. -1.
        -14    1    6    6    0    0 -0.54699756235E+02  0.32622921768E+02 -0.19968230461E+03  0.20959327549E+03  0.00000000000E+00 0.  1.
</event>
<event>
12    1  0.9028446E-003  0.1734319E+03  0.7818608E-02  0.1174363E+00
         21   -1    0    0  503  502  0.00000000000E+00  0.00000000000E+00  0.33295693396E+03  0.33295693396E+03  0.00000000000E+00 0.  1.
         21   -1    0    0  501  503 -0.00000000000E+00 -0.00000000000E+00 -0.19285774927E+03  0.19285774927E+03  0.00000000000E+00 0.  1.
          6    2    1    2  501    0 -0.12589542485E+02 -0.23362607332E+02 -0.12170930052E+03  0.21187678501E+03  0.17138935262E+03 0.  0.
         24    2    3    3    0    0 -0.59298639340E+00  0.52568871688E+02 -0.57634086398E+02  0.11169080830E+03  0.79933164832E+02 0.  0.
         -6    2    1    2    0  502  0.12589542485E+02  0.23362607332E+02  0.26180848521E+03  0.31393789822E+03  0.17119875294E+03 0.  0.
        -24    2    5    5    0    0 -0.45503006042E+02  0.49120708102E+02  0.17270513292E+03  0.20439465863E+03  0.86410335123E+02 0.  0.
          5    1    3    3  501    0 -0.11996556092E+02 -0.75931479020E+02 -0.64075214125E+02  0.10018597671E+03  0.47000000000E+01 0. -1.
        -11    1    4    4    0    0 -0.22769105817E+02  0.60730095803E+02 -0.21143897600E+02  0.68217601260E+02  0.00000000000E+00 0.  1.
         12    1    4    4    0    0  0.22176119423E+02 -0.81612241149E+01 -0.36490188798E+02  0.43473207039E+02  0.00000000000E+00 0. -1.
         -5    1    5    5    0  502  0.58092548527E+02 -0.25758100770E+02  0.89103352294E+02  0.10954323959E+03  0.47000000000E+01 0.  1.
         11    1    6    6    0    0 -0.14377214010E+02 -0.20353055833E+02  0.14510947653E+02  0.28836067107E+02  0.00000000000E+00 0. -1.
        -12    1    6    6    0    0 -0.31125792032E+02  0.69473763935E+02  0.15819418526E+03  0.17555859152E+03  0.00000000000E+00 0.  1.
</event>
<event>
12    1  0.9028446E-003  0.2670564E+03  0.7818608E-02  0.1104086E+00
         21   -1    0    0  503  502  0.00000000000E+00  0.00000000000E+00  0.12449425548E+03  0.12449425548E+03  0.00000000000E+00 0.  1.
         21   -1    0    0  501  503 -0.00000000000E+00 -0.00000000000E+00 -0.55725270492E+03  0.55725270492E+03  0.00000000000E+00 0. -1.
          6    2    1    2  501    0  0.11771331303E+03 -0.16712170728E+03 -0.22262211760E+03  0.34192880766E+03  0.15990188601E+03 0.  0.
         24    2    3    3    0    0  0.20762372785E+02 -0.10487712108E+03 -0.64035571854E+02  0.14585316965E+03  0.75778004632E+02 0.  0.
         -6    2    1    2    0  502 -0.11771331303E+03  0.16712170728E+03 -0.21013633184E+03  0.33981815274E+03  0.17185170893E+03 0.  0.
        -24    2    5    5    0    0 -0.88463172202E+02  0.19275538515E+03 -0.16249644996E+03  0.27813910828E+03  0.77303919474E+02 0.  0.
          5    1    3    3  501    0  0.96950940244E+02 -0.62244586205E+02 -0.15858654575E+03  0.19607563800E+03  0.47000000000E+01 0. -1.
        -11    1    4    4    0    0  0.34899600815E+02 -0.10536576567E+03 -0.40035965138E+02  0.11799493725E+03  0.00000000000E+00 0.  1.
         12    1    4    4    0    0 -0.14137228030E+02  0.48864459538E+00 -0.23999606716E+02  0.27858232400E+02  0.00000000000E+00 0. -1.
         -5    1    5    5    0  502 -0.29250140828E+02 -0.25633677868E+02 -0.47639881883E+02  0.61679044458E+02  0.47000000000E+01 0.  1.
         13    1    6    6    0    0 -0.74734319779E+02  0.16136775765E+03 -0.93059771764E+02  0.20071096852E+03  0.00000000000E+00 0. -1.
        -14    1    6    6    0    0 -0.13728852423E+02  0.31387627502E+02 -0.69436678195E+02  0.77428139767E+02  0.00000000000E+00 0.  1.
</event>
<event>
12    1  0.9028446E-003  0.2279086E+03  0.7818608E-02  0.1128380E+00
         21   -1    0    0  503  502  0.00000000000E+00  0.00000000000E+00  0.56460132629E+03  0.56460132629E+03  0.00000000000E+00 0. -1.
         21   -1    0    0  501  503 -0.00000000000E+00 -0.00000000000E+00 -0.96926454753E+02  0.96926454753E+02  0.00000000000E+00 0.  1.
          6    2    1    2  501    0 -0.11779630197E+03  0.89303252201E+02  0.15424709236E+03  0.27399805965E+03  0.17155678820E+03 0.  0.
         24    2    3    3    0    0 -0.13823716884E+03  0.10483924931E+03  0.15755228427E+03  0.24768816535E+03  0.80161848338E+02 0.  0.
         -6    2    1    2    0  502  0.11779630197E+03 -0.89303252201E+02  0.31342777918E+03  0.38752972139E+03  0.17346836193E+03 0.  0.
        -24    2    5    5    0    0  0.67219998921E+02 -0.10919896209E+03  0.29560858902E+03  0.33014143652E+03  0.71874812203E+02 0.  0.
          5    1    3    3  501    0  0.20440866869E+02 -0.15535997112E+02 -0.33051919099E+01  0.26309894302E+02  0.47000000000E+01 0. -1.
        -13    1    4    4    0    0 -0.67955226172E+02  0.98722245270E+02  0.88629613255E+02  0.14906107078E+03  0.00000000000E+00 0.  1.
         14    1    4    4    0    0 -0.70281942671E+02  0.61170040433E+01  0.68922671011E+02  0.98627094570E+02  0.00000000000E+00 0. -1.
         -5    1    5    5    0  502  0.50576303053E+02  0.19895709893E+02  0.17819190160E+02  0.57388284872E+02  0.47000000000E+01 0.  1.
         11    1    6    6    0    0  0.26630385176E+02 -0.94248964454E+02  0.15798018573E+03  0.18587572138E+03  0.00000000000E+00 0. -1.
        -12    1    6    6    0    0  0.40589613745E+02 -0.14949997640E+02  0.13762840329E+03  0.14426571514E+03  0.00000000000E+00 0.  1.
</event>
<event>
12    1  0.9028446E-003  0.2221712E+03  0.7818608E-02  0.1132688E+00
         21   -1    0    0  501  502  0.00000000000E+00  0.00000000000E+00  0.76808489362E+02  0.76808489362E+02  0.00000000000E+00 0. -1.
         21   -1    0    0  502  503 -0.00000000000E+00 -0.00000000000E+00 -0.65683536958E+03  0.65683536958E+03  0.00000000000E+00 0.  1.
          6    2    1    2  501    0  0.13729464057E+03 -0.22198154850E+02 -0.22640730806E+03  0.31720701964E+03  0.17325544077E+03 0.  0.
         24    2    3    3    0    0  0.75636992132E+02 -0.37874269932E+01 -0.37030281010E+02  0.11714110828E+03  0.81335713901E+02 0.  0.
         -6    2    1    2    0  503 -0.13729464057E+03  0.22198154850E+02 -0.35361957215E+03  0.41643683930E+03  0.17038269546E+03 0.  0.
        -24    2    5    5    0    0 -0.26295680631E+02 -0.29767602267E+02 -0.20913176906E+03  0.22691105145E+03  0.78580884917E+02 0.  0.
          5    1    3    3  501    0  0.61657648436E+02 -0.18410727857E+02 -0.18937702705E+03  0.20006591136E+03  0.47000000000E+01 0. -1.
        -13    1    4    4    0    0 -0.57995098763E+01 -0.11838721300E+02 -0.32626490533E+02  0.35189167671E+02  0.00000000000E+00 0.  1.
         14    1    4    4    0    0  0.81436502008E+02  0.80512943073E+01 -0.44037904766E+01  0.81951940611E+02  0.00000000000E+00 0. -1.
         -5    1    5    5    0  503 -0.11099895994E+03  0.51965757117E+02 -0.14448780309E+03  0.18952578786E+03  0.47000000000E+01 0.  1.
         11    1    6    6    0    0  0.25056363589E+02  0.43382554456E+01 -0.46697286156E+02  0.53172157667E+02  0.00000000000E+00 0. -1.
        -12    1    6    6    0    0 -0.51352044220E+02 -0.34105857712E+02 -0.16243448290E+03  0.17373889378E+03  0.00000000000E+00 0.  1.
</event>
<event>
12    1  0.9028446E-003  0.3830882E+03  0.7818608E-02  0.1049898E+00
         21   -1    0    0  503  502  0.00000000000E+00  0.00000000000E+00  0.62753320101E+02  0.62753320101E+02  0.00000000000E+00 0. -1.
         21   -1    0    0  501  503 -0.00000000000E+00 -0.00000000000E+00 -0.27848732168E+04  0.27848732168E+04  0.00000000000E+00 0.  1.
          6    2    1    2  501    0  0.17796473987E+03  0.29254439860E+03 -0.78524585768E+03  0.87323104112E+03  0.16931544639E+03 0.  0.
         24    2    3    3    0    0  0.17048060292E+03  0.23013032548E+03 -0.50620834340E+03  0.58716190052E+03  0.80551895186E+02 0.  0.
         -6    2    1    2    0  502 -0.17796473987E+03 -0.29254439860E+03 -0.19368740390E+04  0.19743954958E+04  0.17176395704E+03 0.  0.
        -24    2    5    5    0    0 -0.11212969038E+03 -0.14112502468E+03 -0.13624261389E+04  0.13766710103E+04  0.80800660283E+02 0.  0.
          5    1    3    3  501    0  0.74841369546E+01  0.62414073120E+02 -0.27903751427E+03  0.28606914060E+03  0.47000000000E+01 0. -1.
        -11    1    4    4    0    0  0.12087912447E+02 -0.24555120981E+01 -0.47009802225E+02  0.48601118014E+02  0.00000000000E+00 0.  1.
         12    1    4    4    0    0  0.15839269047E+03  0.23258583757E+03 -0.45919854118E+03  0.53856078251E+03  0.00000000000E+00 0. -1.
         -5    1    5    5    0  502 -0.65835049493E+02 -0.15141937392E+03 -0.57444790012E+03  0.59772448544E+03  0.47000000000E+01 0.  1.
         11    1    6    6    0    0 -0.72233418275E+02 -0.34685794171E+02 -0.43653128171E+03  0.44382466239E+03  0.00000000000E+00 0. -1.
        -12    1    6    6    0    0 -0.39896272106E+02 -0.10643923051E+03 -0.92589485717E+03  0.93284634793E+03  0.00000000000E+00 0.  1.
</event>
<event>
12    1  0.9028446E-003  0.2225098E+03  0.7818608E-02  0.1132058E+00
         21   -1    0    0  501  502  0.00000000000E+00  0.00000000000E+00  0.58260154618E+03  0.58260154618E+03  0.00000000000E+00 0. -1.
         21   -1    0    0  502  503 -0.00000000000E+00 -0.00000000000E+00 -0.10332237360E+03  0.10332237360E+03  0.00000000000E+00 0.  1.
          6    2    1    2  501    0 -0.65772386025E+02 -0.12473715666E+03  0.94805385089E+02  0.24170469799E+03  0.17189454609E+03 0.  0.
         24    2    3    3    0    0 -0.26809718926E+02 -0.14625902493E+03  0.98842288896E+02  0.19676399446E+03  0.82678945577E+02 0.  0.
         -6    2    1    2    0  503  0.65772386025E+02  0.12473715666E+03  0.38447378750E+03  0.44421922179E+03  0.17211989636E+03 0.  0.
        -24    2    5    5    0    0  0.10456121873E+03  0.58467406766E+02  0.22956261921E+03  0.27125733769E+03  0.80808792810E+02 0.  0.
          5    1    3    3  501    0 -0.38962667099E+02  0.21521868269E+02 -0.40369038072E+01  0.44940703528E+02  0.47000000000E+01 0. -1.
        -11    1    4    4    0    0  0.23434826778E+01 -0.37375189490E+02 -0.11350916911E+02  0.39131062025E+02  0.00000000000E+00 0.  1.
         12    1    4    4    0    0 -0.29153201604E+02 -0.10888383544E+03  0.11019320581E+03  0.15763293244E+03  0.00000000000E+00 0. -1.
         -5    1    5    5    0  503 -0.38788832701E+02  0.66269749891E+02  0.15491116829E+03  0.17296188410E+03  0.47000000000E+01 0.  1.
         11    1    6    6    0    0  0.35035580441E+02  0.58924405609E+02  0.15403066607E+03  0.16859722288E+03  0.00000000000E+00 0. -1.
        -12    1    6    6    0    0  0.69525638285E+02 -0.45699884318E+00  0.75531953137E+02  0.10266011480E+03  0.00000000000E+00 0.  1.
</event>
<event>
12    1  0.9028446E-003  0.2149636E+03  0.7818608E-02  0.1138158E+00
         21   -1    0    0  503  502  0.00000000000E+00  0.00000000000E+00  0.51019618332E+02  0.51019618332E+02  0.00000000000E+00 0. -1.
         21   -1    0    0  501  503 -0.00000000000E+00 -0.00000000000E+00 -0.13098561393E+04  0.13098561393E+04  0.00000000000E+00 0.  1.
          6    2    1    2  501    0  0.77364314532E+02  0.10139320914E+03 -0.10144750245E+04  0.10369999687E+04  0.17304201713E+03 0.  0.
         24    2    3    3    0    0  0.18992027756E+01  0.59854377571E+02 -0.78905718852E+03  0.79563769243E+03  0.82716004353E+02 0.  0.
         -6    2    1    2    0  502 -0.77364314532E+02 -0.10139320914E+03 -0.24436149647E+03  0.32387578895E+03  0.17005047982E+03 0.  0.
        -24    2    5    5    0    0  0.15381833380E+02 -0.76033577359E+01 -0.73128591629E+02  0.10767869859E+03  0.77152442408E+02 0.  0.
          5    1    3    3  501    0  0.75465111757E+02  0.41538831574E+02 -0.22541783603E+03  0.24136227630E+03  0.47000000000E+01 0. -1.
        -13    1    4    4    0    0  0.34910037593E+02  0.33340581821E+02 -0.59799818363E+03  0.59994344129E+03  0.00000000000E+00 0.  1.
         14    1    4    4    0    0 -0.33010834818E+02  0.26513795750E+02 -0.19105900489E+03  0.19569425114E+03  0.00000000000E+00 0. -1.
         -5    1    5    5    0  502 -0.92746147912E+02 -0.93789851409E+02 -0.17123290484E+03  0.21619709036E+03  0.47000000000E+01 0.  1.
         11    1    6    6    0    0 -0.80285359216E+01  0.31604306338E+02 -0.23215495739E+02  0.40028100262E+02  0.00000000000E+00 0. -1.
        -12    1    6    6    0    0  0.23410369302E+02 -0.39207664074E+02 -0.49913095890E+02  0.67650598329E+02  0.00000000000E+00 0.  1.
</event>
<event>
12    1  0.9028446E-003  0.1723621E+03  0.7818608E-02  0.1175446E+00
         21   -1    0    0  503  502  0.00000000000E+00  0.00000000000E+00  0.68565380700E+02  0.68565380700E+02  0.00000000000E+00 0. -1.
         21   -1    0    0  501  503 -0.00000000000E+00 -0.00000000000E+00 -0.46354173914E+03  0.46354173914E+03  0.00000000000E+00 0. -1.
          6    2    1    2  501    0 -0.12965619211E+02  0.13298447391E+02 -0.12916705622E+03  0.21538994612E+03  0.17135852617E+03 0.  0.
         24    2    3    3    0    0 -0.45964735699E+02  0.65168893934E+02 -0.67829380066E+02  0.12841934517E+03  0.74370435981E+02 0.  0.
         -6    2    1    2    0  502  0.12965619211E+02 -0.13298447391E+02 -0.26580930222E+03  0.31671717372E+03  0.17120229847E+03 0.  0.
        -24    2    5    5    0    0  0.40370588639E+02 -0.25808346611E+01 -0.27166759354E+03  0.28634763061E+03  0.80964430688E+02 0.  0.
          5    1    3    3  501    0  0.32999116488E+02 -0.51870446542E+02 -0.61337676155E+02  0.86970600950E+02  0.47000000000E+01 0. -1.
        -11    1    4    4    0    0 -0.11053660179E+02  0.39048481963E+02 -0.73986283058E+02  0.84385647048E+02  0.00000000000E+00 0.  1.
         12    1    4    4    0    0 -0.34911075520E+02  0.26120411971E+02  0.61569029913E+01  0.44033698118E+02  0.00000000000E+00 0. -1.
         -5    1    5    5    0  502 -0.27404969429E+02 -0.10717612730E+02  0.58582913248E+01  0.30369543119E+02  0.47000000000E+01 0.  1.
         13    1    6    6    0    0  0.34301855338E+02 -0.34166587514E+02 -0.22168909179E+03  0.22691413883E+03  0.00000000000E+00 0. -1.
        -14    1    6    6    0    0  0.60687333017E+01  0.31585752853E+02 -0.49978501755E+02  0.59433491778E+02  0.00000000000E+00 0.  1.
</event>
<event>
12    1  0.9028446E-003  0.2833556E+03  0.7818608E-02  0.1093922E+00
         21   -1    0    0  503  502  0.00000000000E+00  0.00000000000E+00  0.43968425046E+03  0.43968425046E+03  0.00000000000E+00 0. -1.
         21   -1    0    0  501  503 -0.00000000000E+00 -0.00000000000E+00 -0.23086586003E+03  0.23086586003E+03  0.00000000000E+00 0.  1.
          6    2    1    2  501    0  0.13607840629E+03  0.17977625842E+03 -0.49210809033E+02  0.28759715611E+03  0.17162046709E+03 0.  0.
         24    2    3    3    0    0  0.61143422723E+02  0.17727110523E+03 -0.58118965160E+02  0.21194682365E+03  0.79875397035E+02 0.  0.
         -6    2    1    2    0  502 -0.13607840629E+03 -0.17977625842E+03  0.25802919947E+03  0.38295295438E+03  0.17098848423E+03 0.  0.
        -24    2    5    5    0    0 -0.11707531183E+03 -0.17503571303E+03  0.14043118756E+03  0.26364254924E+03  0.73772256664E+02 0.  0.
          5    1    3    3  501    0  0.74934983571E+02  0.25051531860E+01  0.89081561269E+01  0.75650332457E+02  0.47000000000E+01 0. -1.
        -13    1    4    4    0    0  0.75570908041E+02  0.12448194494E+03 -0.24365647986E+02  0.14764959045E+03  0.00000000000E+00 0.  1.
         14    1    4    4    0    0 -0.14427485319E+02  0.52789160297E+02 -0.33753317173E+02  0.64297233204E+02  0.00000000000E+00 0. -1.
         -5    1    5    5    0  502 -0.19003094469E+02 -0.47405453879E+01  0.11759801191E+03  0.11931040514E+03  0.47000000000E+01 0.  1.
         13    1    6    6    0    0  0.32464062081E+01 -0.20251337887E+02  0.36202106572E+02  0.41608272732E+02  0.00000000000E+00 0. -1.
        -14    1    6    6    0    0 -0.12032171803E+03 -0.15478437515E+03  0.10422908098E+03  0.22203427650E+03  0.00000000000E+00 0.  1.
</event>
<event>
12    1  0.9028446E-003  0.2074679E+03  0.7818608E-02  0.1144228E+00
         21   -1    0    0  501  502  0.00000000000E+00  0.00000000000E+00  0.19628839511E+03  0.19628839511E+03  0.00000000000E+00 0. -1.
         21   -1    0    0  502  503 -0.00000000000E+00 -0.00000000000E+00 -0.21613856657E+03  0.21613856657E+03  0.00000000000E+00 0. -1.
          6    2    1    2  501    0 -0.82666063390E+02  0.76538129892E+02 -0.15996886791E+02  0.20808369714E+03  0.17421584676E+03 0.  0.
         24    2    3    3    0    0 -0.10064680557E+03  0.50616252097E+01 -0.32759865733E+02  0.13235203088E+03  0.79299758857E+02 0.  0.
         -6    2    1    2    0  503  0.82666063390E+02 -0.76538129892E+02 -0.38532846663E+01  0.20434326454E+03  0.17043931059E+03 0.  0.
        -24    2    5    5    0    0 -0.25834375440E+01 -0.22738366693E+02 -0.44528340212E+02  0.95538659518E+02  0.81370479359E+02 0.  0.
          5    1    3    3  501    0  0.17980742176E+02  0.71476504683E+02  0.16762978942E+02  0.75731666256E+02  0.47000000000E+01 0. -1.
        -11    1    4    4    0    0 -0.62583281328E+02 -0.35006680838E+02 -0.27634271373E+02  0.76849123348E+02  0.00000000000E+00 0.  1.
         12    1    4    4    0    0 -0.38063524238E+02  0.40068306048E+02 -0.51255943606E+01  0.55502907532E+02  0.00000000000E+00 0. -1.
         -5    1    5    5    0  503  0.85249500934E+02 -0.53799763200E+02  0.40675055546E+02  0.10880460502E+03  0.47000000000E+01 0.  1.
         13    1    6    6    0    0  0.32163283272E+02  0.39311863315E+01 -0.40038386923E+02  0.51507314473E+02  0.00000000000E+00 0. -1.
        -14    1    6    6    0    0 -0.34746720816E+02 -0.26669553024E+02 -0.44899532887E+01  0.44031345045E+02  0.00000000000E+00 0.  1.
</event>
<event>
12    1  0.9028446E-003  0.2305339E+03  0.7818608E-02  0.1126564E+00
         21   -1    0    0  501  502  0.00000000000E+00  0.00000000000E+00  0.26704588707E+03  0.26704588707E+03  0.00000000000E+00 0. -1.
         21   -1    0    0  502  503 -0.00000000000E+00 -0.00000000000E+00 -0.20024503872E+03  0.20024503872E+03  0.00000000000E+00 0.  1.
          6    2    1    2  501    0 -0.14533800695E+03 -0.39032900005E+02  0.60641189868E+02  0.23837620764E+03  0.17464008392E+03 0.  0.
         24    2    3    3    0    0 -0.32986965751E+02 -0.70116475868E+01 -0.25150452696E+02  0.93357543323E+02  0.83341361359E+02 0.  0.
         -6    2    1    2    0  503  0.14533800695E+03  0.39032900005E+02  0.61596584744E+01  0.22891471815E+03  0.17238707390E+03 0.  0.
        -24    2    5    5    0    0  0.72348410256E+02 -0.86366798432E+01  0.64654424622E+02  0.12382619482E+03  0.76445059986E+02 0.  0.
          5    1    3    3  501    0 -0.11235104120E+03 -0.32021252418E+02  0.85791642564E+02  0.14501866431E+03  0.47000000000E+01 0. -1.
        -11    1    4    4    0    0 -0.55721723921E+02  0.15282282740E+02 -0.19747358083E+02  0.61060763455E+02  0.00000000000E+00 0.  1.
         12    1    4    4    0    0  0.22734758170E+02 -0.22293930327E+02 -0.54030946132E+01  0.32296779868E+02  0.00000000000E+00 0. -1.
         -5    1    5    5    0  503  0.72989596698E+02  0.47669579848E+02 -0.58494766147E+02  0.10508852333E+03  0.47000000000E+01 0.  1.
         11    1    6    6    0    0  0.68152263252E+02 -0.41076075222E+01  0.81244867491E+02  0.10612413448E+03  0.00000000000E+00 0. -1.
        -12    1    6    6    0    0  0.41961470044E+01 -0.45290723211E+01 -0.16590442869E+02  0.17702060343E+02  0.00000000000E+00 0.  1.
</event>
<event>
12    1  0.9028446E-003  0.2647893E+03  0.7818608E-02  0.1104438E+00
         21   -1    0    0  503  502  0.00000000000E+00  0.00000000000E+00  0.18114102990E+03  0.18114102990E+03  0.00000000000E+00 0.  1.
         21   -1    0    0  501  503 -0.00000000000E+00 -0.00000000000E+00 -0.48775451934E+03  0.48775451934E+03  0.00000000000E+00 0.  1.
          6    2    1    2  501    0  0.20003138696E+03 -0.18104715569E+02 -0.30651460113E+03  0.40504888081E+03  0.17254871382E+03 0.  0.
         24    2    3    3    0    0  0.43850660532E+02 -0.49983120947E+02 -0.13667293016E+03  0.17207477230E+03  0.80678650295E+02 0.  0.
         -6    2    1    2    0  502 -0.20003138696E+03  0.18104715569E+02 -0.98888305521E-01  0.26384666844E+03  0.17109856273E+03 0.  0.
        -24    2    5    5    0    0 -0.58622937625E+02 -0.33834585536E+02 -0.58081212956E+02  0.10235957757E+03  0.50225768567E+02 0.  0.
          5    1    3    3  501    0  0.15618072643E+03  0.31878405377E+02 -0.16984167097E+03  0.23297410851E+03  0.47000000000E+01 0. -1.
        -13    1    4    4    0    0  0.41309953105E+02  0.11363851534E+02 -0.49793872071E+02  0.65689261246E+02  0.00000000000E+00 0.  1.
         14    1    4    4    0    0  0.25407074269E+01 -0.61346972481E+02 -0.86879058092E+02  0.10638551105E+03  0.00000000000E+00 0. -1.
         -5    1    5    5    0  502 -0.14140844934E+03  0.51939301105E+02  0.57982324650E+02  0.16148709086E+03  0.47000000000E+01 0.  1.
         13    1    6    6    0    0 -0.46394168387E+02  0.18444622943E+01 -0.29124211979E+02  0.54809129028E+02  0.00000000000E+00 0. -1.
        -14    1    6    6    0    0 -0.12228769238E+02 -0.35679047830E+02 -0.28957000977E+02  0.47550448544E+02  0.00000000000E+00 0.  1.
</event>
<event>
12    1  0.9028446E-003  0.2091465E+03  0.7818608E-02  0.1142555E+00
         21   -1    0    0  501  502  0.00000000000E+00  0.00000000000E+00  0.19461602270E+03  0.19461602270E+03  0.00000000000E+00 0. -1.
         21   -1    0    0  502  503 -0.00000000000E+00 -0.00000000000E+00 -0.22676265937E+03  0.22676265937E+03  0.00000000000E+00 0. -1.
          6    2    1    2  501    0 -0.60431210943E+02 -0.10137697802E+03  0.10790314333E+02  0.20787026687E+03  0.17077585906E+03 0.  0.
         24    2    3    3    0    0  0.48049511456E+01 -0.12644754925E+02  0.46748511728E+02  0.91920940792E+02  0.77981142750E+02 0.  0.
         -6    2    1    2    0  503  0.60431210943E+02  0.10137697802E+03 -0.42936951000E+02  0.21350841519E+03  0.17266452638E+03 0.  0.
        -24    2    5    5    0    0  0.46949311536E+02 -0.88899394980E+01 -0.42174362828E+02  0.10231836955E+03  0.80044381369E+02 0.  0.
          5    1    3    3  501    0 -0.65236162089E+02 -0.88732223092E+02 -0.35958197395E+02  0.11594932608E+03  0.47000000000E+01 0. -1.
        -11    1    4    4    0    0  0.59100990093E+01  0.32028837789E+02  0.10017505782E+02  0.34075301063E+02  0.00000000000E+00 0.  1.
         12    1    4    4    0    0 -0.11051478637E+01 -0.44673592714E+02  0.36731005947E+02  0.57845639729E+02  0.00000000000E+00 0. -1.
         -5    1    5    5    0  503  0.13481899407E+02  0.11026691751E+03 -0.76258817258E+00  0.11119004565E+03  0.47000000000E+01 0.  1.
         13    1    6    6    0    0  0.45727059452E+02  0.10797070771E+02  0.86738027820E+01  0.47778400539E+02  0.00000000000E+00 0. -1.
        -14    1    6    6    0    0  0.12222520840E+01 -0.19687010269E+02 -0.50848165610E+02  0.54539969008E+02  0.00000000000E+00 0.  1.
</event>
<event>
12    1  0.9028446E-003  0.2120030E+03  0.7818608E-02  0.1140184E+00
         21   -1    0    0  503  502  0.00000000000E+00  0.00000000000E+00  0.66134549243E+02  0.66134549243E+02  0.00000000000E+00 0.  1.
         21   -1    0    0  501  503 -0.00000000000E+00 -0.00000000000E+00 -0.77097490882E+03  0.77097490882E+03  0.00000000000E+00 0. -1.
          6    2    1    2  501    0 -0.12421781367E+03  0.38393865570E+01 -0.49826915063E+03  0.54110785749E+03  0.17053082083E+03 0.  0.
         24    2    3    3    0    0 -0.12535674262E+03 -0.10488388527E+02 -0.24051796600E+03  0.28291346276E+03  0.79792331862E+02 0.  0.
         -6    2    1    2    0  502  0.12421781367E+03 -0.38393865570E+01 -0.20657120895E+03  0.29600160057E+03  0.17175702912E+03 0.  0.
        -24    2    5    5    0    0  0.98388881776E+02 -0.12193740625E+02 -0.45748942723E+02  0.13283659124E+03  0.75654047117E+02 0.  0.
          5    1    3    3  501    0  0.11389289524E+01  0.14327775084E+02 -0.25775118463E+03  0.25819439474E+03  0.47000000000E+01 0. -1.
        -11    1    4    4    0    0 -0.58611957506E+02  0.22757802197E+02 -0.16593962939E+03  0.17745207726E+03  0.00000000000E+00 0.  1.
         12    1    4    4    0    0 -0.66744785116E+02 -0.33246190724E+02 -0.74578336613E+02  0.10546138549E+03  0.00000000000E+00 0. -1.
         -5    1    5    5    0  502  0.25828931893E+02  0.83543540681E+01 -0.16082226623E+03  0.16316500933E+03  0.47000000000E+01 0.  1.
         13    1    6    6    0    0  0.53132877105E+02 -0.22816862066E+02 -0.60865633580E+02  0.83954375557E+02  0.00000000000E+00 0. -1.
        -14    1    6    6    0    0  0.45256004671E+02  0.10623121441E+02  0.15116690858E+02  0.48882215686E+02  0.00000000000E+00 0.  1.
</event>
<event>
12    1  0.9028446E-003  0.2037057E+03  0.7818608E-02  0.1146897E+00
         21   -1    0    0  501  502  0.00000000000E+00  0.00000000000E+00  0.82441101163E+02  0.82441101163E+02  0.00000000000E+00 0.  1.
         21   -1    0    0  502  503 -0.00000000000E+00 -0.00000000000E+00 -0.67356117463E+03  0.67356117463E+03  0.00000000000E+00 0. -1.
          6    2    1    2  501    0  0.10745209885E+03 -0.58333537175E+01 -0.10324495318E+03  0.22730752645E+03  0.17154943796E+03 0.  0.
         24    2    3    3    0    0  0.82328226655E+02  0.51166789362E+02 -0.26053997010E+02  0.12800617208E+03  0.79440494042E+02 0.  0.
         -6    2    1    2    0  503 -0.10745209885E+03  0.58333537175E+01 -0.48787512029E+03  0.52869474934E+03  0.17296249137E+03 0.  0.
        -24    2    5    5    0    0  0.29424770713E+01 -0.29769241127E+01 -0.30040514924E+03  0.31090663343E+03  0.80013503683E+02 0.  0.
          5    1    3    3  501    0  0.25123872191E+02 -0.57000143080E+02 -0.77190956172E+02  0.99301354370E+02  0.47000000000E+01 0. -1.
        -13    1    4    4    0    0  0.92559120637E+02  0.32962481182E+02 -0.50424245819E+01  0.98382630705E+02  0.00000000000E+00 0.  1.
         14    1    4    4    0    0 -0.10230893981E+02  0.18204308180E+02 -0.21011572428E+02  0.29623541380E+02  0.00000000000E+00 0. -1.
         -5    1    5    5    0  503 -0.11039457592E+03  0.88102778303E+01 -0.18746997105E+03  0.21778811591E+03  0.47000000000E+01 0.  1.
         13    1    6    6    0    0 -0.28292012441E+02 -0.99798978079E+01 -0.24569808471E+03  0.24752289825E+03  0.00000000000E+00 0. -1.
        -14    1    6    6    0    0  0.31234489512E+02  0.70029736951E+01 -0.54707064531E+02  0.63383735179E+02  0.00000000000E+00 0.  1.
</event>
<event>
12    1  0.9028446E-003  0.1906125E+03  0.7818608E-02  0.1158107E+00
         21   -1    0    0  501  502  0.00000000000E+00  0.00000000000E+00  0.25226139945E+04  0.25226139945E+04  0.00000000000E+00 0. -1.
         21   -1    0    0  502  503 -0.00000000000E+00 -0.00000000000E+00 -0.34533295014E+02  0.34533295014E+02  0.00000000000E+00 0. -1.
          6    2    1    2  501    0 -0.68753247715E+02 -0.42338536549E+02  0.22230171545E+04  0.22311742208E+04  0.17266607504E+03 0.  0.
         24    2    3    3    0    0 -0.44227261008E+02 -0.49540863147E+02  0.63515053725E+03  0.64309491491E+03  0.75792591131E+02 0.  0.
         -6    2    1    2    0  503  0.68753247715E+02  0.42338536549E+02  0.26506354490E+03  0.32597306866E+03  0.17169798458E+03 0.  0.
        -24    2    5    5    0    0 -0.28962879479E+02  0.31650760067E+02  0.12050163270E+03  0.15109337705E+03  0.80423541973E+02 0.  0.
          5    1    3    3  501    0 -0.24525986707E+02  0.72023265980E+01  0.15878666173E+04  0.15880793059E+04  0.47000000000E+01 0. -1.
        -13    1    4    4    0    0  0.80759345019E+00 -0.26868460214E+02  0.60091403427E+02  0.65829652341E+02  0.00000000000E+00 0.  1.
         14    1    4    4    0    0 -0.45034854458E+02 -0.22672402933E+02  0.57505913383E+03  0.57726526257E+03  0.00000000000E+00 0. -1.
         -5    1    5    5    0  503  0.97716127194E+02  0.10687776482E+02  0.14456191220E+03  0.17487969162E+03  0.47000000000E+01 0.  1.
         13    1    6    6    0    0 -0.16545555473E+02  0.48083209617E+02  0.31671877983E+02  0.59907080616E+02  0.00000000000E+00 0. -1.
        -14    1    6    6    0    0 -0.12417324006E+02 -0.16432449550E+02  0.88829754715E+02  0.91186296429E+02  0.00000000000E+00 0.  1.
</event>
<event>
12    1  0.9028446E-003  0.2749424E+03  0.7818608E-02  0.1098607E+00
         21   -1    0    0  503  502  0.00000000000E+00  0.00000000000E+00  0.57479744621E+03  0.57479744621E+03  0.00000000000E+00 0.  1.
         21   -1    0    0  501  503 -0.00000000000E+00 -0.00000000000E+00 -0.14583175004E+03  0.14583175004E+03  0.00000000000E+00 0. -1.
          6    2    1    2  501    0  0.12799087772E+02 -0.21237163969E+03  0.10024297550E+03  0.29264651609E+03  0.17414878481E+03 0.  0.
         24    2    3    3    0    0 -0.21573166334E+02 -0.79179687072E+02  0.10262036239E+03  0.15499009575E+03  0.82195904102E+02 0.  0.
         -6    2    1    2    0  502 -0.12799087772E+02  0.21237163969E+03  0.32872272066E+03  0.42798268015E+03  0.17275710532E+03 0.  0.
        -24    2    5    5    0    0 -0.38305773194E+02  0.10781784561E+03  0.27338241724E+03  0.30687642086E+03  0.79644030105E+02 0.  0.
          5    1    3    3  501    0  0.34372254106E+02 -0.13319195262E+03 -0.23773868924E+01  0.13765642035E+03  0.47000000000E+01 0. -1.
        -11    1    4    4    0    0  0.28080419601E+02 -0.12954178707E+02  0.43068390939E+02  0.53020816752E+02  0.00000000000E+00 0.  1.
         12    1    4    4    0    0 -0.49653585936E+02 -0.66225508365E+02  0.59551971456E+02  0.10196927900E+03  0.00000000000E+00 0. -1.
         -5    1    5    5    0  502  0.25506685422E+02  0.10455379408E+03  0.55340303419E+02  0.12110625929E+03  0.47000000000E+01 0.  1.
         11    1    6    6    0    0 -0.56753757752E+02  0.43561399869E+02  0.12279926360E+03  0.14212052533E+03  0.00000000000E+00 0. -1.
        -12    1    6    6    0    0  0.18447984558E+02  0.64256445744E+02  0.15058315364E+03  0.16475589554E+03  0.00000000000E+00 0.  1.
</event>
<event>
12    1  0.9028446E-003  0.2303532E+03  0.7818608E-02  0.1126488E+00
         21   -1    0    0  503  502  0.00000000000E+00  0.00000000000E+00  0.15071102466E+03  0.15071102466E+03  0.00000000000E+00 0.  1.
         21   -1    0    0  501  503 -0.00000000000E+00 -0.00000000000E+00 -0.44474030667E+03  0.44474030667E+03  0.00000000000E+00 0.  1.
          6    2    1    2  501    0 -0.11072792732E+03 -0.10634839886E+03 -0.28366671847E+03  0.36541675568E+03  0.17173218200E+03 0.  0.
         24    2    3    3    0    0 -0.13044936086E+03 -0.37663277051E+02 -0.17100898163E+03  0.23192354773E+03  0.78159465250E+02 0.  0.
         -6    2    1    2    0  502  0.11072792732E+03  0.10634839886E+03 -0.10362563535E+02  0.23003457566E+03  0.17099084024E+03 0.  0.
        -24    2    5    5    0    0  0.97632456785E+02  0.79509159123E+01  0.16020944079E+02  0.12721563055E+03  0.79572811476E+02 0.  0.
          5    1    3    3  501    0  0.19721433540E+02 -0.68685121804E+02 -0.11265773684E+03  0.13349320795E+03  0.47000000000E+01 0. -1.
        -11    1    4    4    0    0 -0.62947374907E+02 -0.58363432748E+02 -0.99938669764E+02  0.13174369057E+03  0.00000000000E+00 0.  1.
         12    1    4    4    0    0 -0.67501985948E+02  0.20700155696E+02 -0.71070311866E+02  0.10017985717E+03  0.00000000000E+00 0. -1.
         -5    1    5    5    0  502  0.13095470530E+02  0.98397482943E+02 -0.26383507613E+02  0.10281894510E+03  0.47000000000E+01 0.  1.
         13    1    6    6    0    0  0.41995537024E+02 -0.24517630176E+02 -0.20942049079E+02  0.52946281635E+02  0.00000000000E+00 0. -1.
        -14    1    6    6    0    0  0.55636919762E+02  0.32468546088E+02  0.36962993158E+02  0.74269348919E+02  0.00000000000E+00 0.  1.
</event>
<event>
12    1  0.9028446E-003  0.1877204E+03  0.7818608E-02  0.1160686E+00
         21   -1    0    0  501  502  0.00000000000E+00  0.00000000000E+00  0.10966847718E+04  0.10966847718E+04  0.00000000000E+00 0. -1.
         21   -1    0    0  502  503 -0.00000000000E+00 -0.00000000000E+00 -0.32978748572E+02  0.32978748572E+02  0.00000000000E+00 0. -1.
          6    2    1    2  501    0 -0.74012123423E+02 -0.82283393819E+01  0.62731712985E+03  0.65461172418E+03  0.17159320516E+03 0.  0.
         24    2    3    3    0    0 -0.11768112526E+03  0.12918538204E+02  0.38486519836E+03  0.40730786002E+03  0.61341144804E+02 0.  0.
         -6    2    1    2    0  503  0.74012123423E+02  0.82283393819E+01  0.43638889341E+03  0.47505179622E+03  0.17231785402E+03 0.  0.
        -24    2    5    5    0    0  0.17558203020E+01  0.38614141576E+02  0.11765985069E+03  0.14679189463E+03  0.78802823746E+02 0.  0.
          5    1    3    3  501    0  0.43669001839E+02 -0.21146877586E+02  0.24245193148E+03  0.24730386417E+03  0.47000000000E+01 0. -1.
        -13    1    4    4    0    0 -0.44565125597E+02  0.30439131684E+02  0.21272941720E+03  0.21946843987E+03  0.00000000000E+00 0.  1.
         14    1    4    4    0    0 -0.73115999666E+02 -0.17520593481E+02  0.17213578116E+03  0.18783942014E+03  0.00000000000E+00 0. -1.
         -5    1    5    5    0  503  0.72256303121E+02 -0.30385802194E+02  0.31872904272E+03  0.32825990159E+03  0.47000000000E+01 0.  1.
         13    1    6    6    0    0  0.12162040370E+02 -0.51969034948E+01 -0.64867964186E+01  0.14730972801E+02  0.00000000000E+00 0. -1.
        -14    1    6    6    0    0 -0.10406220068E+02  0.43811045070E+02  0.12414664710E+03  0.13206092183E+03  0.00000000000E+00 0.  1.
</event>
<event>
12    1  0.9028446E-003  0.1942530E+03  0.7818608E-02  0.1154756E+00
         21   -1    0    0  503  502  0.00000000000E+00  0.00000000000E+00  0.10004679662E+03  0.10004679662E+03  0.00000000000E+00 0. -1.
         21   -1    0    0  501  503 -0.00000000000E+00 -0.00000000000E+00 -0.57303491369E+03  0.57303491369E+03  0.00000000000E+00 0. -1.
          6    2    1    2  501    0  0.81409352075E+02 -0.38094900905E+02 -0.43372215601E+03  0.47523589049E+03  0.17220783640E+03 0.  0.
         24    2    3    3    0    0  0.69683973371E+02  0.36196929253E+02 -0.32037966895E+03  0.33912795573E+03  0.78730961153E+02 0.  0.
         -6    2    1    2    0  502 -0.81409352075E+02  0.38094900905E+02 -0.39265961062E+02  0.19784581983E+03  0.17182097848E+03 0.  0.
        -24    2    5    5    0    0 -0.18885271407E+02  0.84343159828E+01 -0.94310123921E+02  0.10929661980E+03  0.51220703457E+02 0.  0.
          5    1    3    3  501    0  0.11725378704E+02 -0.74291830157E+02 -0.11334248705E+03  0.13610793476E+03  0.47000000000E+01 0. -1.
        -13    1    4    4    0    0  0.12266707787E+02 -0.22923205640E+02 -0.48460363962E+02  0.54994111977E+02  0.00000000000E+00 0.  1.
         14    1    4    4    0    0  0.57417265584E+02  0.59120134893E+02 -0.27191930499E+03  0.28413384375E+03  0.00000000000E+00 0. -1.
         -5    1    5    5    0  502 -0.62524080668E+02  0.29660584922E+02  0.55044162858E+02  0.88549200031E+02  0.47000000000E+01 0.  1.
         13    1    6    6    0    0  0.34112286665E+01  0.24622317176E+02 -0.27730013154E+02  0.37240416400E+02  0.00000000000E+00 0. -1.
        -14    1    6    6    0    0 -0.22296500073E+02 -0.16188001193E+02 -0.66580110767E+02  0.72056203396E+02  0.00000000000E+00 0.  1.
</event>
<event>
12    1  0.9028446E-003  0.2583145E+03  0.7818608E-02  0.1108482E+00
         21   -1    0    0  501  502  0.00000000000E+00  0.00000000000E+00  0.28828543287E+03  0.28828543287E+03  0.00000000000E+00 0.  1.
         21   -1    0    0  502  503 -0.00000000000E+00 -0.00000000000E+00 -0.36012502628E+03  0.36012502628E+03  0.00000000000E+00 0. -1.
          6    2    1    2  501    0 -0.17057221350E+03 -0.89265004828E+02  0.15937772686E+03  0.30172931058E+03  0.16904495243E+03 0.  0.
         24    2    3    3    0    0 -0.94605306905E+02 -0.15902517290E+02  0.19176040287E+02  0.12613993621E+03  0.79627312114E+02 0.  0.
         -6    2    1    2    0  503  0.17057221350E+03  0.89265004828E+02 -0.23121732028E+03  0.34668114856E+03  0.17223021937E+03 0.  0.
        -24    2    5    5    0    0  0.62615453811E+02  0.54340423119E+02 -0.19634710129E+03  0.22788548137E+03  0.80659976422E+02 0.  0.
          5    1    3    3  501    0 -0.75966906594E+02 -0.73362487538E+02  0.14020168658E+03  0.17558937438E+03  0.47000000000E+01 0. -1.
        -11    1    4    4    0    0 -0.97823221299E+02 -0.92074888621E+01 -0.74110176978E+01  0.98534682522E+02  0.00000000000E+00 0.  1.
         12    1    4    4    0    0  0.32179143942E+01 -0.66950284280E+01  0.26587057985E+02  0.27605253685E+02  0.00000000000E+00 0. -1.
         -5    1    5    5    0  503  0.10795675969E+03  0.34924581710E+02 -0.34870218992E+02  0.11879566719E+03  0.47000000000E+01 0.  1.
         11    1    6    6    0    0  0.61468282002E+02  0.67862505673E+02 -0.12324825608E+03  0.15353762404E+03  0.00000000000E+00 0. -1.
        -12    1    6    6    0    0  0.11471718087E+01 -0.13522082554E+02 -0.73098845208E+02  0.74347857336E+02  0.00000000000E+00 0.  1.
</event>
<event>
12    1  0.9028446E-003  0.1844282E+03  0.7818608E-02  0.1164151E+00
         21   -1    0    0  501  502  0.00000000000E+00  0.00000000000E+00  0.13494430677E+03  0.13494430677E+03  0.00000000000E+00 0.  1.
         21   -1    0    0  502  503 -0.00000000000E+00 -0.00000000000E+00 -0.40073737678E+03  0.40073737678E+03  0.00000000000E+00 0.  1.
          6    2    1    2  501    0  0.69319110848E+01 -0.65567446795E+02  0.31488385829E+02  0.18709695931E+03  0.17223998453E+03 0.  0.
         24    2    3    3    0    0 -0.57001927809E+02 -0.67558215826E+02  0.24635059956E+02  0.12259457956E+03  0.81297063046E+02 0.  0.
         -6    2    1    2    0  503 -0.69319110848E+01  0.65567446795E+02 -0.29728145584E+03  0.34858472424E+03  0.16966998709E+03 0.  0.
        -24    2    5    5    0    0 -0.65903745163E+02  0.17877829711E+02 -0.19963332251E+03  0.22485427232E+03  0.77737120474E+02 0.  0.
          5    1    3    3  501    0  0.63933838894E+02  0.19907690311E+01  0.68533258730E+01  0.64502379744E+02  0.47000000000E+01 0. -1.
        -11    1    4    4    0    0 -0.55846198527E+02 -0.24940344988E+02  0.44423179724E+02  0.75592576321E+02  0.00000000000E+00 0.  1.
         12    1    4    4    0    0 -0.11557292827E+01 -0.42617870838E+02 -0.19788119769E+02  0.47002003244E+02  0.00000000000E+00 0. -1.
         -5    1    5    5    0  503  0.58971834078E+02  0.47689617083E+02 -0.97648133327E+02  0.12373045193E+03  0.47000000000E+01 0.  1.
         13    1    6    6    0    0 -0.44612584341E+02  0.20176161986E+02 -0.38452788291E+02  0.62257345923E+02  0.00000000000E+00 0. -1.
        -14    1    6    6    0    0 -0.21291160822E+02 -0.22983322744E+01 -0.16118053422E+03  0.16259692639E+03  0.00000000000E+00 0.  1.
</event>
<event>
12    1  0.9028446E-003  0.2075351E+03  0.7818608E-02  0.1144218E+00
         21   -1    0    0  501  502  0.00000000000E+00  0.00000000000E+00  0.47791011167E+03  0.47791011167E+03  0.00000000000E+00 0. -1.
         21   -1    0    0  502  503 -0.00000000000E+00 -0.00000000000E+00 -0.89276272693E+02  0.89276272693E+02  0.00000000000E+00 0.  1.
          6    2    1    2  501    0 -0.89041748097E+02 -0.67247328828E+02  0.21942053053E+03  0.30202020635E+03  0.17498628429E+03 0.  0.
         24    2    3    3    0    0 -0.12882395593E+03 -0.62262243089E+02  0.15298954244E+03  0.22428577821E+03  0.80163031858E+02 0.  0.
         -6    2    1    2    0  503  0.89041748097E+02  0.67247328828E+02  0.16921330845E+03  0.26516617801E+03  0.17096585058E+03 0.  0.
        -24    2    5    5    0    0  0.10626374094E+03  0.10033030772E+03  0.14078483777E+03  0.21803499433E+03  0.79754215704E+02 0.  0.
          5    1    3    3  501    0  0.39782207832E+02 -0.49850857386E+01  0.66430988087E+02  0.77734428139E+02  0.47000000000E+01 0. -1.
        -13    1    4    4    0    0 -0.73825567191E+02 -0.67438045586E+02  0.13106682308E+03  0.16485331806E+03  0.00000000000E+00 0.  1.
         14    1    4    4    0    0 -0.54998388738E+02  0.51758024966E+01  0.21922719356E+02  0.59432460148E+02  0.00000000000E+00 0. -1.
         -5    1    5    5    0  503 -0.17221992838E+02 -0.33082978893E+02  0.28428470676E+02  0.47131183677E+02  0.47000000000E+01 0.  1.
         13    1    6    6    0    0  0.23799381717E+02  0.32055490097E+02 -0.15218800688E+01  0.39953487137E+02  0.00000000000E+00 0. -1.
        -14    1    6    6    0    0  0.82464359219E+02  0.68274817624E+02  0.14230671784E+03  0.17808150720E+03  0.00000000000E+00 0.  1.
</event>
<event>
12    1  0.9028446E-003  0.1779123E+03  0.7818608E-02  0.1169865E+00
         21   -1    0    0  501  502  0.00000000000E+00  0.00000000000E+00  0.62307357259E+02  0.62307357259E+02  0.00000000000E+00 0.  1.
         21   -1    0    0  502  503 -0.00000000000E+00 -0.00000000000E+00 -0.60809429440E+03  0.60809429440E+03  0.00000000000E+00 0.  1.
          6    2    1    2  501    0 -0.64037044029E+01 -0.45848834968E+02 -0.13676542084E+03  0.22440490136E+03  0.17178374871E+03 0.  0.
         24    2    3    3    0    0 -0.30132800397E+01  0.10167030384E+02 -0.14624865703E+03  0.16729716181E+03  0.80543294584E+02 0.  0.
         -6    2    1    2    0  503  0.64037044029E+01  0.45848834968E+02 -0.40902151630E+03  0.44599675029E+03  0.17167229648E+03 0.  0.
        -24    2    5    5    0    0  0.42148586066E+01 -0.42001027545E+02 -0.23499277667E+03  0.25098269540E+03  0.77387705452E+02 0.  0.
          5    1    3    3  501    0 -0.33904243632E+01 -0.56015865352E+02  0.94832361892E+01  0.57107739555E+02  0.47000000000E+01 0. -1.
        -13    1    4    4    0    0  0.29365976714E+01  0.44892863318E+02 -0.94899999420E+02  0.10502381955E+03  0.00000000000E+00 0.  1.
         14    1    4    4    0    0 -0.59498777111E+01 -0.34725832934E+02 -0.51348657607E+02  0.62273342256E+02  0.00000000000E+00 0. -1.
         -5    1    5    5    0  503  0.21888457963E+01  0.87849862513E+02 -0.17402873963E+03  0.19501405490E+03  0.47000000000E+01 0.  1.
         13    1    6    6    0    0  0.25845719418E+02 -0.49750404083E+01 -0.23814953456E+02  0.35495129911E+02  0.00000000000E+00 0. -1.
        -14    1    6    6    0    0 -0.21630860811E+02 -0.37025987137E+02 -0.21117782321E+03  0.21548756549E+03  0.00000000000E+00 0.  1.
</event>
<event>
12    1  0.9028446E-003  0.1933367E+03  0.7818608E-02  0.1155717E+00
         21   -1    0    0  501  502  0.00000000000E+00  0.00000000000E+00  0.12301871458E+03  0.12301871458E+03  0.00000000000E+00 0. -1.
         21   -1    0    0  502  503 -0.00000000000E+00 -0.00000000000E+00 -0.31929835429E+03  0.31929835429E+03  0.00000000000E+00 0. -1.
          6    2    1    2  501    0  0.89156822126E+01  0.86426628397E+02 -0.47223934701E+02  0.19902056264E+03  0.17271373096E+03 0.  0.
         24    2    3    3    0    0 -0.54990270637E+02  0.88059207663E+02 -0.11911173991E+02  0.12583779696E+03  0.70106498685E+02 0.  0.
         -6    2    1    2    0  503 -0.89156822126E+01 -0.86426628397E+02 -0.14905570501E+03  0.24329650623E+03  0.17154164294E+03 0.  0.
        -24    2    5    5    0    0 -0.18853912373E+01 -0.12962056599E+03 -0.12367930507E+03  0.19249106449E+03  0.70364718284E+02 0.  0.
          5    1    3    3  501    0  0.63905952850E+02 -0.16325792664E+01 -0.35312760710E+02  0.73182765687E+02  0.47000000000E+01 0. -1.
        -13    1    4    4    0    0  0.16602934420E+02  0.10222223916E+02 -0.10394483065E+01  0.19525156745E+02  0.00000000000E+00 0.  1.
         14    1    4    4    0    0 -0.71593205057E+02  0.77836983747E+02 -0.10871725684E+02  0.10631264021E+03  0.00000000000E+00 0. -1.
         -5    1    5    5    0  503 -0.70302909752E+01  0.43193937596E+02 -0.25376399941E+02  0.50805441738E+02  0.47000000000E+01 0.  1.
         13    1    6    6    0    0 -0.89476324777E+00 -0.11401419811E+03 -0.13228588100E+03  0.17464132467E+03  0.00000000000E+00 0. -1.
        -14    1    6    6    0    0 -0.99062798955E+00 -0.15606367886E+02  0.86065759320E+01  0.17849739821E+02  0.00000000000E+00 0.  1.
</event>
<event>
12    1  0.9028446E-003  0.2018676E+03  0.7818608E-02  0.1148247E+00
         21   -1    0    0  503  502  0.00000000000E+00  0.00000000000E+00  0.64873471876E+03  0.64873471876E+03  0.00000000000E+00 0.  1.
         21   -1    0    0  501  503 -0.00000000000E+00 -0.00000000000E+00 -0.66778924311E+02  0.66778924311E+02  0.00000000000E+00 0.  1.
          6    2    1    2  501    0  0.52603431414E+02 -0.91999108306E+02  0.20237609582E+03  0.28559355201E+03  0.17139613726E+03 0.  0.
         24    2    3    3    0    0  0.64882412250E+02 -0.48103613433E+02  0.44272709879E+02  0.12098383636E+03  0.78443169089E+02 0.  0.
         -6    2    1    2    0  502 -0.52603431414E+02  0.91999108306E+02  0.37957969862E+03  0.42992009105E+03  0.17181263096E+03 0.  0.
        -24    2    5    5    0    0  0.14332316638E+02  0.15585027425E+02  0.26566849682E+03  0.27721986832E+03  0.76307252685E+02 0.  0.
          5    1    3    3  501    0 -0.12278980836E+02 -0.43895494873E+02  0.15810338594E+03  0.16460971565E+03  0.47000000000E+01 0. -1.
        -13    1    4    4    0    0  0.54987741155E+02 -0.68037109803E+02  0.23594833600E+02  0.90605828512E+02  0.00000000000E+00 0.  1.
         14    1    4    4    0    0  0.98946710944E+01  0.19933496371E+02  0.20677876280E+02  0.30378007852E+02  0.00000000000E+00 0. -1.
         -5    1    5    5    0  502 -0.66935748052E+02  0.76414080881E+02  0.11391120181E+03  0.15270022273E+03  0.47000000000E+01 0.  1.
         13    1    6    6    0    0 -0.15853964051E+02  0.12522591462E+02  0.16153680942E+02  0.25867061701E+02  0.00000000000E+00 0. -1.
        -14    1    6    6    0    0  0.30186280689E+02  0.30624359625E+01  0.24951481587E+03  0.25135280662E+03  0.00000000000E+00 0.  1.
</event>
<event>
12    1  0.9028446E-003  0.1886539E+03  0.7818608E-02  0.1160044E+00
         21   -1    0    0  503  502  0.00000000000E+00  0.00000000000E+00  0.23727891215E+02  0.23727891215E+02  0.00000000000E+00 0. -1.
         21   -1    0    0  501  503 -0.00000000000E+00 -0.00000000000E+00 -0.14933860617E+04  0.14933860617E+04  0.00000000000E+00 0. -1.
          6    2    1    2  501    0  0.73745687602E+02 -0.19559659464E+02 -0.78003632571E+03  0.80215340868E+03  0.17079934107E+03 0.  0.
         24    2    3    3    0    0  0.81216303743E+02  0.11502623138E+02 -0.29328351933E+03  0.31433063346E+03  0.77846811667E+02 0.  0.
         -6    2    1    2    0  502 -0.73745687602E+02  0.19559659464E+02 -0.68962184474E+03  0.71496054420E+03  0.17253777646E+03 0.  0.
        -24    2    5    5    0    0 -0.83627633991E+02  0.70810848474E+02 -0.52183098288E+03  0.53917601541E+03  0.79971516614E+02 0.  0.
          5    1    3    3  501    0 -0.74706161415E+01 -0.31062282602E+02 -0.48675280638E+03  0.48782277522E+03  0.47000000000E+01 0. -1.
        -11    1    4    4    0    0  0.52237578955E+01  0.23924571312E+02 -0.24129902718E+02  0.34379135594E+02  0.00000000000E+00 0.  1.
         12    1    4    4    0    0  0.75992545848E+02 -0.12421948174E+02 -0.26915361661E+03  0.27995149787E+03  0.00000000000E+00 0. -1.
         -5    1    5    5    0  502  0.98819463891E+01 -0.51251189010E+02 -0.16779086186E+03  0.17578452879E+03  0.47000000000E+01 0.  1.
         11    1    6    6    0    0 -0.23161401536E+02  0.42568104153E+02 -0.89993624521E+02  0.10221226182E+03  0.00000000000E+00 0. -1.
        -12    1    6    6    0    0 -0.60466232455E+02  0.28242744321E+02 -0.43183735836E+03  0.43696375359E+03  0.00000000000E+00 0.  1.
</event>
<event>
12    1  0.9028446E-003  0.1845185E+03  0.7818608E-02  0.1163758E+00
         21   -1    0    0  503  502  0.00000000000E+00  0.00000000000E+00  0.93021074486E+03  0.93021074486E+03  0.00000000000E+00 0. -1.
         21   -1    0    0  501  503 -0.00000000000E+00 -0.00000000000E+00 -0.38472912149E+02  0.38472912149E+02  0.00000000000E+00 0. -1.
          6    2    1    2  501    0  0.64269459106E+02 -0.16659624129E+02  0.33426919356E+03  0.38181536897E+03  0.17215973911E+03 0.  0.
         24    2    3    3    0    0  0.59068690476E+02 -0.58239588298E+02  0.12984316665E+03  0.17308580257E+03  0.78857385734E+02 0.  0.
         -6    2    1    2    0  502 -0.64269459106E+02  0.16659624129E+02  0.55746863915E+03  0.58686828803E+03  0.17098244768E+03 0.  0.
        -24    2    5    5    0    0 -0.89578947164E+01 -0.36157694537E+02  0.41702854554E+03  0.42688532581E+03  0.83250530635E+02 0.  0.
          5    1    3    3  501    0  0.52007686298E+01  0.41579964169E+02  0.20442602691E+03  0.20872956640E+03  0.47000000000E+01 0. -1.
        -13    1    4    4    0    0 -0.83056759672E+01 -0.40384807067E+02  0.28633065120E+02  0.50197303844E+02  0.00000000000E+00 0.  1.
         14    1    4    4    0    0  0.67374366443E+02 -0.17854781232E+02  0.10121010153E+03  0.12288849873E+03  0.00000000000E+00 0. -1.
         -5    1    5    5    0  502 -0.55311564390E+02  0.52817318666E+02  0.14044009361E+03  0.15998296222E+03  0.47000000000E+01 0.  1.
         11    1    6    6    0    0 -0.22331151733E+02  0.20797097505E+02  0.10185796877E+03  0.10633082998E+03  0.00000000000E+00 0. -1.
        -12    1    6    6    0    0  0.13373257017E+02 -0.56954792042E+02  0.31517057677E+03  0.32055449584E+03  0.00000000000E+00 0.  1.
</event>
<event>
12    1  0.9028446E-003  0.2486285E+03  0.7818608E-02  0.1114189E+00
         21   -1    0    0  503  502  0.00000000000E+00  0.00000000000E+00  0.92580734689E+03  0.92580734689E+03  0.00000000000E+00 0.  1.
         21   -1    0    0  501  503 -0.00000000000E+00 -0.00000000000E+00 -0.69825911932E+02  0.69825911932E+02  0.00000000000E+00 0. -1.
          6    2    1    2  501    0 -0.15741847790E+03  0.87078549210E+02  0.32351118629E+03  0.40801421919E+03  0.17161836873E+03 0.  0.
         24    2    3    3    0    0 -0.37371209358E+02  0.56959777446E+02  0.23039985581E+03  0.25306165560E+03  0.79467505576E+02 0.  0.
         -6    2    1    2    0  502  0.15741847790E+03 -0.87078549210E+02  0.53247024866E+03  0.58761903963E+03  0.17148853930E+03 0.  0.
        -24    2    5    5    0    0  0.10774645326E+03 -0.10935169151E+03  0.27438031656E+03  0.32380867980E+03  0.77462328751E+02 0.  0.
          5    1    3    3  501    0 -0.12004726854E+03  0.30118771764E+02  0.93111330483E+02  0.15495256359E+03  0.47000000000E+01 0. -1.
        -13    1    4    4    0    0  0.14380928562E+02 -0.11235414552E+02  0.29592993588E+02  0.34767670557E+02  0.00000000000E+00 0.  1.
         14    1    4    4    0    0 -0.51752137920E+02  0.68195191998E+02  0.20080686222E+03  0.21829398504E+03  0.00000000000E+00 0. -1.
         -5    1    5    5    0  502  0.49672024638E+02  0.22273142299E+02  0.25808993210E+03  0.26381035983E+03  0.47000000000E+01 0.  1.
         13    1    6    6    0    0 -0.40783748567E+01 -0.33999138354E+02  0.34393187376E+02  0.48533142163E+02  0.00000000000E+00 0. -1.
        -14    1    6    6    0    0  0.11182482812E+03 -0.75352553155E+02  0.23998712918E+03  0.27527553764E+03  0.00000000000E+00 0.  1.
</event>
<event>
12    1  0.9028446E-003  0.2402944E+03  0.7818608E-02  0.1119617E+00
         21   -1    0    0  501  502  0.00000000000E+00  0.00000000000E+00  0.31263325602E+03  0.31263325602E+03  0.00000000000E+00 0. -1.
         21   -1    0    0  502  503 -0.00000000000E+00 -0.00000000000E+00 -0.23706337750E+03  0.23706337750E+03  0.00000000000E+00 0. -1.
          6    2    1    2  501    0  0.16432767652E+03 -0.30618990603E+02  0.16707299364E+03  0.29256975853E+03  0.17246034486E+03 0.  0.
         24    2    3    3    0    0  0.30504972062E+02 -0.59727074584E+02  0.71715271852E+02  0.12562371370E+03  0.78360452189E+02 0.  0.
         -6    2    1    2    0  503 -0.16432767652E+03  0.30618990603E+02 -0.91503115113E+02  0.25712687499E+03  0.17262763948E+03 0.  0.
        -24    2    5    5    0    0 -0.17735501383E+03 -0.29015717816E+01 -0.47504216733E+02  0.20010641657E+03  0.79515453189E+02 0.  0.
          5    1    3    3  501    0  0.13382270446E+03  0.29108083981E+02  0.95357721786E+02  0.16694604484E+03  0.47000000000E+01 0. -1.
        -11    1    4    4    0    0 -0.12633311934E+02  0.93689383946E+01 -0.18856839736E+01  0.15840876905E+02  0.00000000000E+00 0.  1.
         12    1    4    4    0    0  0.43138283996E+02 -0.69096012979E+02  0.73600955826E+02  0.10978283679E+03  0.00000000000E+00 0. -1.
         -5    1    5    5    0  503  0.13027337307E+02  0.33520562385E+02 -0.43998898380E+02  0.57020458422E+02  0.47000000000E+01 0.  1.
         13    1    6    6    0    0 -0.27986217046E+02  0.86959682184E+01 -0.40674514766E+02  0.50132468114E+02  0.00000000000E+00 0. -1.
        -14    1    6    6    0    0 -0.14936879678E+03 -0.11597540000E+02 -0.68297019674E+01  0.14997394846E+03  0.00000000000E+00 0.  1.
</event>
<event>
12    1  0.9028446E-003  0.3833888E+03  0.7818608E-02  0.1050007E+00
         21   -1    0    0  503  502  0.00000000000E+00  0.00000000000E+00  0.48635830693E+03  0.48635830693E+03  0.00000000000E+00 0. -1.
         21   -1    0    0  501  503 -0.00000000000E+00 -0.00000000000E+00 -0.35753293125E+03  0.35753293125E+03  0.00000000000E+00 0.  1.
          6    2    1    2  501    0 -0.21766306568E+03  0.26263739420E+03 -0.10584040493E+03  0.39438599152E+03  0.16727972978E+03 0.  0.
         24    2    3    3    0    0 -0.15191118483E+03  0.11599102950E+03 -0.10744306754E+03  0.23359692273E+03  0.80576563251E+02 0.  0.
         -6    2    1    2    0  502  0.21766306568E+03 -0.26263739420E+03  0.23466578062E+03  0.44950524666E+03  0.17501807675E+03 0.  0.
        -24    2    5    5    0    0  0.10014493355E+03 -0.17042956307E+03  0.20580084236E+03  0.29729463546E+03  0.83395862451E+02 0.  0.
          5    1    3    3  501    0 -0.65751880853E+02  0.14664636470E+03  0.16026626061E+01  0.16078906879E+03  0.47000000000E+01 0. -1.
        -13    1    4    4    0    0 -0.14323288242E+03  0.95488452799E+02 -0.61957045671E+02  0.18295458106E+03  0.00000000000E+00 0.  1.
         14    1    4    4    0    0 -0.86783024116E+01  0.20502576702E+02 -0.45486021867E+02  0.50642341666E+02  0.00000000000E+00 0. -1.
         -5    1    5    5    0  502  0.11751813213E+03 -0.92207831129E+02  0.28864938260E+02  0.15221061120E+03  0.47000000000E+01 0.  1.
         13    1    6    6    0    0  0.11341472523E+03 -0.13287662213E+03  0.16918260351E+03  0.24319097421E+03  0.00000000000E+00 0. -1.
        -14    1    6    6    0    0 -0.13269791674E+02 -0.37552940945E+02  0.36618238848E+02  0.54103661253E+02  0.00000000000E+00 0.  1.
</event>
<event>
12    1  0.9028446E-003  0.1747244E+03  0.7818608E-02  0.1173511E+00
         21   -1    0    0  501  502  0.00000000000E+00  0.00000000000E+00  0.50719136660E+03  0.50719136660E+03  0.00000000000E+00 0. -1.
         21   -1    0    0  502  503 -0.00000000000E+00 -0.00000000000E+00 -0.69515279296E+02  0.69515279296E+02  0.00000000000E+00 0. -1.
          6    2    1    2  501    0  0.28782729341E+02  0.11738532634E+02  0.32716483995E+03  0.36996679086E+03  0.16991867226E+03 0.  0.
         24    2    3    3    0    0  0.33428727275E+02  0.66658842999E+02  0.26494835327E+03  0.28671532239E+03  0.80294240375E+02 0.  0.
         -6    2    1    2    0  503 -0.28782729341E+02 -0.11738532634E+02  0.11051124735E+03  0.20673985503E+03  0.17193717810E+03 0.  0.
        -24    2    5    5    0    0 -0.81245875914E+02 -0.20043254601E+02  0.49816908988E+02  0.12594850114E+03  0.79866614483E+02 0.  0.
          5    1    3    3  501    0 -0.46459979342E+01 -0.54920310365E+02  0.62216486687E+02  0.83251468474E+02  0.47000000000E+01 0. -1.
        -11    1    4    4    0    0  0.10852292968E+02  0.80827739100E+01 -0.89441442516E+00  0.13561101500E+02  0.00000000000E+00 0.  1.
         12    1    4    4    0    0  0.22576434308E+02  0.58576069089E+02  0.26584276769E+03  0.27315422089E+03  0.00000000000E+00 0. -1.
         -5    1    5    5    0  503  0.52463146573E+02  0.83047219673E+01  0.60694338365E+02  0.80791353900E+02  0.47000000000E+01 0.  1.
         13    1    6    6    0    0 -0.39140807450E+02 -0.50000774807E+02  0.21601623755E+02  0.67072426809E+02  0.00000000000E+00 0. -1.
        -14    1    6    6    0    0 -0.42105068464E+02  0.29957520206E+02  0.28215285233E+02  0.58876074326E+02  0.00000000000E+00 0.  1.
</event>
<event>
12    1  0.9028446E-003  0.1768962E+03  0.7818608E-02  0.1171208E+00
         21   -1    0    0  503  502  0.00000000000E+00  0.00000000000E+00  0.91096933986E+03  0.91096933986E+03  0.00000000000E+00 0. -1.
         21   -1    0    0  501  503 -0.00000000000E+00 -0.00000000000E+00 -0.34239459728E+02  0.34239459728E+02  0.00000000000E+00 0.  1.
          6    2    1    2  501    0  0.17090862670E+02 -0.30010276568E+02  0.40275242166E+03  0.43929684217E+03  0.17198688352E+03 0.  0.
         24    2    3    3    0    0  0.78068756373E+02 -0.17437953289E+02  0.25603544778E+03  0.27984676454E+03  0.79757433297E+02 0.  0.
         -6    2    1    2    0  502 -0.17090862670E+02  0.30010276568E+02  0.47397745848E+03  0.50591195742E+03  0.17349225697E+03 0.  0.
        -24    2    5    5    0    0  0.53612109993E+02  0.43100721259E+02  0.27313912412E+03  0.29253811499E+03  0.79004032092E+02 0.  0.
          5    1    3    3  501    0 -0.60977893703E+02 -0.12572323278E+02  0.14671697387E+03  0.15945007763E+03  0.47000000000E+01 0. -1.
        -13    1    4    4    0    0  0.89273031311E+00 -0.23640818920E+02  0.18562332175E+02  0.30070674458E+02  0.00000000000E+00 0.  1.
         14    1    4    4    0    0  0.77176026060E+02  0.62028656303E+01  0.23747311561E+03  0.24977609008E+03  0.00000000000E+00 0. -1.
         -5    1    5    5    0  502 -0.70702972663E+02 -0.13090444691E+02  0.20083833436E+03  0.21337384243E+03  0.47000000000E+01 0.  1.
         13    1    6    6    0    0 -0.17924978750E+02 -0.32222322928E+01  0.32530940682E+02  0.37282029797E+02  0.00000000000E+00 0. -1.
        -14    1    6    6    0    0  0.71537088742E+02  0.46322953552E+02  0.24060818344E+03  0.25525608519E+03  0.00000000000E+00 0.  1.
</event>
<event>
12    1  0.9028446E-003  0.2621063E+03  0.7818608E-02  0.1106060E+00
         21   -1    0    0  501  502  0.00000000000E+00  0.00000000000E+00  0.14676474781E+03  0.14676474781E+03  0.00000000000E+00 0.  1.
         21   -1    0    0  502  503 -0.00000000000E+00 -0.00000000000E+00 -0.48415581683E+03  0.48415581683E+03  0.00000000000E+00 0.  1.
          6    2    1    2  501    0 -0.19182605814E+03 -0.48156185378E+02 -0.23017480304E+03  0.34882681261E+03  0.17199840251E+03 0.  0.
         24    2    3    3    0    0 -0.14840483484E+03 -0.81462942141E+02 -0.22637096128E+03  0.29376955249E+03  0.79978321536E+02 0.  0.
         -6    2    1    2    0  503  0.19182605814E+03  0.48156185378E+02 -0.10721626598E+03  0.28209375203E+03  0.17019195772E+03 0.  0.
        -24    2    5    5    0    0  0.90071609868E+02 -0.30864055133E+02 -0.84713786002E+02  0.15122504775E+03  0.81407031184E+02 0.  0.
          5    1    3    3  501    0 -0.43421223301E+02  0.33306756763E+02 -0.38038417615E+01  0.55057260113E+02  0.47000000000E+01 0. -1.
        -11    1    4    4    0    0 -0.81482108941E+02 -0.18432693957E+02 -0.15961948954E+03  0.18015959515E+03  0.00000000000E+00 0.  1.
         12    1    4    4    0    0 -0.66922725896E+02 -0.63030248184E+02 -0.66751471736E+02  0.11360995734E+03  0.00000000000E+00 0. -1.
         -5    1    5    5    0  503  0.10175444827E+03  0.79020240510E+02 -0.22502479976E+02  0.13086870427E+03  0.47000000000E+01 0.  1.
         11    1    6    6    0    0  0.20140479661E+02 -0.47411397728E+02 -0.22648933709E+02  0.56271251574E+02  0.00000000000E+00 0. -1.
        -12    1    6    6    0    0  0.69931130207E+02  0.16547342596E+02 -0.62064852293E+02  0.94953796181E+02  0.00000000000E+00 0.  1.
</event>
<event>
12    1  0.9028446E-003  0.1722849E+03  0.7818608E-02  0.1175528E+00
         21   -1    0    0  501  502  0.00000000000E+00  0.00000000000E+00  0.26914158925E+02  0.26914158925E+02  0.00000000000E+00 0.  1.
         21   -1    0    0  502  503 -0.00000000000E+00 -0.00000000000E+00 -0.11087540594E+04  0.11087540594E+04  0.00000000000E+00 0.  1.
          6    2    1    2  501    0  0.38625006206E+01 -0.49939791560E+01 -0.58621130563E+03  0.61100391687E+03  0.17216919830E+03 0.  0.
         24    2    3    3    0    0 -0.50479066728E+01  0.41125112595E+02 -0.48838127482E+03  0.50237992822E+03  0.11023867939E+03 0.  0.
         -6    2    1    2    0  503 -0.38625006206E+01  0.49939791560E+01 -0.49562859489E+03  0.52466430150E+03  0.17200310014E+03 0.  0.
        -24    2    5    5    0    0 -0.32421470436E+02  0.62917065918E+02 -0.30566902226E+03  0.32397193002E+03  0.80712770626E+02 0.  0.
          5    1    3    3  501    0  0.89104072935E+01 -0.46119091752E+02 -0.97830030812E+02  0.10862398865E+03  0.47000000000E+01 0. -1.
        -13    1    4    4    0    0 -0.29093050974E+02  0.66900808577E+02 -0.22207368507E+03  0.23374953562E+03  0.00000000000E+00 0.  1.
         14    1    4    4    0    0  0.24045144301E+02 -0.25775695981E+02 -0.26630758975E+03  0.26863039260E+03  0.00000000000E+00 0. -1.
         -5    1    5    5    0  503  0.28558969815E+02 -0.57923086762E+02 -0.18995957263E+03  0.20069237148E+03  0.47000000000E+01 0.  1.
         13    1    6    6    0    0  0.32804914753E+01  0.46952532482E+01  0.39190007552E+01  0.69401436803E+01  0.00000000000E+00 0. -1.
        -14    1    6    6    0    0 -0.35701961911E+02  0.58221812669E+02 -0.30958802301E+03  0.31703178634E+03  0.00000000000E+00 0.  1.
</event>
<event>
12    1  0.9028446E-003  0.2188769E+03  0.7818608E-02  0.1134856E+00
         21   -1    0    0  501  502  0.00000000000E+00  0.00000000000E+00  0.67299104285E+02  0.67299104285E+02  0.00000000000E+00 0. -1.
         21   -1    0    0  502  503 -0.00000000000E+00 -0.00000000000E+00 -0.10740729700E+04  0.10740729700E+04  0.00000000000E+00 0.  1.
          6    2    1    2  501    0  0.79764879276E+02  0.10799750915E+03 -0.17146604245E+03  0.27804265552E+03  0.17286184259E+03 0.  0.
         24    2    3    3    0    0  0.10543426931E+03  0.59802770339E+02 -0.66457058508E+02  0.15959170726E+03  0.79750961848E+02 0.  0.
         -6    2    1    2    0  503 -0.79764879276E+02 -0.10799750915E+03 -0.83530782328E+03  0.86332941878E+03  0.17196693797E+03 0.  0.
        -24    2    5    5    0    0 -0.64126839590E+02 -0.14537356595E+03 -0.66366841719E+03  0.68691033357E+03  0.78385669261E+02 0.  0.
          5    1    3    3  501    0 -0.25669390038E+02  0.48194738810E+02 -0.10500898394E+03  0.11845094825E+03  0.47000000000E+01 0. -1.
        -13    1    4    4    0    0  0.53986051804E+02 -0.13229034644E+02 -0.21653559978E+02  0.59652140001E+02  0.00000000000E+00 0.  1.
         14    1    4    4    0    0  0.51448217509E+02  0.73031804983E+02 -0.44803498529E+02  0.99939567261E+02  0.00000000000E+00 0. -1.
         -5    1    5    5    0  503 -0.15638039686E+02  0.37376056801E+02 -0.17163940609E+03  0.17641908522E+03  0.47000000000E+01 0.  1.
         11    1    6    6    0    0 -0.80888060277E+02 -0.10018628253E+03 -0.46757258750E+03  0.48497865323E+03  0.00000000000E+00 0. -1.
        -12    1    6    6    0    0  0.16761220687E+02 -0.45187283415E+02 -0.19609582969E+03  0.20193168034E+03  0.00000000000E+00 0.  1.
</event>
<event>
12    1  0.9028446E-003  0.1935760E+03  0.7818608E-02  0.1155676E+00
         21   -1    0    0  503  502  0.00000000000E+00  0.00000000000E+00  0.26962255522E+02  0.26962255522E+02  0.00000000000E+00 0. -1.
         21   -1    0    0  501  503 -0.00000000000E+00 -0.00000000000E+00 -0.13797921171E+04  0.13797921171E+04  0.00000000000E+00 0. -1.
          6    2    1    2  501    0 -0.57767289681E+02 -0.65726877658E+02 -0.64679227864E+03  0.67513844719E+03  0.17266901567E+03 0.  0.
         24    2    3    3    0    0  0.40493482353E+01 -0.84311750430E+02 -0.29215640532E+03  0.31464519225E+03  0.80754958694E+02 0.  0.
         -6    2    1    2    0  502  0.57767289681E+02  0.65726877658E+02 -0.70603758290E+03  0.73161592538E+03  0.17063326641E+03 0.  0.
        -24    2    5    5    0    0 -0.29615401998E+02  0.49116725887E+02 -0.45824211734E+03  0.46829802872E+03  0.77638140174E+02 0.  0.
          5    1    3    3  501    0 -0.61816637917E+02  0.18584872772E+02 -0.35463587332E+03  0.36049325495E+03  0.47000000000E+01 0. -1.
        -13    1    4    4    0    0 -0.20032737849E+02 -0.87417399671E+02 -0.19723632966E+03  0.21666859968E+03  0.00000000000E+00 0.  1.
         14    1    4    4    0    0  0.24082086084E+02  0.31056492405E+01 -0.94920075661E+02  0.97976592566E+02  0.00000000000E+00 0. -1.
         -5    1    5    5    0  502  0.87382691680E+02  0.16610151771E+02 -0.24779546556E+03  0.26331789666E+03  0.47000000000E+01 0.  1.
         11    1    6    6    0    0 -0.32704599078E+01  0.48831318946E+02 -0.12848877176E+03  0.13749384745E+03  0.00000000000E+00 0. -1.
        -12    1    6    6    0    0 -0.26344942090E+02  0.28540694105E+00 -0.32975334558E+03  0.33080418128E+03  0.00000000000E+00 0.  1.
</event>
<event>
12    1  0.9028446E-003  0.1769904E+03  0.7818608E-02  0.1170839E+00
         21   -1    0    0  503  502  0.00000000000E+00  0.00000000000E+00  0.43519545758E+02  0.43519545758E+02  0.00000000000E+00 0.  1.
         21   -1    0    0  501  503 -0.00000000000E+00 -0.00000000000E+00 -0.10929752149E+04  0.10929752149E+04  0.00000000000E+00 0. -1.
          6    2    1    2  501    0 -0.38261354000E+02 -0.84856159667E+01 -0.85707122681E+03  0.87508061026E+03  0.17221802966E+03 0.  0.
         24    2    3    3    0    0 -0.64905595672E+02  0.36939242606E+02 -0.71887273433E+03  0.72711356422E+03  0.79617103152E+02 0.  0.
         -6    2    1    2    0  502  0.38261354000E+02  0.84856159667E+01 -0.19238444229E+03  0.26141415036E+03  0.17259677715E+03 0.  0.
        -24    2    5    5    0    0  0.97092295239E+01  0.48777156649E+02 -0.18942373654E+03  0.21172020866E+03  0.80440130808E+02 0.  0.
          5    1    3    3  501    0  0.26644241672E+02 -0.45424858573E+02 -0.13819849248E+03  0.14796704604E+03  0.47000000000E+01 0. -1.
        -13    1    4    4    0    0 -0.26730377014E+02  0.48870937131E+02 -0.57785155585E+03  0.58053019056E+03  0.00000000000E+00 0.  1.
         14    1    4    4    0    0 -0.38175218658E+02 -0.11931694525E+02 -0.14102117848E+03  0.14658337366E+03  0.00000000000E+00 0. -1.
         -5    1    5    5    0  502  0.28552124476E+02 -0.40291540682E+02 -0.29607057566E+01  0.49693941695E+02  0.47000000000E+01 0.  1.
         13    1    6    6    0    0  0.98422730645E+01 -0.10451605672E+02 -0.11828250315E+03  0.11915056421E+03  0.00000000000E+00 0. -1.
        -14    1    6    6    0    0 -0.13304354068E+00  0.59228762320E+02 -0.71141233389E+02  0.92569644456E+02  0.00000000000E+00 0.  1.
</event>
<event>
12    1  0.9028446E-003  0.1801790E+03  0.7818608E-02  0.1170579E+00
         21   -1    0    0  503  502  0.00000000000E+00  0.00000000000E+00  0.71741670198E+02  0.71741670198E+02  0.00000000000E+00 0. -1.
         21   -1    0    0  501  503 -0.00000000000E+00 -0.00000000000E+00 -0.42367302491E+03  0.42367302491E+03  0.00000000000E+00 0. -1.
          6    2    1    2  501    0 -0.57608967962E+02  0.23598842294E+01 -0.18767415619E+03  0.26016541601E+03  0.17070469398E+03 0.  0.
         24    2    3    3    0    0  0.30301489357E+02  0.11395320079E+02 -0.12433135001E+03  0.15133394675E+03  0.79972778293E+02 0.  0.
         -6    2    1    2    0  502  0.57608967962E+02 -0.23598842294E+01 -0.16425719853E+03  0.23524927910E+03  0.15823221481E+03 0.  0.
        -24    2    5    5    0    0 -0.22125899367E+02 -0.25482654142E+02 -0.85739882185E+02  0.12088420348E+03  0.78247953123E+02 0.  0.
          5    1    3    3  501    0 -0.87910457318E+02 -0.90354358499E+01 -0.63342806183E+02  0.10883146926E+03  0.47000000000E+01 0. -1.
        -13    1    4    4    0    0 -0.13192693547E+01 -0.32277948553E+02 -0.49172697739E+02  0.58835029000E+02  0.00000000000E+00 0.  1.
         14    1    4    4    0    0  0.31620758711E+02  0.43673268633E+02 -0.75158652267E+02  0.92498917751E+02  0.00000000000E+00 0. -1.
         -5    1    5    5    0  502  0.79734867329E+02  0.23122769913E+02 -0.78517316341E+02  0.11436507562E+03  0.47000000000E+01 0.  1.
         13    1    6    6    0    0 -0.23354294422E+02  0.98998031964E+01  0.28080685008E+01  0.25520862446E+02  0.00000000000E+00 0. -1.
        -14    1    6    6    0    0  0.12283950550E+01 -0.35382457339E+02 -0.88547950686E+02  0.95363341030E+02  0.00000000000E+00 0.  1.
</event>
<event>
12    1  0.9028446E-003  0.2727966E+03  0.7818608E-02  0.1099699E+00
         21   -1    0    0  501  502  0.00000000000E+00  0.00000000000E+00  0.23220146940E+04  0.23220146940E+04  0.00000000000E+00 0.  1.
         21   -1    0    0  502  503 -0.00000000000E+00 -0.00000000000E+00 -0.37121200887E+02  0.37121200887E+02  0.00000000000E+00 0.  1.
          6    2    1    2  501    0 -0.19731077294E+03  0.77494305864E+02  0.15789394739E+04  0.16023319998E+04  0.17170051489E+03 0.  0.
         24    2    3    3    0    0 -0.19254352564E+03  0.10456699801E+03  0.15118658514E+04  0.15296916657E+04  0.78809727057E+02 0.  0.
         -6    2    1    2    0  503  0.19731077294E+03 -0.77494305864E+02  0.70595401922E+03  0.75680389508E+03  0.17159297714E+03 0.  0.
        -24    2    5    5    0    0  0.27616879678E+02 -0.40823120115E+02  0.18916985743E+03  0.21161699763E+03  0.81038876773E+02 0.  0.
          5    1    3    3  501    0 -0.47672473022E+01 -0.27072692141E+02  0.67073622412E+02  0.72640334045E+02  0.47000000000E+01 0. -1.
        -13    1    4    4    0    0 -0.50897647926E+02 -0.79482761300E+01  0.37567380787E+03  0.37918934001E+03  0.00000000000E+00 0.  1.
         14    1    4    4    0    0 -0.14164587771E+03  0.11251527414E+03  0.11361920436E+04  0.11505023257E+04  0.00000000000E+00 0. -1.
         -5    1    5    5    0  503  0.16969389326E+03 -0.36671185749E+02  0.51678416179E+03  0.54518689745E+03  0.47000000000E+01 0.  1.
         13    1    6    6    0    0  0.65102757991E+00  0.15509719593E+02  0.10845826369E+03  0.10956354413E+03  0.00000000000E+00 0. -1.
        -14    1    6    6    0    0  0.26965852099E+02 -0.56332839708E+02  0.80711593738E+02  0.10205345351E+03  0.00000000000E+00 0.  1.
</event>
<event>
12    1  0.9028446E-003  0.2892344E+03  0.7818608E-02  0.1090824E+00
         21   -1    0    0  501  502  0.00000000000E+00  0.00000000000E+00  0.40442802969E+03  0.40442802969E+03  0.00000000000E+00 0. -1.
         21   -1    0    0  502  503 -0.00000000000E+00 -0.00000000000E+00 -0.20663855997E+03  0.20663855997E+03  0.00000000000E+00 0.  1.
          6    2    1    2  501    0 -0.20343057678E+03  0.11244300287E+03  0.89696577606E+02  0.30282336082E+03  0.17213100638E+03 0.  0.
         24    2    3    3    0    0 -0.19716900883E+03  0.13129897269E+03  0.46717374587E+02  0.25524125575E+03  0.82768032926E+02 0.  0.
         -6    2    1    2    0  503  0.20343057678E+03 -0.11244300287E+03  0.10809289211E+03  0.30824322884E+03  0.17117939811E+03 0.  0.
        -24    2    5    5    0    0  0.77572018999E+02 -0.10639928542E+03  0.92958845161E+02  0.18124703809E+03  0.82890987775E+02 0.  0.
          5    1    3    3  501    0 -0.62615679544E+01 -0.18855969819E+02  0.42979203019E+02  0.47582105073E+02  0.47000000000E+01 0. -1.
        -13    1    4    4    0    0 -0.19460474508E+03  0.13954275845E+03  0.52101138293E+02  0.24506675999E+03  0.00000000000E+00 0.  1.
         14    1    4    4    0    0 -0.25642637466E+01 -0.82437857552E+01 -0.53837637062E+01  0.10174495751E+02  0.00000000000E+00 0. -1.
         -5    1    5    5    0  503  0.12585855778E+03 -0.60437174510E+01  0.15134046947E+02  0.12699619075E+03  0.47000000000E+01 0.  1.
         11    1    6    6    0    0  0.64064532061E+02 -0.11868051006E+03  0.70115531357E+02  0.15200498503E+03  0.00000000000E+00 0. -1.
        -12    1    6    6    0    0  0.13507486938E+02  0.12281224637E+02  0.22843313804E+02  0.29242053066E+02  0.00000000000E+00 0.  1.
</event>
<event>
12    1  0.9028446E-003  0.3227602E+03  0.7818608E-02  0.1074430E+00
         21   -1    0    0  501  502  0.00000000000E+00  0.00000000000E+00  0.67170620736E+02  0.67170620736E+02  0.00000000000E+00 0. -1.
         21   -1    0    0  502  503 -0.00000000000E+00 -0.00000000000E+00 -0.16880934452E+04  0.16880934452E+04  0.00000000000E+00 0.  1.
          6    2    1    2  501    0  0.26437575857E+03 -0.68214806621E+02 -0.55901791928E+03  0.64550380471E+03  0.17212299747E+03 0.  0.
         24    2    3    3    0    0  0.22992796426E+03 -0.84263160053E+02 -0.54806113435E+03  0.60567490419E+03  0.80646969469E+02 0.  0.
         -6    2    1    2    0  503 -0.26437575857E+03  0.68214806621E+02 -0.10619049052E+04  0.11097602612E+04  0.17140014052E+03 0.  0.
        -24    2    5    5    0    0 -0.20679739506E+03  0.10446225331E+03 -0.91166020892E+03  0.94476115791E+03  0.88157722311E+02 0.  0.
          5    1    3    3  501    0  0.34447794316E+02  0.16048353433E+02 -0.10956784929E+02  0.39828900526E+02  0.47000000000E+01 0. -1.
        -13    1    4    4    0    0  0.16450091540E+03 -0.29732038610E+02 -0.41821546782E+03  0.45038730312E+03  0.00000000000E+00 0.  1.
         14    1    4    4    0    0  0.65427048858E+02 -0.54531121443E+02 -0.12984566653E+03  0.15528760107E+03  0.00000000000E+00 0. -1.
         -5    1    5    5    0  503 -0.57578363512E+02 -0.36247446694E+02 -0.15024469623E+03  0.16499910328E+03  0.47000000000E+01 0.  1.
         13    1    6    6    0    0 -0.15389582288E+01  0.29053545902E+02 -0.11699842586E+03  0.12056163807E+03  0.00000000000E+00 0. -1.
        -14    1    6    6    0    0 -0.20525843683E+03  0.75408707413E+02 -0.79466178306E+03  0.82419951984E+03  0.00000000000E+00 0.  1.
</event>
<event>
12    1  0.9028446E-003  0.1939108E+03  0.7818608E-02  0.1155190E+00
         21   -1    0    0  503  502  0.00000000000E+00  0.00000000000E+00  0.64207769712E+02  0.64207769712E+02  0.00000000000E+00 0.  1.
         21   -1    0    0  501  503 -0.00000000000E+00 -0.00000000000E+00 -0.59058152705E+03  0.59058152705E+03  0.00000000000E+00 0. -1.
          6    2    1    2  501    0 -0.21182823557E+02 -0.85124047648E+02 -0.22486216068E+03  0.29630549103E+03  0.17186953542E+03 0.  0.
         24    2    3    3    0    0 -0.68965463148E+02 -0.62727646696E+02 -0.21490149896E+03  0.24239738214E+03  0.62312469431E+02 0.  0.
         -6    2    1    2    0  502  0.21182823557E+02  0.85124047648E+02 -0.30151159665E+03  0.35848380573E+03  0.17293519178E+03 0.  0.
        -24    2    5    5    0    0  0.65284461344E+02  0.77492395715E+02 -0.28207810590E+03  0.30946394109E+03  0.77024286573E+02 0.  0.
          5    1    3    3  501    0  0.47782639591E+02 -0.22396400952E+02 -0.99606617259E+01  0.53908108888E+02  0.47000000000E+01 0. -1.
        -13    1    4    4    0    0 -0.36417301481E+02 -0.11113003931E+02 -0.14354107592E+03  0.14850508133E+03  0.00000000000E+00 0.  1.
         14    1    4    4    0    0 -0.32548161667E+02 -0.51614642765E+02 -0.71360423033E+02  0.93892300808E+02  0.00000000000E+00 0. -1.
         -5    1    5    5    0  502 -0.44101637787E+02  0.76316519322E+01 -0.19433490757E+02  0.49019864644E+02  0.47000000000E+01 0.  1.
         11    1    6    6    0    0 -0.76621993363E+01  0.43567735255E+02 -0.13151812612E+03  0.13875833075E+03  0.00000000000E+00 0. -1.
        -12    1    6    6    0    0  0.72946660680E+02  0.33924660460E+02 -0.15055997977E+03  0.17070561034E+03  0.00000000000E+00 0.  1.
</event>
<event>
12    1  0.9028446E-003  0.1924475E+03  0.7818608E-02  0.1156475E+00
         21   -1    0    0  501  502  0.00000000000E+00  0.00000000000E+00  0.98964937713E+03  0.98964937713E+03  0.00000000000E+00 0.  1.
         21   -1    0    0  502  503 -0.00000000000E+00 -0.00000000000E+00 -0.41755360210E+02  0.41755360210E+02  0.00000000000E+00 0.  1.
          6    2    1    2  501    0 -0.31045463585E+02 -0.80605999040E+02  0.64241506495E+03  0.67035979972E+03  0.17095027790E+03 0.  0.
         24    2    3    3    0    0  0.40584787213E+02 -0.77044846333E+01  0.31968603701E+03  0.33180162288E+03  0.78655391722E+02 0.  0.
         -6    2    1    2    0  503  0.31045463585E+02  0.80605999040E+02  0.30547895197E+03  0.36104493762E+03  0.17197357063E+03 0.  0.
        -24    2    5    5    0    0  0.50470470681E+02  0.11577965344E+03  0.26278403524E+03  0.30222773963E+03  0.79586185125E+02 0.  0.
          5    1    3    3  501    0 -0.71630250798E+02 -0.72901514407E+02  0.32272902794E+03  0.33855817685E+03  0.47000000000E+01 0. -1.
        -11    1    4    4    0    0  0.19633585530E+02 -0.11171497609E+02  0.30533866338E+03  0.30617311997E+03  0.00000000000E+00 0.  1.
         12    1    4    4    0    0  0.20951201683E+02  0.34670129760E+01  0.14347373632E+02  0.25628502904E+02  0.00000000000E+00 0. -1.
         -5    1    5    5    0  503 -0.19425007097E+02 -0.35173654404E+02  0.42694916726E+02  0.58817197987E+02  0.47000000000E+01 0.  1.
         11    1    6    6    0    0 -0.18890796398E+02  0.36284849259E+02  0.10225374917E+03  0.11013301818E+03  0.00000000000E+00 0. -1.
        -12    1    6    6    0    0  0.69361267079E+02  0.79494804185E+02  0.16053028607E+03  0.19209472145E+03  0.00000000000E+00 0.  1.
</event>
<event>
12    1  0.9028446E-003  0.1771149E+03  0.7818608E-02  0.1171788E+00
         21   -1    0    0  501  502  0.00000000000E+00  0.00000000000E+00  0.12271334230E+04  0.12271334230E+04  0.00000000000E+00 0.  1.
         21   -1    0    0  502  503 -0.00000000000E+00 -0.00000000000E+00 -0.24897751972E+02  0.24897751972E+02  0.00000000000E+00 0.  1.
          6    2    1    2  501    0 -0.15628645920E+02  0.19356655909E+02  0.59269154189E+03  0.61727631699E+03  0.17066884011E+03 0.  0.
         24    2    3    3    0    0 -0.11697774034E+01  0.15798806614E+02  0.59539992964E+03  0.60142883976E+03  0.83454193504E+02 0.  0.
         -6    2    1    2    0  503  0.15628645920E+02 -0.19356655909E+02  0.60954412916E+03  0.63475485801E+03  0.17535891670E+03 0.  0.
        -24    2    5    5    0    0  0.24348881904E+02  0.53804139381E+02  0.27867818463E+03  0.29575204425E+03  0.79498349832E+02 0.  0.
          5    1    3    3  501    0 -0.14458868516E+02  0.35578492947E+01 -0.27083877461E+01  0.15847477230E+02  0.47000000000E+01 0. -1.
        -11    1    4    4    0    0  0.13903085031E+02  0.46206513270E+02  0.42109514408E+03  0.42385074969E+03  0.00000000000E+00 0.  1.
         12    1    4    4    0    0 -0.15072862435E+02 -0.30407706656E+02  0.17430478556E+03  0.17757809007E+03  0.00000000000E+00 0. -1.
         -5    1    5    5    0  503 -0.87202359843E+01 -0.73160795290E+02  0.33086594453E+03  0.33900281376E+03  0.47000000000E+01 0.  1.
         11    1    6    6    0    0 -0.28818102531E+02  0.12633781533E+02  0.78012210674E+02  0.84118966253E+02  0.00000000000E+00 0. -1.
        -12    1    6    6    0    0  0.53166984435E+02  0.41170357848E+02  0.20066597396E+03  0.21163307800E+03  0.00000000000E+00 0.  1.
</event>
<event>
12    1  0.9028446E-003  0.1949286E+03  0.7818608E-02  0.1155873E+00
         21   -1    0    0  501  502  0.00000000000E+00  0.00000000000E+00  0.50062486065E+03  0.50062486065E+03  0.00000000000E+00 0. -1.
         21   -1    0    0  502  503 -0.00000000000E+00 -0.00000000000E+00 -0.10895768788E+03  0.10895768788E+03  0.00000000000E+00 0. -1.
          6    2    1    2  501    0 -0.58957347684E+02 -0.72449335126E+02  0.17582451619E+02  0.18775728341E+03  0.16192214136E+03 0.  0.
         24    2    3    3    0    0 -0.48139467475E+02 -0.45443267949E+02 -0.49411943565E+02  0.11456784987E+03  0.79383582219E+02 0.  0.
         -6    2    1    2    0  503  0.58957347684E+02  0.72449335126E+02  0.37408472115E+03  0.42182526512E+03  0.17109149800E+03 0.  0.
        -24    2    5    5    0    0  0.30902473544E+02  0.44038502389E+02  0.36828598932E+03  0.38120548335E+03  0.82393555839E+02 0.  0.
          5    1    3    3  501    0 -0.10817880209E+02 -0.27006067177E+02  0.66994395184E+02  0.73189433545E+02  0.47000000000E+01 0. -1.
        -11    1    4    4    0    0 -0.66464580939E+02 -0.41920033440E+02 -0.22351655862E+02  0.81697161779E+02  0.00000000000E+00 0.  1.
         12    1    4    4    0    0  0.18325113464E+02 -0.35232345088E+01 -0.27060287702E+02  0.32870688089E+02  0.00000000000E+00 0. -1.
         -5    1    5    5    0  503  0.28054874139E+02  0.28410832737E+02  0.57987318291E+01  0.40619781765E+02  0.47000000000E+01 0.  1.
         11    1    6    6    0    0  0.36302479427E+02  0.64902469569E+02  0.24455894100E+03  0.25561548504E+03  0.00000000000E+00 0. -1.
        -12    1    6    6    0    0 -0.54000058824E+01 -0.20863967180E+02  0.12372704833E+03  0.12558999832E+03  0.00000000000E+00 0.  1.
</event>
<event>
12    1  0.9028446E-003  0.2515222E+03  0.7818608E-02  0.1112414E+00
         21   -1    0    0  501  502  0.00000000000E+00  0.00000000000E+00  0.41657264916E+02  0.41657264916E+02  0.00000000000E+00 0. -1.
         21   -1    0    0  502  503 -0.00000000000E+00 -0.00000000000E+00 -0.15253022296E+04  0.15253022296E+04  0.00000000000E+00 0. -1.
          6    2    1    2  501    0 -0.19439130584E+02 -0.18236731431E+03 -0.68017766832E+03  0.72504315478E+03  0.17149401940E+03 0.  0.
         24    2    3    3    0    0  0.21718617980E+02 -0.66834869292E+02 -0.16364734350E+03  0.19413132352E+03  0.77252311396E+02 0.  0.
         -6    2    1    2    0  503  0.19439130584E+02  0.18236731431E+03 -0.80346729633E+03  0.84191633969E+03  0.17212701605E+03 0.  0.
        -24    2    5    5    0    0  0.22667953683E+02  0.17898677689E+03 -0.80932408895E+03  0.83307069943E+03  0.80319405335E+02 0.  0.
          5    1    3    3  501    0 -0.41157748565E+02 -0.11553244501E+03 -0.51653032481E+03  0.53091183126E+03  0.47000000000E+01 0. -1.
        -11    1    4    4    0    0  0.15661589292E+02 -0.44672974140E+02 -0.16446474221E+03  0.17114207965E+03  0.00000000000E+00 0.  1.
         12    1    4    4    0    0  0.60570286885E+01 -0.22161895152E+02  0.81739870077E+00  0.22989243874E+02  0.00000000000E+00 0. -1.
         -5    1    5    5    0  503 -0.32288230987E+01  0.33805374159E+01  0.58567926237E+01  0.88456402629E+01  0.47000000000E+01 0.  1.
         11    1    6    6    0    0 -0.24614912920E+02  0.96329817758E+02 -0.34280676429E+03  0.35693389496E+03  0.00000000000E+00 0. -1.
        -12    1    6    6    0    0  0.47282866603E+02  0.82656959132E+02 -0.46651732466E+03  0.47613680447E+03  0.00000000000E+00 0.  1.
</event>
<event>
12    1  0.9028446E-003  0.2922701E+03  0.7818608E-02  0.1089360E+00
         21   -1    0    0  503  502  0.00000000000E+00  0.00000000000E+00  0.78190984180E+02  0.78190984180E+02  0.00000000000E+00 0.  1.
         21   -1    0    0  501  503 -0.00000000000E+00 -0.00000000000E+00 -0.13970343945E+04  0.13970343945E+04  0.00000000000E+00 0. -1.
          6    2    1    2  501    0  0.10860398725E+03  0.20822818743E+03 -0.10082004046E+04  0.10497094256E+04  0.17397706246E+03 0.  0.
         24    2    3    3    0    0 -0.11506897256E+02  0.11609158392E+03 -0.45497571414E+03  0.47612819646E+03  0.78009579319E+02 0.  0.
         -6    2    1    2    0  502 -0.10860398725E+03 -0.20822818743E+03 -0.31064300577E+03  0.42551595313E+03  0.17149619602E+03 0.  0.
        -24    2    5    5    0    0 -0.12965284950E+03 -0.10968739624E+03 -0.22309483397E+03  0.29194906159E+03  0.81374217914E+02 0.  0.
          5    1    3    3  501    0  0.12011088451E+03  0.92136603506E+02 -0.55322469042E+03  0.57358122909E+03  0.47000000000E+01 0. -1.
        -11    1    4    4    0    0 -0.13153742234E+02 -0.66707922651E+01 -0.25598388147E+02  0.29543152844E+02  0.00000000000E+00 0.  1.
         12    1    4    4    0    0  0.16468449777E+01  0.12276237619E+03 -0.42937732600E+03  0.44658504362E+03  0.00000000000E+00 0. -1.
         -5    1    5    5    0  502  0.21048862254E+02 -0.98540791190E+02 -0.87548171798E+02  0.13356689154E+03  0.47000000000E+01 0.  1.
         13    1    6    6    0    0 -0.54489046790E+02 -0.12438586937E+01 -0.47437916421E+02  0.72256206093E+02  0.00000000000E+00 0. -1.
        -14    1    6    6    0    0 -0.75163802713E+02 -0.10844353755E+03 -0.17565691755E+03  0.21969285550E+03  0.00000000000E+00 0.  1.
</event>
<event>
12    1  0.9028446E-003  0.1861169E+03  0.7818608E-02  0.1162368E+00
         21   -1    0    0  503  502  0.00000000000E+00  0.00000000000E+00  0.39502334661E+03  0.39502334661E+03  0.00000000000E+00 0. -1.
         21   -1    0    0  501  503 -0.00000000000E+00 -0.00000000000E+00 -0.30341143951E+03  0.30341143951E+03  0.00000000000E+00 0.  1.
          6    2    1    2  501    0  0.60846597295E+02 -0.34082668302E+02 -0.24920072681E+03  0.31011435262E+03  0.17089755053E+03 0.  0.
         24    2    3    3    0    0  0.79120293193E+02 -0.77319881486E+02 -0.19364789344E+03  0.23723368398E+03  0.80882194044E+02 0.  0.
         -6    2    1    2    0  502 -0.60846597295E+02  0.34082668302E+02  0.34081263390E+03  0.38832043351E+03  0.17255599373E+03 0.  0.
        -24    2    5    5    0    0 -0.75775861674E+02  0.47513409203E+01  0.33801747898E+03  0.35495709147E+03  0.77292717883E+02 0.  0.
          5    1    3    3  501    0 -0.18273695898E+02  0.43237213183E+02 -0.55552833362E+02  0.72880668631E+02  0.47000000000E+01 0. -1.
        -11    1    4    4    0    0  0.27287992890E+02 -0.76488921566E+02 -0.89212243559E+02  0.12064001856E+03  0.00000000000E+00 0.  1.
         12    1    4    4    0    0  0.51832300303E+02 -0.83095991931E+00 -0.10443564989E+03  0.11659366542E+03  0.00000000000E+00 0. -1.
         -5    1    5    5    0  502  0.14929264379E+02  0.29331327382E+02  0.27951549225E+01  0.33363342038E+02  0.47000000000E+01 0.  1.
         11    1    6    6    0    0 -0.69879337469E+01  0.21703183161E+02  0.24228209485E+02  0.33269588398E+02  0.00000000000E+00 0. -1.
        -12    1    6    6    0    0 -0.68787927927E+02 -0.16951842240E+02  0.31378926949E+03  0.32168750307E+03  0.00000000000E+00 0.  1.
</event>
<event>
12    1  0.9028446E-003  0.1829932E+03  0.7818608E-02  0.1164950E+00
         21   -1    0    0  503  502  0.00000000000E+00  0.00000000000E+00  0.55276585969E+02  0.55276585969E+02  0.00000000000E+00 0. -1.
         21   -1    0    0  501  503 -0.00000000000E+00 -0.00000000000E+00 -0.61617049545E+03  0.61617049545E+03  0.00000000000E+00 0. -1.
          6    2    1    2  501    0  0.22510380159E+02  0.57553195576E+02 -0.32433634318E+03  0.37237187403E+03  0.17218496313E+03 0.  0.
         24    2    3    3    0    0  0.73462063091E+02  0.37199247976E+02 -0.25216834685E+03  0.28159375514E+03  0.94475970559E+02 0.  0.
         -6    2    1    2    0  502 -0.22510380159E+02 -0.57553195576E+02 -0.23655756630E+03  0.29907520739E+03  0.17224230016E+03 0.  0.
        -24    2    5    5    0    0 -0.67532587183E+02 -0.67525607644E+02 -0.11558307816E+03  0.16952458057E+03  0.79112435439E+02 0.  0.
          5    1    3    3  501    0 -0.50951682933E+02  0.20353947600E+02 -0.72167996330E+02  0.90778118899E+02  0.47000000000E+01 0. -1.
        -11    1    4    4    0    0  0.33548072776E+02  0.29906557589E+02 -0.26222354785E+02  0.52033520583E+02  0.00000000000E+00 0.  1.
         12    1    4    4    0    0  0.39913990315E+02  0.72926903868E+01 -0.22594599207E+03  0.22956023455E+03  0.00000000000E+00 0. -1.
         -5    1    5    5    0  502  0.45022207025E+02  0.99724120683E+01 -0.12097448814E+03  0.12955062682E+03  0.47000000000E+01 0.  1.
         13    1    6    6    0    0 -0.51939711413E+01 -0.30963706992E+02  0.20521192185E+01  0.31463306885E+02  0.00000000000E+00 0. -1.
        -14    1    6    6    0    0 -0.62338616042E+02 -0.36561900652E+02 -0.11763519737E+03  0.13806127368E+03  0.00000000000E+00 0.  1.
</event>
<event>
12    1  0.9028446E-003  0.2623034E+03  0.7818608E-02  0.1106112E+00
         21   -1    0    0  503  502  0.00000000000E+00  0.00000000000E+00  0.10185077763E+04  0.10185077763E+04  0.00000000000E+00 0.  1.
         21   -1    0    0  501  503 -0.00000000000E+00 -0.00000000000E+00 -0.69917905266E+02  0.69917905266E+02  0.00000000000E+00 0.  1.
          6    2    1    2  501    0 -0.14931273628E+03 -0.13115558086E+03  0.36435052514E+03  0.44894810391E+03  0.17119291815E+03 0.  0.
         24    2    3    3    0    0 -0.83740075701E+02 -0.67617410469E+02  0.92203994457E+02  0.16185457024E+03  0.78171675409E+02 0.  0.
         -6    2    1    2    0  502  0.14931273628E+03  0.13115558086E+03  0.58423934591E+03  0.63947757768E+03  0.16763018652E+03 0.  0.
        -24    2    5    5    0    0  0.43123635339E+02  0.85240557700E+02  0.18398788536E+03  0.22281508094E+03  0.81666503137E+02 0.  0.
          5    1    3    3  501    0 -0.65572660575E+02 -0.63538170396E+02  0.27214653068E+03  0.28709353367E+03  0.47000000000E+01 0. -1.
        -13    1    4    4    0    0 -0.95125125758E+01  0.14534935751E+02 -0.60604775111E+00  0.17381586426E+02  0.00000000000E+00 0.  1.
         14    1    4    4    0    0 -0.74227563125E+02 -0.82152346220E+02  0.92810042208E+02  0.14447298381E+03  0.00000000000E+00 0. -1.
         -5    1    5    5    0  502  0.10618910094E+03  0.45915023164E+02  0.40025146055E+03  0.41666249673E+03  0.47000000000E+01 0.  1.
         13    1    6    6    0    0 -0.31489810515E+01 -0.14540812944E+02  0.31088491932E+02  0.34465136782E+02  0.00000000000E+00 0. -1.
        -14    1    6    6    0    0  0.46272616390E+02  0.99781370644E+02  0.15289939343E+03  0.18834994416E+03  0.00000000000E+00 0.  1.
</event>
<event>
12    1  0.9028446E-003  0.2005889E+03  0.7818608E-02  0.1149520E+00
         21   -1    0    0  501  502  0.00000000000E+00  0.00000000000E+00  0.33108740358E+03  0.33108740358E+03  0.00000000000E+00 0.  1.
         21   -1    0    0  502  503 -0.00000000000E+00 -0.00000000000E+00 -0.12111995161E+03  0.12111995161E+03  0.00000000000E+00 0. -1.
          6    2    1    2  501    0  0.10268019849E+03  0.52203062435E+01  0.11743811381E+03  0.23130560095E+03  0.17070470321E+03 0.  0.
         24    2    3    3    0    0 -0.11388925766E+02  0.25582454471E+02  0.24099913182E+02  0.82441596286E+02  0.73699670121E+02 0.  0.
         -6    2    1    2    0  503 -0.10268019849E+03 -0.52203062435E+01  0.92529338155E+02  0.22090175424E+03  0.17223655781E+03 0.  0.
        -24    2    5    5    0    0 -0.13342452947E+03 -0.14464481146E+02  0.43117772989E+02  0.16178947608E+03  0.79406334404E+02 0.  0.
          5    1    3    3  501    0  0.11406912426E+03 -0.20362148227E+02  0.93338200626E+02  0.14886400467E+03  0.47000000000E+01 0. -1.
        -11    1    4    4    0    0 -0.24728518901E+01  0.61937041256E+01  0.49111952089E+02  0.49562695702E+02  0.00000000000E+00 0.  1.
         12    1    4    4    0    0 -0.89160738756E+01  0.19388750345E+02 -0.25012038907E+02  0.32878900584E+02  0.00000000000E+00 0. -1.
         -5    1    5    5    0  503  0.30744330978E+02  0.92441749023E+01  0.49411565165E+02  0.59112278158E+02  0.47000000000E+01 0.  1.
         13    1    6    6    0    0 -0.34131054501E+02  0.17594144152E+02  0.42729541807E+02  0.57448207394E+02  0.00000000000E+00 0. -1.
        -14    1    6    6    0    0 -0.99293474970E+02 -0.32058625298E+02  0.38823118271E+00  0.10434126869E+03  0.00000000000E+00 0.  1.
</event>
<event>
12    1  0.9028446E-003  0.1783440E+03  0.7818608E-02  0.1169572E+00
         21   -1    0    0  503  502  0.00000000000E+00  0.00000000000E+00  0.14863968776E+03  0.14863968776E+03  0.00000000000E+00 0.  1.
         21   -1    0    0  501  503 -0.00000000000E+00 -0.00000000000E+00 -0.22246309127E+03  0.22246309127E+03  0.00000000000E+00 0.  1.
          6    2    1    2  501    0 -0.14469896991E+02 -0.43911349036E+02 -0.74675391557E+02  0.19275675977E+03  0.17158429369E+03 0.  0.
         24    2    3    3    0    0 -0.19656778692E+02 -0.20338210128E+02  0.27311866301E+02  0.87846858502E+02  0.78556354091E+02 0.  0.
         -6    2    1    2    0  502  0.14469896991E+02  0.43911349036E+02  0.85198804865E+00  0.17834601925E+03  0.17224689317E+03 0.  0.
        -24    2    5    5    0    0  0.18434626393E+02  0.53288526120E+01  0.63455291164E+02  0.10455176697E+03  0.80847176069E+02 0.  0.
          5    1    3    3  501    0  0.51868817015E+01 -0.23573138908E+02 -0.10198725786E+03  0.10490990127E+03  0.47000000000E+01 0. -1.
        -13    1    4    4    0    0 -0.40157107877E+02  0.14479771230E+02  0.18323004172E+02  0.46454166334E+02  0.00000000000E+00 0.  1.
         14    1    4    4    0    0  0.20500329185E+02 -0.34817981358E+02  0.89888621289E+01  0.41392692168E+02  0.00000000000E+00 0. -1.
         -5    1    5    5    0  502 -0.39647294028E+01  0.38582496424E+02 -0.62603303116E+02  0.73794252287E+02  0.47000000000E+01 0.  1.
         11    1    6    6    0    0 -0.24879402796E+02 -0.20571785717E+02  0.20181979103E+02  0.38072238332E+02  0.00000000000E+00 0. -1.
        -12    1    6    6    0    0  0.43314029190E+02  0.25900638329E+02  0.43273312062E+02  0.66479528633E+02  0.00000000000E+00 0.  1.
</event>
<event>
12    1  0.9028446E-003  0.2378429E+03  0.7818608E-02  0.1121267E+00
         21   -1    0    0  503  502  0.00000000000E+00  0.00000000000E+00  0.45282670619E+03  0.45282670619E+03  0.00000000000E+00 0. -1.
         21   -1    0    0  501  503 -0.00000000000E+00 -0.00000000000E+00 -0.13440945949E+03  0.13440945949E+03  0.00000000000E+00 0.  1.
          6    2    1    2  501    0  0.10145983640E+03 -0.12956070160E+03  0.80788273448E+02  0.25102676117E+03  0.17148648896E+03 0.  0.
         24    2    3    3    0    0  0.83935580828E+02 -0.90222089951E+02 -0.10712698998E+02  0.14978870578E+03  0.84478915808E+02 0.  0.
         -6    2    1    2    0  502 -0.10145983640E+03  0.12956070160E+03  0.23762897325E+03  0.33620940452E+03  0.17172408381E+03 0.  0.
        -24    2    5    5    0    0 -0.12663351311E+03  0.57523157650E+02  0.17607678248E+03  0.23805705393E+03  0.79518345617E+02 0.  0.
          5    1    3    3  501    0  0.17524255569E+02 -0.39338611648E+02  0.91500972446E+02  0.10123805539E+03  0.47000000000E+01 0. -1.
        -13    1    4    4    0    0  0.78412777166E+02 -0.24538498447E+02  0.39674963491E+01  0.82258388972E+02  0.00000000000E+00 0.  1.
         14    1    4    4    0    0  0.55228036618E+01 -0.65683591504E+02 -0.14680195347E+02  0.67530316811E+02  0.00000000000E+00 0. -1.
         -5    1    5    5    0  502  0.25173676712E+02  0.72037543949E+02  0.61552190773E+02  0.98152350590E+02  0.47000000000E+01 0.  1.
         11    1    6    6    0    0 -0.37188619925E+02  0.52847865104E+02  0.42906119228E+02  0.77568198156E+02  0.00000000000E+00 0. -1.
        -12    1    6    6    0    0 -0.89444893184E+02  0.46752925454E+01  0.13317066325E+03  0.16048885577E+03  0.00000000000E+00 0.  1.
</event>
<event>
12    1  0.9028446E-003  0.2864325E+03  0.7818608E-02  0.1092503E+00
         21   -1    0    0  501  502  0.00000000000E+00  0.00000000000E+00  0.12334624061E+03  0.12334624061E+03  0.00000000000E+00 0. -1.
         21   -1    0    0  502  503 -0.00000000000E+00 -0.00000000000E+00 -0.19314774138E+04  0.19314774138E+04  0.00000000000E+00 0. -1.
          6    2    1    2  501    0  0.16170034479E+03 -0.15925857793E+03 -0.71708963498E+02  0.29527238180E+03  0.17473782607E+03 0.  0.
         24    2    3    3    0    0  0.76080102843E+02 -0.15829773923E+02 -0.65456865472E+02  0.12804850079E+03  0.77929798709E+02 0.  0.
         -6    2    1    2    0  503 -0.16170034479E+03  0.15925857793E+03 -0.17364222097E+04  0.17595512726E+04  0.17131343935E+03 0.  0.
        -24    2    5    5    0    0 -0.14006639402E+03  0.17809467929E+03 -0.16694578149E+04  0.16865502678E+04  0.77627961517E+02 0.  0.
          5    1    3    3  501    0  0.85620241950E+02 -0.14342880400E+03 -0.62520980256E+01  0.16722388101E+03  0.47000000000E+01 0. -1.
        -13    1    4    4    0    0  0.61830911208E+02 -0.42480576589E+02 -0.28358755734E+02  0.80199002456E+02  0.00000000000E+00 0.  1.
         14    1    4    4    0    0  0.14249191635E+02  0.26650802666E+02 -0.37098109738E+02  0.47849498337E+02  0.00000000000E+00 0. -1.
         -5    1    5    5    0  503 -0.21633950772E+02 -0.18836101363E+02 -0.66964394778E+02  0.73001004846E+02  0.47000000000E+01 0.  1.
         13    1    6    6    0    0 -0.14140484671E+03  0.17261505175E+03 -0.14543476815E+04  0.14713661902E+04  0.00000000000E+00 0. -1.
        -14    1    6    6    0    0  0.13384526914E+01  0.54796275419E+01 -0.21511013337E+03  0.21518407760E+03  0.00000000000E+00 0.  1.
</event>
<event>
12    1  0.9028446E-003  0.2139714E+03  0.7818608E-02  0.1138676E+00
         21   -1    0    0  501  502  0.00000000000E+00  0.00000000000E+00  0.24559688844E+03  0.24559688844E+03  0.00000000000E+00 0. -1.
         21   -1    0    0  502  503 -0.00000000000E+00 -0.00000000000E+00 -0.20902598955E+03  0.20902598955E+03  0.00000000000E+00 0. -1.
          6    2    1    2  501    0  0.91116635381E+02 -0.90539560128E+02 -0.58022465457E+02  0.22169880213E+03  0.17112597458E+03 0.  0.
         24    2    3    3    0    0  0.18308193825E+02 -0.39524521163E+02  0.24277720874E+02  0.10045931173E+03  0.87208301484E+02 0.  0.
         -6    2    1    2    0  503 -0.91116635381E+02  0.90539560128E+02  0.94593364348E+02  0.23292407586E+03  0.16972350262E+03 0.  0.
        -24    2    5    5    0    0 -0.11168776286E+03  0.11528157572E+03  0.73299386065E+02  0.19405426582E+03  0.80748126998E+02 0.  0.
          5    1    3    3  501    0  0.72808441557E+02 -0.51015038966E+02 -0.82300186331E+02  0.12123949040E+03  0.47000000000E+01 0. -1.
        -11    1    4    4    0    0  0.42710411411E+02 -0.53884522360E+02  0.12970505231E+02  0.69971101169E+02  0.00000000000E+00 0.  1.
         12    1    4    4    0    0 -0.24402217586E+02  0.14360001197E+02  0.11307215643E+02  0.30488210559E+02  0.00000000000E+00 0. -1.
         -5    1    5    5    0  503  0.20571127478E+02 -0.24742015588E+02  0.21293978283E+02  0.38869810035E+02  0.47000000000E+01 0.  1.
         11    1    6    6    0    0 -0.10283331977E+02  0.48065605218E+02  0.50133087495E+02  0.70209513481E+02  0.00000000000E+00 0. -1.
        -12    1    6    6    0    0 -0.10140443088E+03  0.67215970498E+02  0.23166298570E+02  0.12384475234E+03  0.00000000000E+00 0.  1.
</event>
<event>
12    1  0.9028446E-003  0.2087308E+03  0.7818608E-02  0.1142579E+00
         21   -1    0    0  503  502  0.00000000000E+00  0.00000000000E+00  0.11306138212E+03  0.11306138212E+03  0.00000000000E+00 0.  1.
         21   -1    0    0  501  503 -0.00000000000E+00 -0.00000000000E+00 -0.46471148574E+03  0.46471148574E+03  0.00000000000E+00 0. -1.
          6    2    1    2  501    0  0.89334423499E+02 -0.75895657152E+02 -0.29523873962E+03  0.36157223343E+03  0.17270719908E+03 0.  0.
         24    2    3    3    0    0 -0.56279457106E+01 -0.52616086014E+02 -0.75509041792E+02  0.12102489899E+03  0.78391865023E+02 0.  0.
         -6    2    1    2    0  502 -0.89334423499E+02  0.75895657152E+02 -0.56411363998E+02  0.21620063443E+03  0.17268376398E+03 0.  0.
        -24    2    5    5    0    0 -0.10817829595E+03  0.63087766587E+01 -0.48734464074E+02  0.14354769052E+03  0.80551518221E+02 0.  0.
          5    1    3    3  501    0  0.94962369209E+02 -0.23279571138E+02 -0.21972969783E+03  0.24054733444E+03  0.47000000000E+01 0. -1.
        -13    1    4    4    0    0  0.21956304314E+01  0.41765847152E+01  0.13975853458E+02  0.14750902777E+02  0.00000000000E+00 0.  1.
         14    1    4    4    0    0 -0.78235761420E+01 -0.56792670729E+02 -0.89484895250E+02  0.10627399621E+03  0.00000000000E+00 0. -1.
         -5    1    5    5    0  502  0.18843872453E+02  0.69586880493E+02 -0.76768999242E+01  0.72652943907E+02  0.47000000000E+01 0.  1.
         11    1    6    6    0    0 -0.42394057210E+02 -0.36979779717E+02 -0.19210961526E+02  0.59445952237E+02  0.00000000000E+00 0. -1.
        -12    1    6    6    0    0 -0.65784238742E+02  0.43288556375E+02 -0.29523502548E+02  0.84101738285E+02  0.00000000000E+00 0.  1.
</event>
<event>
12    1  0.9028446E-003  0.2240008E+03  0.7818608E-02  0.1130997E+00
         21   -1    0    0  503  502  0.00000000000E+00  0.00000000000E+00  0.14671645342E+04  0.14671645342E+04  0.00000000000E+00 0.  1.
         21   -1    0    0  501  503 -0.00000000000E+00 -0.00000000000E+00 -0.39883800557E+02  0.39883800557E+02  0.00000000000E+00 0. -1.
          6    2    1    2  501    0 -0.19397976612E+02  0.14310074311E+03  0.42741446506E+03  0.48239770842E+03  0.17079320822E+03 0.  0.
         24    2    3    3    0    0  0.38788192502E+02  0.10832124332E+03  0.19169272026E+03  0.23707735694E+03  0.78876856808E+02 0.  0.
         -6    2    1    2    0  502  0.19397976612E+02 -0.14310074311E+03  0.99986626860E+03  0.10246506264E+04  0.17123739901E+03 0.  0.
        -24    2    5    5    0    0  0.59773210630E+01 -0.87777509809E+02  0.27113439045E+03  0.29368344900E+03  0.70678787012E+02 0.  0.
          5    1    3    3  501    0 -0.58186169114E+02  0.34779499787E+02  0.23572174480E+03  0.24532035149E+03  0.47000000000E+01 0. -1.
        -13    1    4    4    0    0  0.19153161342E+02 -0.79203633811E+01  0.39066128604E+02  0.44223728355E+02  0.00000000000E+00 0.  1.
         14    1    4    4    0    0  0.19635031161E+02  0.11624160670E+03  0.15262659166E+03  0.19285362858E+03  0.00000000000E+00 0. -1.
         -5    1    5    5    0  502  0.13420655549E+02 -0.55323233299E+02  0.72873187815E+03  0.73096717735E+03  0.47000000000E+01 0.  1.
         11    1    6    6    0    0 -0.18645493357E+02 -0.44535000337E+02  0.20673954988E+03  0.21230228958E+03  0.00000000000E+00 0. -1.
        -12    1    6    6    0    0  0.24622814420E+02 -0.43242509472E+02  0.64394840578E+02  0.81381159420E+02  0.00000000000E+00 0.  1.
</event>
<event>
12    1  0.9028446E-003  0.2694848E+03  0.7818608E-02  0.1101681E+00
         21   -1    0    0  503  502  0.00000000000E+00  0.00000000000E+00  0.10419543694E+03  0.10419543694E+03  0.00000000000E+00 0. -1.
         21   -1    0    0  501  503 -0.00000000000E+00 -0.00000000000E+00 -0.82535845616E+03  0.82535845616E+03  0.00000000000E+00 0. -1.
          6    2    1    2  501    0 -0.14381421677E+03  0.14909177028E+03 -0.54566328999E+03  0.60858069938E+03  0.17236924524E+03 0.  0.
         24    2    3    3    0    0 -0.11074644297E+03  0.13468589608E+03 -0.27266348390E+03  0.33316829770E+03  0.79061203547E+02 0.  0.
         -6    2    1    2    0  502  0.14381421677E+03 -0.14909177028E+03 -0.17549972924E+03  0.32097319372E+03  0.17120967033E+03 0.  0.
        -24    2    5    5    0    0  0.16662741223E+03 -0.15127383383E+03 -0.13460691453E+03  0.27386145863E+03  0.78946879436E+02 0.  0.
          5    1    3    3  501    0 -0.33067773801E+02  0.14405874202E+02 -0.27299980608E+03  0.27541240167E+03  0.47000000000E+01 0. -1.
        -11    1    4    4    0    0 -0.39545095331E+02  0.10763525175E+03 -0.15053431620E+03  0.18923462246E+03  0.00000000000E+00 0.  1.
         12    1    4    4    0    0 -0.71201347636E+02  0.27050644323E+02 -0.12212916770E+03  0.14393367524E+03  0.00000000000E+00 0. -1.
         -5    1    5    5    0  502 -0.22813195463E+02  0.21820635562E+01 -0.40892814710E+02  0.47111735093E+02  0.47000000000E+01 0.  1.
         11    1    6    6    0    0  0.84871436808E+02 -0.12331779952E+03 -0.10364072891E+03  0.18207647062E+03  0.00000000000E+00 0. -1.
        -12    1    6    6    0    0  0.81755975423E+02 -0.27956034319E+02 -0.30966185617E+02  0.91784988009E+02  0.00000000000E+00 0.  1.
</event>
<event>
12    1  0.9028446E-003  0.1932581E+03  0.7818608E-02  0.1156876E+00
         21   -1    0    0  501  502  0.00000000000E+00  0.00000000000E+00  0.25270468260E+03  0.25270468260E+03  0.00000000000E+00 0.  1.
         21   -1    0    0  502  503 -0.00000000000E+00 -0.00000000000E+00 -0.14885577749E+03  0.14885577749E+03  0.00000000000E+00 0.  1.
          6    2    1    2  501    0 -0.84490579809E+02  0.89597916172E+00  0.89843826948E+02  0.20779555561E+03  0.16723522008E+03 0.  0.
         24    2    3    3    0    0 -0.68234166930E+02  0.45009111544E+02  0.81930958305E+01  0.11346013649E+03  0.78258252569E+02 0.  0.
         -6    2    1    2    0  503  0.84490579809E+02 -0.89597916172E+00  0.14005078157E+02  0.19376490448E+03  0.17380804106E+03 0.  0.
        -24    2    5    5    0    0  0.81774598400E+02 -0.17207694862E+02 -0.51195766877E+02  0.12633576525E+03  0.79727845375E+02 0.  0.
          5    1    3    3  501    0 -0.16256412879E+02 -0.44113132382E+02  0.81650731117E+02  0.94335419118E+02  0.47000000000E+01 0. -1.
        -13    1    4    4    0    0 -0.16952088728E+02  0.98272607103E+01 -0.33343259453E+02  0.38674556445E+02  0.00000000000E+00 0.  1.
         14    1    4    4    0    0 -0.51282078202E+02  0.35181850834E+02  0.41536355283E+02  0.74785580047E+02  0.00000000000E+00 0. -1.
         -5    1    5    5    0  503  0.27159814093E+01  0.16311715700E+02  0.65200845034E+02  0.67429139230E+02  0.47000000000E+01 0.  1.
         11    1    6    6    0    0 -0.11984950938E+02  0.11112435701E+02 -0.14157789876E+02  0.21623327458E+02  0.00000000000E+00 0. -1.
        -12    1    6    6    0    0  0.93759549337E+02 -0.28320130563E+02 -0.37037977002E+02  0.10471243779E+03  0.00000000000E+00 0.  1.
</event>
<event>
12    1  0.9028446E-003  0.2622170E+03  0.7818608E-02  0.1105888E+00
         21   -1    0    0  503  502  0.00000000000E+00  0.00000000000E+00  0.18373989775E+04  0.18373989775E+04  0.00000000000E+00 0. -1.
         21   -1    0    0  501  503 -0.00000000000E+00 -0.00000000000E+00 -0.52414034995E+02  0.52414034995E+02  0.00000000000E+00 0.  1.
          6    2    1    2  501    0  0.19677369861E+03  0.15218465175E+02  0.38542578698E+03  0.46590165048E+03  0.17192969641E+03 0.  0.
         24    2    3    3    0    0  0.95410452210E+02  0.58207679721E+02  0.13620315526E+03  0.19340102580E+03  0.79758190243E+02 0.  0.
         -6    2    1    2    0  502 -0.19677369861E+03 -0.15218465175E+02  0.13995591555E+04  0.14239113620E+04  0.17264485773E+03 0.  0.
        -24    2    5    5    0    0 -0.21111006380E+03 -0.31481092230E+02  0.13568876379E+04  0.13758181939E+04  0.78569220931E+02 0.  0.
          5    1    3    3  501    0  0.10136324640E+03 -0.42989214546E+02  0.24922263172E+03  0.27250062468E+03  0.47000000000E+01 0. -1.
        -13    1    4    4    0    0  0.79161541810E+02  0.57732467008E+02  0.14493766537E+03  0.17494717572E+03  0.00000000000E+00 0.  1.
         14    1    4    4    0    0  0.16248910399E+02  0.47521271273E+00 -0.87345101092E+01  0.18453850090E+02  0.00000000000E+00 0. -1.
         -5    1    5    5    0  502  0.14336365195E+02  0.16262627055E+02  0.42671517618E+02  0.48093168138E+02  0.47000000000E+01 0.  1.
         11    1    6    6    0    0 -0.91067467504E+02 -0.50220325270E+02  0.71637026346E+03  0.72387963024E+03  0.00000000000E+00 0. -1.
        -12    1    6    6    0    0 -0.12004259630E+03  0.18739233040E+02  0.64051737444E+03  0.65193856363E+03  0.00000000000E+00 0.  1.
</event>
<event>
12    1  0.9028446E-003  0.1997572E+03  0.7818608E-02  0.1150186E+00
         21   -1    0    0  503  502  0.00000000000E+00  0.00000000000E+00  0.10021330412E+04  0.10021330412E+04  0.00000000000E+00 0.  1.
         21   -1    0    0  501  503 -0.00000000000E+00 -0.00000000000E+00 -0.39600359913E+02  0.39600359913E+02  0.00000000000E+00 0.  1.
          6    2    1    2  501    0  0.74751217370E+02  0.65444424856E+02  0.49058867594E+03  0.52969821884E+03  0.17329811553E+03 0.  0.
         24    2    3    3    0    0  0.31261114788E+02  0.10465331461E+03  0.39375697370E+03  0.41644101326E+03  0.80305601518E+02 0.  0.
         -6    2    1    2    0  502 -0.74751217370E+02 -0.65444424856E+02  0.47194400540E+03  0.51203518231E+03  0.17198304118E+03 0.  0.
        -24    2    5    5    0    0 -0.28786705181E+02 -0.72747880101E+02  0.44807399314E+03  0.45951904837E+03  0.65318634650E+02 0.  0.
          5    1    3    3  501    0  0.43490102581E+02 -0.39208889750E+02  0.96831702237E+02  0.11325720558E+03  0.47000000000E+01 0. -1.
        -11    1    4    4    0    0  0.46301839429E+02  0.29015703787E+02  0.21347264641E+03  0.22035503662E+03  0.00000000000E+00 0.  1.
         12    1    4    4    0    0 -0.15040724640E+02  0.75637610819E+02  0.18028432729E+03  0.19608597664E+03  0.00000000000E+00 0. -1.
         -5    1    5    5    0  502 -0.45964512189E+02  0.73034552450E+01  0.23870012256E+02  0.52516133944E+02  0.47000000000E+01 0.  1.
         11    1    6    6    0    0  0.76917615462E+01 -0.73319717458E+01  0.84948283832E+01  0.13604525520E+02  0.00000000000E+00 0. -1.
        -12    1    6    6    0    0 -0.36478466727E+02 -0.65415908355E+02  0.43957916476E+03  0.44591452285E+03  0.00000000000E+00 0.  1.
</event>
<event>
12    1  0.9028446E-003  0.2594001E+03  0.7818608E-02  0.1107700E+00
         21   -1    0    0  501  502  0.00000000000E+00  0.00000000000E+00  0.31354713781E+04  0.31354713781E+04  0.00000000000E+00 0. -1.
         21   -1    0    0  502  503 -0.00000000000E+00 -0.00000000000E+00 -0.21731209315E+02  0.21731209315E+02  0.00000000000E+00 0. -1.
          6    2    1    2  501    0  0.19060796168E+03  0.24183650712E+02  0.17688888617E+04  0.17878076496E+04  0.17427605343E+03 0.  0.
         24    2    3    3    0    0  0.24729967384E+02  0.28509396658E+02  0.46173699883E+03  0.47015735314E+03  0.80140649121E+02 0.  0.
         -6    2    1    2    0  503 -0.19060796168E+03 -0.24183650712E+02  0.13448513071E+04  0.13693949379E+04  0.17234040040E+03 0.  0.
        -24    2    5    5    0    0 -0.14476165715E+03  0.86327503219E+01  0.60837930902E+03  0.63075301258E+03  0.81813919871E+02 0.  0.
          5    1    3    3  501    0  0.16587799430E+03 -0.43257459462E+01  0.13071518629E+04  0.13176502964E+04  0.47000000000E+01 0. -1.
        -13    1    4    4    0    0  0.21998330768E+02  0.18625305464E+02  0.45849832698E+03  0.45940346581E+03  0.00000000000E+00 0.  1.
         14    1    4    4    0    0  0.27316366154E+01  0.98840911947E+01  0.32386718531E+01  0.10753887330E+02  0.00000000000E+00 0. -1.
         -5    1    5    5    0  503 -0.45846304534E+02 -0.32816401034E+02  0.73647199809E+03  0.73864192528E+03  0.47000000000E+01 0.  1.
         13    1    6    6    0    0 -0.52195313752E+02 -0.35989305108E+02  0.25214339466E+03  0.25999206205E+03  0.00000000000E+00 0. -1.
        -14    1    6    6    0    0 -0.92566343394E+02  0.44622055430E+02  0.35623591436E+03  0.37076095053E+03  0.00000000000E+00 0.  1.
</event>
<event>
12    1  0.9028446E-003  0.5800926E+03  0.7818608E-02  0.9947755E-01
         21   -1    0    0  501  502  0.00000000000E+00  0.00000000000E+00  0.10220124812E+04  0.10220124812E+04  0.00000000000E+00 0. -1.
         21   -1    0    0  502  503 -0.00000000000E+00 -0.00000000000E+00 -0.56417365827E+03  0.56417365827E+03  0.00000000000E+00 0.  1.
          6    2    1    2  501    0  0.34243683786E+03  0.43540360298E+03  0.74083943290E+03  0.94074309889E+03  0.17121690146E+03 0.  0.
         24    2    3    3    0    0  0.17593328187E+03  0.18935183127E+03  0.25956822442E+03  0.37513813548E+03  0.80909343624E+02 0.  0.
         -6    2    1    2    0  503 -0.34243683786E+03 -0.43540360298E+03 -0.28300060995E+03  0.64544304061E+03  0.17224426848E+03 0.  0.
        -24    2    5    5    0    0 -0.85974529161E+02 -0.14148381111E+03 -0.49457809996E+02  0.19077163261E+03  0.80860697311E+02 0.  0.
          5    1    3    3  501    0  0.16650355599E+03  0.24605177171E+03  0.48127120848E+03  0.56560496341E+03  0.47000000000E+01 0. -1.
        -13    1    4    4    0    0  0.18052687999E+02 -0.29651895730E+01  0.45693565422E+01  0.18856588037E+02  0.00000000000E+00 0.  1.
         14    1    4    4    0    0  0.15788059387E+03  0.19231702085E+03  0.25499886788E+03  0.35628154744E+03  0.00000000000E+00 0. -1.
         -5    1    5    5    0  503 -0.25646230870E+03 -0.29391979187E+03 -0.23354279996E+03  0.45467140799E+03  0.47000000000E+01 0.  1.
         11    1    6    6    0    0 -0.83033675947E+02 -0.62367512446E+02 -0.38926050862E+02  0.11090327040E+03  0.00000000000E+00 0. -1.
        -12    1    6    6    0    0 -0.29408532139E+01 -0.79116298665E+02 -0.10531759134E+02  0.79868362213E+02  0.00000000000E+00 0.  1.
</event>
<event>
12    1  0.9028446E-003  0.1892737E+03  0.7818608E-02  0.1159601E+00
         21   -1    0    0  503  502  0.00000000000E+00  0.00000000000E+00  0.13722268242E+03  0.13722268242E+03  0.00000000000E+00 0. -1.
         21   -1    0    0  501  503 -0.00000000000E+00 -0.00000000000E+00 -0.27949544868E+03  0.27949544868E+03  0.00000000000E+00 0. -1.
          6    2    1    2  501    0  0.41873012790E+02  0.61865490110E+02 -0.12834160926E+03  0.22693245611E+03  0.17159860986E+03 0.  0.
         24    2    3    3    0    0  0.19060915367E+02 -0.96977486203E+01  0.68702552595E+00  0.77559876568E+02  0.74549967312E+02 0.  0.
         -6    2    1    2    0  502 -0.41873012790E+02 -0.61865490110E+02 -0.13931157001E+02  0.18978567498E+03  0.17390755368E+03 0.  0.
        -24    2    5    5    0    0 -0.30983047819E+02 -0.77835175279E+02  0.48161972438E+02  0.12458391960E+03  0.78634049051E+02 0.  0.
          5    1    3    3  501    0  0.22812097423E+02  0.71563238730E+02 -0.12902863478E+03  0.14937257955E+03  0.47000000000E+01 0. -1.
        -11    1    4    4    0    0 -0.27105684444E+02 -0.15175273211E+02  0.53848563274E+00  0.31069229360E+02  0.00000000000E+00 0.  1.
         12    1    4    4    0    0  0.46166599811E+02  0.54775245906E+01  0.14853989321E+00  0.46490647209E+02  0.00000000000E+00 0. -1.
         -5    1    5    5    0  502 -0.10889964971E+02  0.15969685169E+02 -0.62093129439E+02  0.65201755383E+02  0.47000000000E+01 0.  1.
         13    1    6    6    0    0  0.69376732255E+01 -0.37996929367E+02  0.57023884584E+02  0.68873952726E+02  0.00000000000E+00 0. -1.
        -14    1    6    6    0    0 -0.37920721044E+02 -0.39838245912E+02 -0.88619121452E+01  0.55709966871E+02  0.00000000000E+00 0.  1.
</event>
<event>
12    1  0.9028446E-003  0.2024929E+03  0.7818608E-02  0.1147716E+00
         21   -1    0    0  503  502  0.00000000000E+00  0.00000000000E+00  0.29168282735E+03  0.29168282735E+03  0.00000000000E+00 0. -1.
         21   -1    0    0  501  503 -0.00000000000E+00 -0.00000000000E+00 -0.16415559708E+03  0.16415559708E+03  0.00000000000E+00 0. -1.
          6    2    1    2  501    0  0.10522711417E+03  0.94605467631E+01 -0.22962858714E+02  0.20379072172E+03  0.17274581869E+03 0.  0.
         24    2    3    3    0    0  0.96331916943E+02  0.52098592392E+02 -0.58850880903E+02  0.14715886138E+03  0.78728665352E+02 0.  0.
         -6    2    1    2    0  502 -0.10522711417E+03 -0.94605467631E+01  0.15049008898E+03  0.25204770271E+03  0.17239063216E+03 0.  0.
        -24    2    5    5    0    0 -0.10664539047E+03  0.34119576043E+02  0.37377984881E+02  0.13073127058E+03  0.56179770168E+02 0.  0.
          5    1    3    3  501    0  0.88951972306E+01 -0.42638045629E+02  0.35888022189E+02  0.56631860339E+02  0.47000000000E+01 0. -1.
        -11    1    4    4    0    0  0.56159082645E+02  0.33616357099E+02 -0.75488520640E+02  0.99912055212E+02  0.00000000000E+00 0.  1.
         12    1    4    4    0    0  0.40172834298E+02  0.18482235294E+02  0.16637639737E+02  0.47246806167E+02  0.00000000000E+00 0. -1.
         -5    1    5    5    0  502  0.14182762926E+01 -0.43580122806E+02  0.11311210410E+03  0.12131643213E+03  0.47000000000E+01 0.  1.
         13    1    6    6    0    0 -0.77128603522E+02 -0.34434009501E+01  0.18705137137E+02  0.79439037297E+02  0.00000000000E+00 0. -1.
        -14    1    6    6    0    0 -0.29516786945E+02  0.37562976993E+02  0.18672847744E+02  0.51292233281E+02  0.00000000000E+00 0.  1.
</event>
<event>
12    1  0.9028446E-003  0.2056403E+03  0.7818608E-02  0.1145153E+00
         21   -1    0    0  501  502  0.00000000000E+00  0.00000000000E+00  0.48396174928E+02  0.48396174928E+02  0.00000000000E+00 0. -1.
         21   -1    0    0  502  503 -0.00000000000E+00 -0.00000000000E+00 -0.87211607572E+03  0.87211607572E+03  0.00000000000E+00 0. -1.
          6    2    1    2  501    0  0.11035321507E+03  0.70710358469E+01 -0.41817807954E+03  0.46600520006E+03  0.17337851264E+03 0.  0.
         24    2    3    3    0    0  0.77333031774E+02  0.66977385048E+02 -0.20999265312E+03  0.24681951404E+03  0.79728227347E+02 0.  0.
         -6    2    1    2    0  503 -0.11035321507E+03 -0.70710358469E+01 -0.40554182125E+03  0.45450705059E+03  0.17287179825E+03 0.  0.
        -24    2    5    5    0    0 -0.40605775965E+02  0.10319750009E+02 -0.35538148573E+03  0.36672724680E+03  0.80234324717E+02 0.  0.
          5    1    3    3  501    0  0.33020183295E+02 -0.59906349201E+02 -0.20818542642E+03  0.21918568602E+03  0.47000000000E+01 0. -1.
        -11    1    4    4    0    0  0.10611712253E+01 -0.16496526187E+02 -0.30152003616E+02  0.34386113224E+02  0.00000000000E+00 0.  1.
         12    1    4    4    0    0  0.76271860548E+02  0.83473911235E+02 -0.17984064950E+03  0.21243340082E+03  0.00000000000E+00 0. -1.
         -5    1    5    5    0  503 -0.69747439103E+02 -0.17390785856E+02 -0.50160335515E+02  0.87779803789E+02  0.47000000000E+01 0.  1.
         13    1    6    6    0    0 -0.55983588166E+02 -0.16081628610E+02 -0.19722170280E+03  0.20564333439E+03  0.00000000000E+00 0. -1.
        -14    1    6    6    0    0  0.15377812201E+02  0.26401378619E+02 -0.15815978294E+03  0.16108391242E+03  0.00000000000E+00 0.  1.
</event>
<event>
12    1  0.9028446E-003  0.3134641E+03  0.7818608E-02  0.1078701E+00
         21   -1    0    0  503  502  0.00000000000E+00  0.00000000000E+00  0.42994593188E+03  0.42994593188E+03  0.00000000000E+00 0. -1.
         21   -1    0    0  501  503 -0.00000000000E+00 -0.00000000000E+00 -0.33340194882E+03  0.33340194882E+03  0.00000000000E+00 0. -1.
          6    2    1    2  501    0 -0.89691465977E+02  0.24639351605E+03 -0.16580242110E+03  0.35461270385E+03  0.17177136861E+03 0.  0.
         24    2    3    3    0    0 -0.12506735125E+03  0.15395165533E+03 -0.12538936584E+03  0.24759749042E+03  0.78987781771E+02 0.  0.
         -6    2    1    2    0  502  0.89691465977E+02 -0.24639351605E+03  0.26234640415E+03  0.40873517685E+03  0.17171046911E+03 0.  0.
        -24    2    5    5    0    0  0.37225463886E+01 -0.92966011219E+02  0.10240659152E+03  0.17096745819E+03  0.10043020053E+03 0.  0.
          5    1    3    3  501    0  0.35375885271E+02  0.92441860714E+02 -0.40413055260E+02  0.10701521343E+03  0.47000000000E+01 0. -1.
        -13    1    4    4    0    0  0.69085113348E+01  0.13009081890E+01  0.38028476146E+01  0.79925928808E+01  0.00000000000E+00 0.  1.
         14    1    4    4    0    0 -0.13197586258E+03  0.15265074714E+03 -0.12919221345E+03  0.23960489754E+03  0.00000000000E+00 0. -1.
         -5    1    5    5    0  502  0.85968919588E+02 -0.15342750483E+03  0.15993981264E+03  0.23776771866E+03  0.47000000000E+01 0.  1.
         13    1    6    6    0    0 -0.28739152614E+02 -0.85677743406E+02  0.10385266462E+03  0.13766622882E+03  0.00000000000E+00 0. -1.
        -14    1    6    6    0    0  0.32461699003E+02 -0.72882678129E+01 -0.14460731055E+01  0.33301229366E+02  0.00000000000E+00 0.  1.
</event>
<event>
12    1  0.9028446E-003  0.1814506E+03  0.7818608E-02  0.1167663E+00
         21   -1    0    0  503  502  0.00000000000E+00  0.00000000000E+00  0.11545825483E+04  0.11545825483E+04  0.00000000000E+00 0.  1.
         21   -1    0    0  501  503 -0.00000000000E+00 -0.00000000000E+00 -0.28698563898E+02  0.28698563898E+02  0.00000000000E+00 0.  1.
          6    2    1    2  501    0 -0.52420049473E+02  0.95406204420E+01  0.44529923502E+03  0.47892329661E+03  0.16803937129E+03 0.  0.
         24    2    3    3    0    0 -0.50301766065E+02 -0.56227277266E+02  0.26858646993E+03  0.29029828544E+03  0.80265984845E+02 0.  0.
         -6    2    1    2    0  502  0.52420049473E+02 -0.95406204420E+01  0.68058474934E+03  0.70435781554E+03  0.17345156747E+03 0.  0.
        -24    2    5    5    0    0  0.54455778282E+02 -0.69481307776E+02  0.39491756079E+03  0.41242483898E+03  0.79632179868E+02 0.  0.
          5    1    3    3  501    0 -0.21182834081E+01  0.65767897708E+02  0.17671276509E+03  0.18862501117E+03  0.47000000000E+01 0. -1.
        -13    1    4    4    0    0  0.19465101769E+02  0.73155986787E+00  0.36985739926E+02  0.41801558878E+02  0.00000000000E+00 0.  1.
         14    1    4    4    0    0 -0.69766867834E+02 -0.56958837134E+02  0.23160073000E+03  0.24849672656E+03  0.00000000000E+00 0. -1.
         -5    1    5    5    0  502 -0.20357288089E+01  0.59940687334E+02  0.28566718855E+03  0.29193297656E+03  0.47000000000E+01 0.  1.
         11    1    6    6    0    0 -0.43226469382E+01  0.96668340479E+01  0.83540077690E+01  0.13487861316E+02  0.00000000000E+00 0. -1.
        -12    1    6    6    0    0  0.58778425220E+02 -0.79148141824E+02  0.38656355302E+03  0.39893697767E+03  0.00000000000E+00 0.  1.
</event>
<event>
12    1  0.9028446E-003  0.1955031E+03  0.7818608E-02  0.1154115E+00
         21   -1    0    0  501  502  0.00000000000E+00  0.00000000000E+00  0.32276782081E+03  0.32276782081E+03  0.00000000000E+00 0. -1.
         21   -1    0    0  502  503 -0.00000000000E+00 -0.00000000000E+00 -0.12326207284E+03  0.12326207284E+03  0.00000000000E+00 0.  1.
          6    2    1    2  501    0 -0.47761263897E+02 -0.76871302069E+02  0.15074047931E+03  0.24686865938E+03  0.17329485702E+03 0.  0.
         24    2    3    3    0    0 -0.71433506314E+02 -0.14302839297E+02  0.35789924035E+02  0.11378632489E+03  0.79743915334E+02 0.  0.
         -6    2    1    2    0  503  0.47761263897E+02  0.76871302069E+02  0.48765268659E+02  0.19916123426E+03  0.17057787194E+03 0.  0.
        -24    2    5    5    0    0  0.30575161550E+02  0.26949710713E+02  0.94314549388E+02  0.12927307810E+03  0.78454872912E+02 0.  0.
          5    1    3    3  501    0  0.23672242417E+02 -0.62568462772E+02  0.11495055528E+03  0.13308233449E+03  0.47000000000E+01 0. -1.
        -13    1    4    4    0    0  0.15986734585E+02  0.69218039708E+01  0.13994979338E+01  0.17477003386E+02  0.00000000000E+00 0.  1.
         14    1    4    4    0    0 -0.87420240898E+02 -0.21224643268E+02  0.34390426101E+02  0.96309321501E+02  0.00000000000E+00 0. -1.
         -5    1    5    5    0  503  0.17186102347E+02  0.49921591356E+02 -0.45549280729E+02  0.69888156166E+02  0.47000000000E+01 0.  1.
         13    1    6    6    0    0 -0.16388234075E+02  0.27005150001E+02  0.69079016209E+02  0.75958954858E+02  0.00000000000E+00 0. -1.
        -14    1    6    6    0    0  0.46963395625E+02 -0.55439287818E-01  0.25235533178E+02  0.53314123241E+02  0.00000000000E+00 0.  1.
</event>
<event>
12    1  0.9028446E-003  0.2055982E+03  0.7818608E-02  0.1145337E+00
         21   -1    0    0  501  502  0.00000000000E+00  0.00000000000E+00  0.58780050615E+03  0.58780050615E+03  0.00000000000E+00 0.  1.
         21   -1    0    0  502  503 -0.00000000000E+00 -0.00000000000E+00 -0.95995724379E+02  0.95995724379E+02  0.00000000000E+00 0.  1.
          6    2    1    2  501    0  0.73894154586E+02  0.84142511171E+02  0.41806468540E+03  0.46537409563E+03  0.17103993523E+03 0.  0.
         24    2    3    3    0    0  0.76569940776E+02  0.11658172672E+03  0.27460462606E+03  0.31819277494E+03  0.79904233524E+02 0.  0.
         -6    2    1    2    0  503 -0.73894154586E+02 -0.84142511171E+02  0.73740096372E+02  0.21842213489E+03  0.17242482110E+03 0.  0.
        -24    2    5    5    0    0 -0.69341560555E+02 -0.12187511268E+03  0.78790834413E+02  0.17979474456E+03  0.80351474609E+02 0.  0.
          5    1    3    3  501    0 -0.26757861900E+01 -0.32439215545E+02  0.14346005933E+03  0.14718132069E+03  0.47000000000E+01 0. -1.
        -13    1    4    4    0    0  0.12140075100E+02  0.22065611430E+02  0.13679982129E+03  0.13909875533E+03  0.00000000000E+00 0.  1.
         14    1    4    4    0    0  0.64429865676E+02  0.94516115285E+02  0.13780480477E+03  0.17909401960E+03  0.00000000000E+00 0. -1.
         -5    1    5    5    0  503 -0.45525940303E+01  0.37732601511E+02 -0.50507380413E+01  0.38627390334E+02  0.47000000000E+01 0.  1.
         13    1    6    6    0    0 -0.67701764190E+02 -0.38192173581E+02  0.42189568794E+02  0.88442810404E+02  0.00000000000E+00 0. -1.
        -14    1    6    6    0    0 -0.16397963658E+01 -0.83682939101E+02  0.36601265620E+02  0.91351934154E+02  0.00000000000E+00 0.  1.
</event>
<event>
12    1  0.9028446E-003  0.2014094E+03  0.7818608E-02  0.1148648E+00
         21   -1    0    0  501  502  0.00000000000E+00  0.00000000000E+00  0.98013235728E+03  0.98013235728E+03  0.00000000000E+00 0. -1.
         21   -1    0    0  502  503 -0.00000000000E+00 -0.00000000000E+00 -0.43336423409E+02  0.43336423409E+02  0.00000000000E+00 0. -1.
          6    2    1    2  501    0 -0.24918192316E+01  0.10436026019E+03  0.35689071643E+03  0.40958296656E+03  0.17172638106E+03 0.  0.
         24    2    3    3    0    0 -0.51093267302E+02  0.66910230187E+02  0.12471483696E+03  0.16939068003E+03  0.77794029691E+02 0.  0.
         -6    2    1    2    0  503  0.24918192316E+01 -0.10436026019E+03  0.57990521744E+03  0.61388581412E+03  0.17224534392E+03 0.  0.
        -24    2    5    5    0    0  0.59387273104E+02 -0.97818675400E+02  0.45714706828E+03  0.47834416669E+03  0.82063136137E+02 0.  0.
          5    1    3    3  501    0  0.48601448070E+02  0.37450030005E+02  0.23217587947E+03  0.24019228653E+03  0.47000000000E+01 0. -1.
        -11    1    4    4    0    0 -0.25659790197E+02  0.80208956858E+02  0.10486918066E+03  0.13449701352E+03  0.00000000000E+00 0.  1.
         12    1    4    4    0    0 -0.25433477105E+02 -0.13298726671E+02  0.19845656310E+02  0.34893666518E+02  0.00000000000E+00 0. -1.
         -5    1    5    5    0  503 -0.56895453873E+02 -0.65415847918E+01  0.12275814916E+03  0.13554164743E+03  0.47000000000E+01 0.  1.
         11    1    6    6    0    0  0.75390573406E+01 -0.32227631136E+02  0.35693273301E+02  0.48677174868E+02  0.00000000000E+00 0. -1.
        -12    1    6    6    0    0  0.51848215764E+02 -0.65591044265E+02  0.42145379498E+03  0.42966699183E+03  0.00000000000E+00 0.  1.
</event>
<event>
12    1  0.9028446E-003  0.1980539E+03  0.7818608E-02  0.1155815E+00
         21   -1    0    0  503  502  0.00000000000E+00  0.00000000000E+00  0.27483919630E+03  0.27483919630E+03  0.00000000000E+00 0. -1.
         21   -1    0    0  501  503 -0.00000000000E+00 -0.00000000000E+00 -0.12908364517E+03  0.12908364517E+03  0.00000000000E+00 0. -1.
          6    2    1    2  501    0  0.79450153563E+01  0.51817750926E+02  0.75466588613E+02  0.19376601896E+03  0.17059267723E+03 0.  0.
         24    2    3    3    0    0 -0.36719315409E+02  0.42254815107E+02  0.10269190681E+03  0.14038381092E+03  0.77641542488E+02 0.  0.
         -6    2    1    2    0  502 -0.79450153563E+01 -0.51817750926E+02  0.70288962521E+02  0.21015682251E+03  0.19098991914E+03 0.  0.
        -24    2    5    5    0    0  0.20403149035E+02  0.46349013037E+02  0.20831149725E+02  0.96541254834E+02  0.79509481108E+02 0.  0.
          5    1    3    3  501    0  0.44664330765E+02  0.95629358187E+01 -0.27225318197E+02  0.53382208039E+02  0.47000000000E+01 0. -1.
        -11    1    4    4    0    0 -0.36680472999E+02 -0.10074453309E+02  0.66987690395E+02  0.77034423301E+02  0.00000000000E+00 0.  1.
         12    1    4    4    0    0 -0.38842409945E-01  0.52329268416E+02  0.35704216415E+02  0.63349387617E+02  0.00000000000E+00 0. -1.
         -5    1    5    5    0  502 -0.28348164391E+02 -0.98166763963E+02  0.49457812797E+02  0.11361556767E+03  0.47000000000E+01 0.  1.
         11    1    6    6    0    0 -0.24737109803E+02  0.40705522059E+02  0.18140753078E+02  0.50970099566E+02  0.00000000000E+00 0. -1.
        -12    1    6    6    0    0  0.45140258838E+02  0.56434909782E+01  0.26903966467E+01  0.45571155268E+02  0.00000000000E+00 0.  1.
</event>
<event>
12    1  0.9028446E-003  0.2678226E+03  0.7818608E-02  0.1102554E+00
         21   -1    0    0  503  502  0.00000000000E+00  0.00000000000E+00  0.88300800691E+03  0.88300800691E+03  0.00000000000E+00 0.  1.
         21   -1    0    0  501  503 -0.00000000000E+00 -0.00000000000E+00 -0.83878052623E+02  0.83878052623E+02  0.00000000000E+00 0. -1.
          6    2    1    2  501    0 -0.11655720725E+03 -0.16985795150E+03  0.31287251994E+03  0.41175071943E+03  0.17091557849E+03 0.  0.
         24    2    3    3    0    0 -0.51655112546E+02 -0.15338718637E+03  0.14804119914E+03  0.23377593943E+03  0.80864786019E+02 0.  0.
         -6    2    1    2    0  502  0.11655720725E+03  0.16985795150E+03  0.48625743434E+03  0.55513534010E+03  0.17114802694E+03 0.  0.
        -24    2    5    5    0    0  0.12499567035E+03  0.11636267749E+03  0.45328148367E+03  0.49155503400E+03  0.83654394372E+02 0.  0.
          5    1    3    3  501    0 -0.64902094700E+02 -0.16470765127E+02  0.16483132080E+03  0.17797478001E+03  0.47000000000E+01 0. -1.
        -13    1    4    4    0    0 -0.65316740089E+02 -0.79031866109E+02  0.10511881169E+03  0.14684099213E+03  0.00000000000E+00 0.  1.
         14    1    4    4    0    0  0.13661627543E+02 -0.74355320261E+02  0.42922387442E+02  0.86934947300E+02  0.00000000000E+00 0. -1.
         -5    1    5    5    0  502 -0.84384631020E+01  0.53495274003E+02  0.32975950673E+02  0.63580306094E+02  0.47000000000E+01 0.  1.
         11    1    6    6    0    0  0.55021766896E+02  0.44979997930E+01  0.17648702942E+03  0.18491970795E+03  0.00000000000E+00 0. -1.
        -12    1    6    6    0    0  0.69973903452E+02  0.11186467770E+03  0.27679445425E+03  0.30663532606E+03  0.00000000000E+00 0.  1.
</event>
<event>
12    1  0.9028446E-003  0.1818898E+03  0.7818608E-02  0.1166145E+00
         21   -1    0    0  501  502  0.00000000000E+00  0.00000000000E+00  0.91926576170E+02  0.91926576170E+02  0.00000000000E+00 0.  1.
         21   -1    0    0  502  503 -0.00000000000E+00 -0.00000000000E+00 -0.35859667195E+03  0.35859667195E+03  0.00000000000E+00 0.  1.
          6    2    1    2  501    0  0.73740574309E+01 -0.55478427392E+02 -0.13480425846E+03  0.22639805274E+03  0.17306547187E+03 0.  0.
         24    2    3    3    0    0 -0.13701809393E+02 -0.63597071796E+02 -0.16369370205E+03  0.18942786880E+03  0.69677559247E+02 0.  0.
         -6    2    1    2    0  503 -0.73740574309E+01  0.55478427392E+02 -0.13186583732E+03  0.22412519539E+03  0.17236957831E+03 0.  0.
        -24    2    5    5    0    0  0.11640415031E+02 -0.29381776621E+02 -0.32017638334E+02  0.91631583356E+02  0.79827500552E+02 0.  0.
          5    1    3    3  501    0  0.21075866824E+02  0.81186444037E+01  0.28889443594E+02  0.36970183939E+02  0.47000000000E+01 0. -1.
        -13    1    4    4    0    0 -0.15184868884E+02 -0.27260189707E+02 -0.14541542228E+03  0.14872573155E+03  0.00000000000E+00 0.  1.
         14    1    4    4    0    0  0.14830594916E+01 -0.36336882089E+02 -0.18278279772E+02  0.40702137251E+02  0.00000000000E+00 0. -1.
         -5    1    5    5    0  503 -0.19014472462E+02  0.84860204013E+02 -0.99848198988E+02  0.13249361203E+03  0.47000000000E+01 0.  1.
         13    1    6    6    0    0  0.24260014425E+02 -0.17777737361E+02 -0.55162392264E+02  0.62829020093E+02  0.00000000000E+00 0. -1.
        -14    1    6    6    0    0 -0.12619599394E+02 -0.11604039260E+02  0.23144753930E+02  0.28802563263E+02  0.00000000000E+00 0.  1.
</event>
<event>
12    1  0.9028446E-003  0.1862252E+03  0.7818608E-02  0.1162325E+00
         21   -1    0    0  501  502  0.00000000000E+00  0.00000000000E+00  0.30774297408E+03  0.30774297408E+03  0.00000000000E+00 0. -1.
         21   -1    0    0  502  503 -0.00000000000E+00 -0.00000000000E+00 -0.12211933081E+03  0.12211933081E+03  0.00000000000E+00 0. -1.
          6    2    1    2  501    0  0.68860778630E+02 -0.60811077543E+01  0.30187215996E+02  0.18865605061E+03  0.17291920286E+03 0.  0.
         24    2    3    3    0    0  0.52582450218E+02  0.18970411806E+02  0.83133000940E+02  0.12768139398E+03  0.79162187484E+02 0.  0.
         -6    2    1    2    0  503 -0.68860778630E+02  0.60811077543E+01  0.15543642727E+03  0.24120625428E+03  0.17100054818E+03 0.  0.
        -24    2    5    5    0    0 -0.45350800119E+02 -0.61587605442E+02  0.72492930290E+02  0.13150900032E+03  0.78674417744E+02 0.  0.
          5    1    3    3  501    0  0.16278328412E+02 -0.25051519560E+02 -0.52945784943E+02  0.60974656633E+02  0.47000000000E+01 0. -1.
        -13    1    4    4    0    0  0.16055735826E+01  0.41083536567E+02  0.31053944168E+02  0.51524579491E+02  0.00000000000E+00 0.  1.
         14    1    4    4    0    0  0.50976876635E+02 -0.22113124761E+02  0.52079056772E+02  0.76156814484E+02  0.00000000000E+00 0. -1.
         -5    1    5    5    0  503 -0.23509978511E+02  0.67668713197E+02  0.82943496981E+02  0.10969725396E+03  0.47000000000E+01 0.  1.
         11    1    6    6    0    0 -0.56969675220E+02 -0.65937721690E+02  0.78894227689E+02  0.11754839939E+03  0.00000000000E+00 0. -1.
        -12    1    6    6    0    0  0.11618875100E+02  0.43501162473E+01 -0.64012973986E+01  0.13960600931E+02  0.00000000000E+00 0.  1.
</event>
<event>
12    1  0.9028446E-003  0.2553767E+03  0.7818608E-02  0.1110342E+00
         21   -1    0    0  503  502  0.00000000000E+00  0.00000000000E+00  0.18846403178E+03  0.18846403178E+03  0.00000000000E+00 0.  1.
         21   -1    0    0  501  503 -0.00000000000E+00 -0.00000000000E+00 -0.39642149431E+03  0.39642149431E+03  0.00000000000E+00 0. -1.
          6    2    1    2  501    0  0.17171151643E+03 -0.72732370687E+02 -0.21213081492E+03  0.33198905703E+03  0.17447753072E+03 0.  0.
         24    2    3    3    0    0  0.42939626193E+02  0.24748931477E+02 -0.74163607708E+02  0.11952295561E+03  0.79556112912E+02 0.  0.
         -6    2    1    2    0  502 -0.17171151643E+03  0.72732370687E+02  0.41733523917E+01  0.25289646906E+03  0.17077577279E+03 0.  0.
        -24    2    5    5    0    0 -0.14161435141E+03  0.97242614112E+02 -0.46306866317E+02  0.18904559706E+03  0.63899619514E+02 0.  0.
          5    1    3    3  501    0  0.12877189024E+03 -0.97481302163E+02 -0.13796720721E+03  0.21246610142E+03  0.47000000000E+01 0. -1.
        -13    1    4    4    0    0 -0.19699029240E+02  0.22076055231E+02 -0.14396104359E+02  0.32903674389E+02  0.00000000000E+00 0.  1.
         14    1    4    4    0    0  0.62638655433E+02  0.26728762453E+01 -0.59767503349E+02  0.86619281217E+02  0.00000000000E+00 0. -1.
         -5    1    5    5    0  502 -0.30097165027E+02 -0.24510243425E+02  0.50480218708E+02  0.63850872009E+02  0.47000000000E+01 0.  1.
         13    1    6    6    0    0  0.82406321004E+00 -0.61091826876E+01 -0.57914085260E+01  0.84582271192E+01  0.00000000000E+00 0. -1.
        -14    1    6    6    0    0 -0.14243841462E+03  0.10335179680E+03 -0.40515457791E+02  0.18058736994E+03  0.00000000000E+00 0.  1.
</event>
<event>
12    1  0.9028446E-003  0.2850260E+03  0.7818608E-02  0.1093114E+00
         21   -1    0    0  503  502  0.00000000000E+00  0.00000000000E+00  0.14934649845E+03  0.14934649845E+03  0.00000000000E+00 0.  1.
         21   -1    0    0  501  503 -0.00000000000E+00 -0.00000000000E+00 -0.57333494821E+03  0.57333494821E+03  0.00000000000E+00 0. -1.
          6    2    1    2  501    0 -0.80862209526E+02  0.21137281483E+03 -0.29611923182E+03  0.41028685708E+03  0.17155623526E+03 0.  0.
         24    2    3    3    0    0  0.12598219616E+02  0.67287031283E+02 -0.71206785621E+02  0.12726165804E+03  0.80242529694E+02 0.  0.
         -6    2    1    2    0  502  0.80862209526E+02 -0.21137281483E+03 -0.12786921794E+03  0.31239458958E+03  0.17327053681E+03 0.  0.
        -24    2    5    5    0    0  0.50020412888E+02 -0.13448015445E+03 -0.51582067102E+01  0.16426025893E+03  0.79798946874E+02 0.  0.
          5    1    3    3  501    0 -0.93460429142E+02  0.14408578355E+03 -0.22491244620E+03  0.28302519904E+03  0.47000000000E+01 0. -1.
        -11    1    4    4    0    0 -0.21361812998E+02 -0.79671040151E+01 -0.13008597987E+02  0.26249293753E+02  0.00000000000E+00 0.  1.
         12    1    4    4    0    0  0.33960032614E+02  0.75254135298E+02 -0.58198187634E+02  0.10101236428E+03  0.00000000000E+00 0. -1.
         -5    1    5    5    0  502  0.30841796637E+02 -0.76892660379E+02 -0.12271101123E+03  0.14813433065E+03  0.47000000000E+01 0.  1.
         11    1    6    6    0    0  0.99219166240E+01 -0.46886718049E+02  0.35556237593E+02  0.59674574072E+02  0.00000000000E+00 0. -1.
        -12    1    6    6    0    0  0.40098496264E+02 -0.87593436402E+02 -0.40714444303E+02  0.10458568486E+03  0.00000000000E+00 0.  1.
</event>
<event>
12    1  0.9028446E-003  0.2152248E+03  0.7818608E-02  0.1137667E+00
         21   -1    0    0  503  502  0.00000000000E+00  0.00000000000E+00  0.16340697117E+04  0.16340697117E+04  0.00000000000E+00 0. -1.
         21   -1    0    0  501  503 -0.00000000000E+00 -0.00000000000E+00 -0.28348480775E+02  0.28348480775E+02  0.00000000000E+00 0. -1.
          6    2    1    2  501    0 -0.17770445783E+02 -0.12635909357E+03  0.75059006903E+03  0.78083748968E+03  0.17331856303E+03 0.  0.
         24    2    3    3    0    0  0.21759431570E+02  0.37030983036E+00  0.31600009113E+03  0.32639993425E+03  0.78786099629E+02 0.  0.
         -6    2    1    2    0  502  0.17770445783E+02  0.12635909357E+03  0.85513116192E+03  0.88158070282E+03  0.17219994840E+03 0.  0.
        -24    2    5    5    0    0  0.79295873312E+02  0.75213414947E+02  0.56926025721E+03  0.58468758597E+03  0.76533910356E+02 0.  0.
          5    1    3    3  501    0 -0.39529877353E+02 -0.12672940340E+03  0.43458997790E+03  0.45443755543E+03  0.47000000000E+01 0. -1.
        -11    1    4    4    0    0  0.13362099601E+02 -0.25870381031E+02  0.27768491083E+03  0.27920732803E+03  0.00000000000E+00 0.  1.
         12    1    4    4    0    0  0.83973319689E+01  0.26240690862E+02  0.38315180297E+02  0.47192606225E+02  0.00000000000E+00 0. -1.
         -5    1    5    5    0  502 -0.61525427529E+02  0.51145678624E+02  0.28587090471E+03  0.29689311685E+03  0.47000000000E+01 0.  1.
         11    1    6    6    0    0  0.79897859808E+01 -0.15530677006E+02  0.58520192321E+02  0.61070872906E+02  0.00000000000E+00 0. -1.
        -12    1    6    6    0    0  0.71306087331E+02  0.90744091953E+02  0.51074006489E+03  0.52361671306E+03  0.00000000000E+00 0.  1.
</event>
<event>
12    1  0.9028446E-003  0.3040676E+03  0.7818608E-02  0.1083508E+00
         21   -1    0    0  503  502  0.00000000000E+00  0.00000000000E+00  0.85709127832E+03  0.85709127832E+03  0.00000000000E+00 0. -1.
         21   -1    0    0  501  503 -0.00000000000E+00 -0.00000000000E+00 -0.11406151702E+03  0.11406151702E+03  0.00000000000E+00 0.  1.
          6    2    1    2  501    0  0.14219505445E+03 -0.20486279433E+03  0.24987435236E+03  0.39179160538E+03  0.16992725522E+03 0.  0.
         24    2    3    3    0    0  0.63162026341E+02 -0.70842287163E+02  0.39127078825E+02  0.12979118710E+03  0.79415066143E+02 0.  0.
         -6    2    1    2    0  502 -0.14219505445E+03  0.20486279433E+03  0.49315540894E+03  0.57936118997E+03  0.17397969153E+03 0.  0.
        -24    2    5    5    0    0 -0.96725978038E+02  0.48356901832E+02  0.18687316757E+03  0.23238506301E+03  0.85947262748E+02 0.  0.
          5    1    3    3  501    0  0.79033028107E+02 -0.13402050716E+03  0.21074727353E+03  0.26200041827E+03  0.47000000000E+01 0. -1.
        -11    1    4    4    0    0  0.81701486605E+02 -0.52853872934E+02  0.25536034108E+02  0.10060195741E+03  0.00000000000E+00 0.  1.
         12    1    4    4    0    0 -0.18539460264E+02 -0.17988414229E+02  0.13591044717E+02  0.29189229689E+02  0.00000000000E+00 0. -1.
         -5    1    5    5    0  502 -0.45469076410E+02  0.15650589250E+03  0.30628224137E+03  0.34697612696E+03  0.47000000000E+01 0.  1.
         13    1    6    6    0    0 -0.43234996685E+02  0.55049897909E+02  0.15421124639E+03  0.16935425803E+03  0.00000000000E+00 0. -1.
        -14    1    6    6    0    0 -0.53490981352E+02 -0.66929960771E+01  0.32661921174E+02  0.63030804987E+02  0.00000000000E+00 0.  1.
</event>
<event>
12    1  0.9028446E-003  0.1978754E+03  0.7818608E-02  0.1151644E+00
         21   -1    0    0  503  502  0.00000000000E+00  0.00000000000E+00  0.30388929098E+03  0.30388929098E+03  0.00000000000E+00 0. -1.
         21   -1    0    0  501  503 -0.00000000000E+00 -0.00000000000E+00 -0.14190717570E+03  0.14190717570E+03  0.00000000000E+00 0. -1.
          6    2    1    2  501    0 -0.95482576779E+02 -0.14375201355E+02  0.12497057366E+02  0.19780359104E+03  0.17218163463E+03 0.  0.
         24    2    3    3    0    0 -0.62328485644E+02 -0.95673831814E+01  0.75217819509E+02  0.12654144907E+03  0.79866407317E+02 0.  0.
         -6    2    1    2    0  502  0.95482576779E+02  0.14375201355E+02  0.14948505791E+03  0.24799287564E+03  0.17271686353E+03 0.  0.
        -24    2    5    5    0    0  0.11310713756E+03 -0.10667826315E+02  0.16310267883E+03  0.21415047654E+03  0.79692632513E+02 0.  0.
          5    1    3    3  501    0 -0.33154091135E+02 -0.48078181739E+01 -0.62720762143E+02  0.71262141972E+02  0.47000000000E+01 0. -1.
        -13    1    4    4    0    0  0.97912791816E+01  0.46442914008E+01 -0.94773161354E+01  0.14396461779E+02  0.00000000000E+00 0.  1.
         14    1    4    4    0    0 -0.72119764825E+02 -0.14211674582E+02  0.84695135645E+02  0.11214498729E+03  0.00000000000E+00 0. -1.
         -5    1    5    5    0  502 -0.17624560779E+02  0.25043027670E+02 -0.13617620915E+02  0.33842399102E+02  0.47000000000E+01 0.  1.
         13    1    6    6    0    0  0.36698019660E+02 -0.26836568974E+02  0.11184293187E+03  0.12073022608E+03  0.00000000000E+00 0. -1.
        -14    1    6    6    0    0  0.76409117899E+02  0.16168742659E+02  0.51259746961E+02  0.93420250458E+02  0.00000000000E+00 0.  1.
</event>
<event>
12    1  0.9028446E-003  0.2016220E+03  0.7818608E-02  0.1148966E+00
         21   -1    0    0  503  502  0.00000000000E+00  0.00000000000E+00  0.34842226098E+02  0.34842226098E+02  0.00000000000E+00 0. -1.
         21   -1    0    0  501  503 -0.00000000000E+00 -0.00000000000E+00 -0.11549457859E+04  0.11549457859E+04  0.00000000000E+00 0. -1.
          6    2    1    2  501    0 -0.10305702832E+03 -0.63476068759E+01 -0.60041187079E+03  0.63336075144E+03  0.17317731860E+03 0.  0.
         24    2    3    3    0    0 -0.29704162446E+02  0.32776748092E+02 -0.45513671040E+03  0.46591428146E+03  0.89275080672E+02 0.  0.
         -6    2    1    2    0  502  0.10305702832E+03  0.63476068759E+01 -0.51969168904E+03  0.55642726058E+03  0.16991410027E+03 0.  0.
        -24    2    5    5    0    0  0.45458876271E+02 -0.25831058191E+02 -0.45079188765E+03  0.46091660026E+03  0.80604177468E+02 0.  0.
          5    1    3    3  501    0 -0.73352865870E+02 -0.39124354967E+02 -0.14527516039E+03  0.16744646998E+03  0.47000000000E+01 0. -1.
        -11    1    4    4    0    0 -0.39900146043E+02 -0.41049327347E+01 -0.37468834672E+03  0.37682917787E+03  0.00000000000E+00 0.  1.
         12    1    4    4    0    0  0.10195983597E+02  0.36881680826E+02 -0.80448363684E+02  0.89085103589E+02  0.00000000000E+00 0. -1.
         -5    1    5    5    0  502  0.57598152045E+02  0.32178665066E+02 -0.68899801388E+02  0.95510660326E+02  0.47000000000E+01 0.  1.
         11    1    6    6    0    0  0.63280781988E+02 -0.27134709959E+02 -0.24928547065E+03  0.25861940324E+03  0.00000000000E+00 0. -1.
        -12    1    6    6    0    0 -0.17821905717E+02  0.13036517684E+01 -0.20150641699E+03  0.20229719702E+03  0.00000000000E+00 0.  1.
</event>
<event>
12    1  0.9028446E-003  0.2334329E+03  0.7818608E-02  0.1125805E+00
         21   -1    0    0  503  502  0.00000000000E+00  0.00000000000E+00  0.22535774928E+03  0.22535774928E+03  0.00000000000E+00 0.  1.
         21   -1    0    0  501  503 -0.00000000000E+00 -0.00000000000E+00 -0.44411158914E+03  0.44411158914E+03  0.00000000000E+00 0. -1.
          6    2    1    2  501    0 -0.14170884158E+03 -0.14311194207E+02 -0.34139871696E+03  0.41357464988E+03  0.18494512976E+03 0.  0.
         24    2    3    3    0    0 -0.16211835357E+03  0.13890988833E+02 -0.33025249675E+03  0.37672034846E+03  0.79851043831E+02 0.  0.
         -6    2    1    2    0  502  0.14170884158E+03  0.14311194207E+02  0.12264487711E+03  0.25589468854E+03  0.17364941601E+03 0.  0.
        -24    2    5    5    0    0  0.16299636507E+03  0.39285765910E+02  0.12047680608E+03  0.22267303264E+03  0.83411223666E+02 0.  0.
          5    1    3    3  501    0  0.20409511993E+02 -0.28202183040E+02 -0.11146220206E+02  0.36854301417E+02  0.47000000000E+01 0. -1.
        -11    1    4    4    0    0 -0.54941237731E+02  0.23054732713E+02 -0.54572308720E+02  0.80797259749E+02  0.00000000000E+00 0.  1.
         12    1    4    4    0    0 -0.10717711584E+03 -0.91637438797E+01 -0.27568018803E+03  0.29592308871E+03  0.00000000000E+00 0. -1.
         -5    1    5    5    0  502 -0.21287523496E+02 -0.24974571704E+02  0.21680710269E+01  0.33221655895E+02  0.47000000000E+01 0.  1.
         11    1    6    6    0    0  0.41438788520E+02 -0.14869574984E+02  0.64978513956E+02  0.78488755438E+02  0.00000000000E+00 0. -1.
        -12    1    6    6    0    0  0.12155757655E+03  0.54155340895E+02  0.55498292123E+02  0.14418427721E+03  0.00000000000E+00 0.  1.
</event>
<event>
12    1  0.9028446E-003  0.3000804E+03  0.7818608E-02  0.1085237E+00
         21   -1    0    0  503  502  0.00000000000E+00  0.00000000000E+00  0.24834384500E+03  0.24834384500E+03  0.00000000000E+00 0. -1.
         21   -1    0    0  501  503 -0.00000000000E+00 -0.00000000000E+00 -0.37165036733E+03  0.37165036733E+03  0.00000000000E+00 0.  1.
          6    2    1    2  501    0 -0.18713394300E+03 -0.15968583841E+03 -0.11094393185E+03  0.31965928458E+03  0.17133249135E+03 0.  0.
         24    2    3    3    0    0 -0.15453842567E+02 -0.54501346767E+02 -0.52279194524E+02  0.10989399772E+03  0.78322145685E+02 0.  0.
         -6    2    1    2    0  502  0.18713394300E+03  0.15968583841E+03 -0.12362590475E+02  0.30033492775E+03  0.17184165842E+03 0.  0.
        -24    2    5    5    0    0  0.18795607620E+03  0.94582549016E+02  0.22348230440E+02  0.22640221995E+03  0.80530594423E+02 0.  0.
          5    1    3    3  501    0 -0.17168010043E+03 -0.10518449164E+03 -0.58664737326E+02  0.20976528686E+03  0.47000000000E+01 0. -1.
        -11    1    4    4    0    0 -0.42177927506E+02 -0.13303212148E+02 -0.39143850042E+02  0.59060934790E+02  0.00000000000E+00 0.  1.
         12    1    4    4    0    0  0.26724084939E+02 -0.41198134619E+02 -0.13135344482E+02  0.50833062927E+02  0.00000000000E+00 0. -1.
         -5    1    5    5    0  502 -0.82213319732E+00  0.65103289395E+02 -0.34710820915E+02  0.73932707793E+02  0.47000000000E+01 0.  1.
         13    1    6    6    0    0  0.90651755098E+02  0.43762460852E+01  0.23351967285E+02  0.93713428111E+02  0.00000000000E+00 0. -1.
        -14    1    6    6    0    0  0.97304321099E+02  0.90206302930E+02 -0.10037368458E+01  0.13268879184E+03  0.00000000000E+00 0.  1.
</event>
<event>
12    1  0.9028446E-003  0.2232614E+03  0.7818608E-02  0.1131788E+00
         21   -1    0    0  501  502  0.00000000000E+00  0.00000000000E+00  0.53043469945E+03  0.53043469945E+03  0.00000000000E+00 0.  1.
         21   -1    0    0  502  503 -0.00000000000E+00 -0.00000000000E+00 -0.93274371728E+02  0.93274371728E+02  0.00000000000E+00 0. -1.
          6    2    1    2  501    0 -0.11091112784E+03 -0.87668714139E+02  0.22230276434E+03  0.31385521704E+03  0.17058574535E+03 0.  0.
         24    2    3    3    0    0 -0.14074489778E+03 -0.85388192685E+02  0.21625177420E+03  0.28296898890E+03  0.78780385448E+02 0.  0.
         -6    2    1    2    0  503  0.11091112784E+03  0.87668714139E+02  0.21485756339E+03  0.30985385414E+03  0.17279628660E+03 0.  0.
        -24    2    5    5    0    0  0.88400865445E+02  0.10985513253E+03  0.22438868974E+03  0.27650896782E+03  0.78892724962E+02 0.  0.
          5    1    3    3  501    0  0.29833769949E+02 -0.22805214537E+01  0.60509901404E+01  0.30886228147E+02  0.47000000000E+01 0. -1.
        -13    1    4    4    0    0 -0.13174583106E+03 -0.78284192227E+02  0.14558209259E+03  0.21137531653E+03  0.00000000000E+00 0.  1.
         14    1    4    4    0    0 -0.89990667221E+01 -0.71040004577E+01  0.70669681613E+02  0.71593672371E+02  0.00000000000E+00 0. -1.
         -5    1    5    5    0  503  0.22510262390E+02 -0.22186418387E+02 -0.95311263504E+01  0.33344886313E+02  0.47000000000E+01 0.  1.
         13    1    6    6    0    0  0.24573575664E+02 -0.12845658050E+01  0.96500240332E+01  0.26431679744E+02  0.00000000000E+00 0. -1.
        -14    1    6    6    0    0  0.63827289781E+02  0.11113969833E+03  0.21473866570E+03  0.25007728808E+03  0.00000000000E+00 0.  1.
</event>
<event>
12    1  0.9028446E-003  0.2254231E+03  0.7818608E-02  0.1131498E+00
         21   -1    0    0  501  502  0.00000000000E+00  0.00000000000E+00  0.11877301788E+03  0.11877301788E+03  0.00000000000E+00 0. -1.
         21   -1    0    0  502  503 -0.00000000000E+00 -0.00000000000E+00 -0.52226454642E+03  0.52226454642E+03  0.00000000000E+00 0. -1.
          6    2    1    2  501    0 -0.14513507779E+03  0.68385051745E+01 -0.51110992575E+02  0.22272234842E+03  0.16087869643E+03 0.  0.
         24    2    3    3    0    0 -0.32260212974E+02  0.44667746146E+02 -0.16433878748E+02  0.98640203034E+02  0.80149163421E+02 0.  0.
         -6    2    1    2    0  503  0.14513507779E+03 -0.68385051745E+01 -0.35238053596E+03  0.41831521588E+03  0.17235028794E+03 0.  0.
        -24    2    5    5    0    0  0.78296578681E+02 -0.26437617496E+02 -0.32383143220E+03  0.34289206630E+03  0.76673794724E+02 0.  0.
          5    1    3    3  501    0 -0.11287486482E+03 -0.37829240971E+02 -0.34677113827E+02  0.12408214539E+03  0.47000000000E+01 0. -1.
        -13    1    4    4    0    0  0.25961995694E+02  0.66968374554E+01  0.15013240326E+01  0.26853804687E+02  0.00000000000E+00 0.  1.
         14    1    4    4    0    0 -0.58222208667E+02  0.37970908691E+02 -0.17935202781E+02  0.71786398347E+02  0.00000000000E+00 0. -1.
         -5    1    5    5    0  503  0.66838499113E+02  0.19599112322E+02 -0.28549103760E+02  0.75423149583E+02  0.47000000000E+01 0.  1.
         13    1    6    6    0    0  0.88545760824E+02 -0.12216040394E+02 -0.30168080042E+03  0.31464406675E+03  0.00000000000E+00 0. -1.
        -14    1    6    6    0    0 -0.10249182143E+02 -0.14221577102E+02 -0.22150631782E+02  0.28247999543E+02  0.00000000000E+00 0.  1.
</event>
<event>
12    1  0.9028446E-003  0.1809474E+03  0.7818608E-02  0.1167535E+00
         21   -1    0    0  503  502  0.00000000000E+00  0.00000000000E+00  0.27011961255E+03  0.27011961255E+03  0.00000000000E+00 0. -1.
         21   -1    0    0  501  503 -0.00000000000E+00 -0.00000000000E+00 -0.15177395144E+03  0.15177395144E+03  0.00000000000E+00 0. -1.
          6    2    1    2  501    0  0.25922921953E+02 -0.42926244729E+02 -0.38546156431E+02  0.18240031362E+03  0.17108304377E+03 0.  0.
         24    2    3    3    0    0 -0.82749055769E+01 -0.75684198340E+02  0.15213809404E+02  0.11060338570E+03  0.78772311070E+02 0.  0.
         -6    2    1    2    0  502 -0.25922921953E+02  0.42926244729E+02  0.15689181755E+03  0.23949325036E+03  0.17386004195E+03 0.  0.
        -24    2    5    5    0    0 -0.27894562047E+02 -0.35123756874E+02  0.12395947037E+03  0.15462676932E+03  0.80818949553E+02 0.  0.
          5    1    3    3  501    0  0.34197827529E+02  0.32757953611E+02 -0.53759965835E+02  0.71796927922E+02  0.47000000000E+01 0. -1.
        -11    1    4    4    0    0  0.18639265640E+02 -0.28311180126E+02  0.38548961856E+02  0.51331935516E+02  0.00000000000E+00 0.  1.
         12    1    4    4    0    0 -0.26914171217E+02 -0.47373018215E+02 -0.23335152452E+02  0.59271450185E+02  0.00000000000E+00 0. -1.
         -5    1    5    5    0  502  0.19716400946E+01  0.78050001603E+02  0.32932347182E+02  0.84866481050E+02  0.47000000000E+01 0.  1.
         13    1    6    6    0    0 -0.30395518326E+02 -0.97451792850E+01  0.12509191429E+03  0.12910012809E+03  0.00000000000E+00 0. -1.
        -14    1    6    6    0    0  0.25009562791E+01 -0.25378577589E+02 -0.11324439238E+01  0.25526641220E+02  0.00000000000E+00 0.  1.
</event>
<event>
12    1  0.9028446E-003  0.1749771E+03  0.7818608E-02  0.1173708E+00
         21   -1    0    0  503  502  0.00000000000E+00  0.00000000000E+00  0.17575215678E+03  0.17575215678E+03  0.00000000000E+00 0. -1.
         21   -1    0    0  501  503 -0.00000000000E+00 -0.00000000000E+00 -0.20588364551E+03  0.20588364551E+03  0.00000000000E+00 0. -1.
          6    2    1    2  501    0 -0.28464815822E+02 -0.82634014908E+01 -0.94315513335E+02  0.19877727829E+03  0.17244842929E+03 0.  0.
         24    2    3    3    0    0 -0.51846065414E+02 -0.64159839037E+02 -0.37419634117E+02  0.11552870091E+03  0.71708801920E+02 0.  0.
         -6    2    1    2    0  502  0.28464815822E+02  0.82634014908E+01  0.64184024600E+02  0.18285852401E+03  0.16863902646E+03 0.  0.
        -24    2    5    5    0    0  0.36651038015E+02 -0.56353713675E+02  0.49731279079E+02  0.11597535976E+03  0.80361958169E+02 0.  0.
          5    1    3    3  501    0  0.23381249592E+02  0.55896437547E+02 -0.56895879218E+02  0.83248577375E+02  0.47000000000E+01 0. -1.
        -13    1    4    4    0    0 -0.33088718040E+02  0.77904651539E+01 -0.47906955979E+01  0.34329366047E+02  0.00000000000E+00 0.  1.
         14    1    4    4    0    0 -0.18757347374E+02 -0.71950304191E+02 -0.32628938519E+02  0.81199334865E+02  0.00000000000E+00 0. -1.
         -5    1    5    5    0  502 -0.81862221933E+01  0.64617115166E+02  0.14452745521E+02  0.66883164243E+02  0.47000000000E+01 0.  1.
         13    1    6    6    0    0  0.40046143873E+02 -0.30761132368E+02  0.67745478762E+02  0.84494915802E+02  0.00000000000E+00 0. -1.
        -14    1    6    6    0    0 -0.33951058581E+01 -0.25592581307E+02 -0.18014199683E+02  0.31480443961E+02  0.00000000000E+00 0.  1.
</event>
<event>
12    1  0.9028446E-003  0.2254722E+03  0.7818608E-02  0.1130304E+00
         21   -1    0    0  503  502  0.00000000000E+00  0.00000000000E+00  0.62065552033E+02  0.62065552033E+02  0.00000000000E+00 0.  1.
         21   -1    0    0  501  503 -0.00000000000E+00 -0.00000000000E+00 -0.11521709667E+04  0.11521709667E+04  0.00000000000E+00 0.  1.
          6    2    1    2  501    0  0.96621281675E+02  0.10854223632E+03 -0.87776009183E+03  0.90625629591E+03  0.17239665288E+03 0.  0.
         24    2    3    3    0    0  0.27889980410E+02  0.17547242234E+02 -0.59612235480E+03  0.60237147292E+03  0.80023576399E+02 0.  0.
         -6    2    1    2    0  502 -0.96621281675E+02 -0.10854223632E+03 -0.21234532287E+03  0.30798022286E+03  0.16924595236E+03 0.  0.
        -24    2    5    5    0    0 -0.78112269035E+02 -0.12047665903E+03 -0.22793857259E+03  0.28058946837E+03  0.78474868222E+02 0.  0.
          5    1    3    3  501    0  0.68731301265E+02  0.90994994088E+02 -0.28163773703E+03  0.30388482299E+03  0.47000000000E+01 0. -1.
        -13    1    4    4    0    0  0.39408808791E+02  0.41272424034E+02 -0.47470988709E+03  0.47812753957E+03  0.00000000000E+00 0.  1.
         14    1    4    4    0    0 -0.11518828381E+02 -0.23725181800E+02 -0.12141246771E+03  0.12424393335E+03  0.00000000000E+00 0. -1.
         -5    1    5    5    0  502 -0.18509012640E+02  0.11934422712E+02  0.15593249720E+02  0.27390754484E+02  0.47000000000E+01 0.  1.
         11    1    6    6    0    0 -0.18090531585E+01 -0.87652936315E+01 -0.78513417946E+02  0.79021894708E+02  0.00000000000E+00 0. -1.
        -12    1    6    6    0    0 -0.76303215877E+02 -0.11171136540E+03 -0.14942515464E+03  0.20156757367E+03  0.00000000000E+00 0.  1.
</event>
<event>
12    1  0.9028446E-003  0.1755765E+03  0.7818608E-02  0.1173092E+00
         21   -1    0    0  501  502  0.00000000000E+00  0.00000000000E+00  0.80449518123E+02  0.80449518123E+02  0.00000000000E+00 0. -1.
         21   -1    0    0  502  503 -0.00000000000E+00 -0.00000000000E+00 -0.37525483722E+03  0.37525483722E+03  0.00000000000E+00 0. -1.
          6    2    1    2  501    0 -0.26256162557E+02  0.11009301768E+02 -0.15000955672E+03  0.22812378145E+03  0.16949041789E+03 0.  0.
         24    2    3    3    0    0  0.53457839480E+02  0.26131758777E+02 -0.10179569078E+03  0.13362680956E+03  0.62874097639E+02 0.  0.
         -6    2    1    2    0  503  0.26256162557E+02 -0.11009301768E+02 -0.14479576237E+03  0.22758057389E+03  0.17325274605E+03 0.  0.
        -24    2    5    5    0    0  0.82672972873E+02  0.85652494111E+01 -0.99597154775E+02  0.15254042684E+03  0.80254623800E+02 0.  0.
          5    1    3    3  501    0 -0.79714002037E+02 -0.15122457009E+02 -0.48213865946E+02  0.94496971889E+02  0.47000000000E+01 0. -1.
        -11    1    4    4    0    0 -0.16839690731E+01 -0.15666251243E+02 -0.99540603704E+01  0.18637341487E+02  0.00000000000E+00 0.  1.
         12    1    4    4    0    0  0.55141808553E+02  0.41798010020E+02 -0.91841630406E+02  0.11498946807E+03  0.00000000000E+00 0. -1.
         -5    1    5    5    0  503 -0.56416810316E+02 -0.19574551180E+02 -0.45198607595E+02  0.75040147046E+02  0.47000000000E+01 0.  1.
         13    1    6    6    0    0  0.45115685335E+02 -0.14896536081E+00  0.66491307104E+00  0.45120830703E+02  0.00000000000E+00 0. -1.
        -14    1    6    6    0    0  0.37557287537E+02  0.87142147720E+01 -0.10026206785E+03  0.10741959614E+03  0.00000000000E+00 0.  1.
</event>
<event>
12    1  0.9028446E-003  0.1839279E+03  0.7818608E-02  0.1164449E+00
         21   -1    0    0  501  502  0.00000000000E+00  0.00000000000E+00  0.16130019272E+03  0.16130019272E+03  0.00000000000E+00 0.  1.
         21   -1    0    0  502  503 -0.00000000000E+00 -0.00000000000E+00 -0.22158959254E+03  0.22158959254E+03  0.00000000000E+00 0.  1.
          6    2    1    2  501    0  0.49154644767E+02  0.35445557682E+02  0.17684391877E+02  0.18311644255E+03  0.17189045103E+03 0.  0.
         24    2    3    3    0    0 -0.16652680618E+02 -0.31921674480E+02  0.16218106958E+02  0.88812741483E+02  0.79551058968E+02 0.  0.
         -6    2    1    2    0  503 -0.49154644767E+02 -0.35445557682E+02 -0.77973791702E+02  0.19977334271E+03  0.17365744903E+03 0.  0.
        -24    2    5    5    0    0 -0.90414246078E+02  0.13265061700E+02 -0.15393771134E+02  0.11025558964E+03  0.59738003821E+02 0.  0.
          5    1    3    3  501    0  0.65807325386E+02  0.67367232162E+02  0.14662849185E+01  0.94303701068E+02  0.47000000000E+01 0. -1.
        -13    1    4    4    0    0  0.37394756712E+00  0.14203072480E+02  0.33745823589E+02  0.36614856470E+02  0.00000000000E+00 0.  1.
         14    1    4    4    0    0 -0.17026628185E+02 -0.46124746960E+02 -0.17527716630E+02  0.52197885012E+02  0.00000000000E+00 0. -1.
         -5    1    5    5    0  503  0.41259601310E+02 -0.48710619382E+02 -0.62580020568E+02  0.89517753072E+02  0.47000000000E+01 0.  1.
         11    1    6    6    0    0 -0.55863137822E+02 -0.91315387049E+01  0.15604987869E+02  0.58716188677E+02  0.00000000000E+00 0. -1.
        -12    1    6    6    0    0 -0.34551108256E+02  0.22396600404E+02 -0.30998759003E+02  0.51539400959E+02  0.00000000000E+00 0.  1.
</event>
<event>
12    1  0.9028446E-003  0.2083166E+03  0.7818608E-02  0.1143103E+00
         21   -1    0    0  501  502  0.00000000000E+00  0.00000000000E+00  0.58553704936E+02  0.58553704936E+02  0.00000000000E+00 0.  1.
         21   -1    0    0  502  503 -0.00000000000E+00 -0.00000000000E+00 -0.11649442497E+04  0.11649442497E+04  0.00000000000E+00 0. -1.
          6    2    1    2  501    0  0.11690244089E+03  0.96271703137E+01 -0.18352216217E+03  0.27762602381E+03  0.17215389045E+03 0.  0.
         24    2    3    3    0    0  0.14114188930E+03  0.41461614676E+02 -0.14658777484E+03  0.22297054216E+03  0.81165192842E+02 0.  0.
         -6    2    1    2    0  503 -0.11690244089E+03 -0.96271703137E+01 -0.92286838258E+03  0.94587193081E+03  0.17096430866E+03 0.  0.
        -24    2    5    5    0    0 -0.19297810235E+02 -0.12227792503E+02 -0.65174504280E+03  0.65766474399E+03  0.85025821291E+02 0.  0.
          5    1    3    3  501    0 -0.24239448416E+02 -0.31834444362E+02 -0.36934387329E+02  0.54655481653E+02  0.47000000000E+01 0. -1.
        -13    1    4    4    0    0  0.66979381429E+02 -0.17263559458E+02 -0.87097703570E+02  0.11122175142E+03  0.00000000000E+00 0.  1.
         14    1    4    4    0    0  0.74162507875E+02  0.58725174134E+02 -0.59490071272E+02  0.11174879074E+03  0.00000000000E+00 0. -1.
         -5    1    5    5    0  503 -0.97604630654E+02  0.26006221891E+01 -0.27112333977E+03  0.28820718681E+03  0.47000000000E+01 0.  1.
         13    1    6    6    0    0 -0.27114197695E+02  0.11621789116E+01 -0.63189354002E+03  0.63247606777E+03  0.00000000000E+00 0. -1.
        -14    1    6    6    0    0  0.78163874607E+01 -0.13389971414E+02 -0.19851502778E+02  0.25188676225E+02  0.00000000000E+00 0.  1.
</event>
<event>
12    1  0.9028446E-003  0.1892114E+03  0.7818608E-02  0.1163334E+00
         21   -1    0    0  501  502  0.00000000000E+00  0.00000000000E+00  0.27859990519E+03  0.27859990519E+03  0.00000000000E+00 0. -1.
         21   -1    0    0  502  503 -0.00000000000E+00 -0.00000000000E+00 -0.11698368892E+03  0.11698368892E+03  0.00000000000E+00 0. -1.
          6    2    1    2  501    0 -0.69977776175E+02 -0.14192094834E+02  0.88433773696E+02  0.20885756463E+03  0.17522170316E+03 0.  0.
         24    2    3    3    0    0 -0.86248458065E+02  0.34389981306E+02  0.98726996396E+02  0.15638858670E+03  0.78031422511E+02 0.  0.
         -6    2    1    2    0  503  0.69977776175E+02  0.14192094834E+02  0.73182442576E+02  0.18672602948E+03  0.15624543344E+03 0.  0.
        -24    2    5    5    0    0  0.39496217383E+02  0.64953734909E+02  0.65053322467E+02  0.12677569902E+03  0.77853736140E+02 0.  0.
          5    1    3    3  501    0  0.16270681890E+02 -0.48582076140E+02 -0.10293222700E+02  0.52468977928E+02  0.47000000000E+01 0. -1.
        -13    1    4    4    0    0 -0.11849794813E+01  0.29860906435E+02  0.60134577469E+01  0.30483431296E+02  0.00000000000E+00 0.  1.
         14    1    4    4    0    0 -0.85063478584E+02  0.45290748710E+01  0.92713538649E+02  0.12590515540E+03  0.00000000000E+00 0. -1.
         -5    1    5    5    0  503  0.30481558792E+02 -0.50761640075E+02  0.81291201092E+01  0.59950330468E+02  0.47000000000E+01 0.  1.
         13    1    6    6    0    0  0.19796318294E+02  0.24785826826E+02 -0.14984845707E+02  0.35082431933E+02  0.00000000000E+00 0. -1.
        -14    1    6    6    0    0  0.19699899089E+02  0.40167908084E+02  0.80038168174E+02  0.91693267084E+02  0.00000000000E+00 0.  1.
</event>
<event>
12    1  0.9028446E-003  0.1809950E+03  0.7818608E-02  0.1167105E+00
         21   -1    0    0  503  502  0.00000000000E+00  0.00000000000E+00  0.33985235415E+03  0.33985235415E+03  0.00000000000E+00 0. -1.
         21   -1    0    0  501  503 -0.00000000000E+00 -0.00000000000E+00 -0.95815778649E+02  0.95815778649E+02  0.00000000000E+00 0. -1.
          6    2    1    2  501    0  0.40845773092E+02 -0.37667843597E+02  0.12281965062E+03  0.21873235609E+03  0.17225543069E+03 0.  0.
         24    2    3    3    0    0  0.56654826161E+02 -0.45245537448E+02  0.15056463778E+03  0.18557784032E+03  0.80700041394E+02 0.  0.
         -6    2    1    2    0  502 -0.40845773092E+02  0.37667843597E+02  0.12121692488E+03  0.21693577671E+03  0.17111500437E+03 0.  0.
        -24    2    5    5    0    0  0.76941902239E+01 -0.42172041645E+02  0.68725739335E+02  0.10966066369E+03  0.73922609895E+02 0.  0.
          5    1    3    3  501    0 -0.15809053069E+02  0.75776938506E+01 -0.27744987164E+02  0.33154515767E+02  0.47000000000E+01 0. -1.
        -11    1    4    4    0    0 -0.19649152873E+01  0.94679740162E+00  0.88455159377E+02  0.88482046415E+02  0.00000000000E+00 0.  1.
         12    1    4    4    0    0  0.58619741448E+02 -0.46192334850E+02  0.62109478407E+02  0.97095793906E+02  0.00000000000E+00 0. -1.
         -5    1    5    5    0  502 -0.48539963316E+02  0.79839885242E+02  0.52491185548E+02  0.10727511302E+03  0.47000000000E+01 0.  1.
         11    1    6    6    0    0  0.27212253810E+02 -0.22437596693E+02  0.73474473722E+02  0.81501231840E+02  0.00000000000E+00 0. -1.
        -12    1    6    6    0    0 -0.19518063586E+02 -0.19734444952E+02 -0.47487343873E+01  0.28159431848E+02  0.00000000000E+00 0.  1.
</event>
<event>
12    1  0.9028446E-003  0.2705065E+03  0.7818608E-02  0.1101130E+00
         21   -1    0    0  501  502  0.00000000000E+00  0.00000000000E+00  0.47345569902E+03  0.47345569902E+03  0.00000000000E+00 0.  1.
         21   -1    0    0  502  503 -0.00000000000E+00 -0.00000000000E+00 -0.28235503555E+03  0.28235503555E+03  0.00000000000E+00 0. -1.
          6    2    1    2  501    0 -0.99275581692E+02 -0.18184271901E+03  0.35044714386E+03  0.44270412823E+03  0.17392909170E+03 0.  0.
         24    2    3    3    0    0 -0.35716963491E+02 -0.18708875700E+03  0.26992974147E+03  0.33988214153E+03  0.79874278243E+02 0.  0.
         -6    2    1    2    0  503  0.99275581692E+02  0.18184271901E+03 -0.15934648039E+03  0.31310660634E+03  0.17240078464E+03 0.  0.
        -24    2    5    5    0    0  0.55191820218E+02  0.13642429678E+03 -0.30836053363E+02  0.16977750616E+03  0.78840431510E+02 0.  0.
          5    1    3    3  501    0 -0.63558618201E+02  0.52460379923E+01  0.80517402392E+02  0.10282198671E+03  0.47000000000E+01 0. -1.
        -13    1    4    4    0    0 -0.57444477345E+02 -0.11269490271E+03  0.14074769920E+03  0.18923510220E+03  0.00000000000E+00 0.  1.
         14    1    4    4    0    0  0.21727513854E+02 -0.74393854290E+02  0.12918204227E+03  0.15064703933E+03  0.00000000000E+00 0. -1.
         -5    1    5    5    0  503  0.44083761474E+02  0.45418422229E+02 -0.12851042703E+03  0.14332910018E+03  0.47000000000E+01 0.  1.
         11    1    6    6    0    0  0.98276917116E+01  0.35206650081E+02 -0.44981591890E+02  0.57960636153E+02  0.00000000000E+00 0. -1.
        -12    1    6    6    0    0  0.45364128506E+02  0.10121764669E+03  0.14145538527E+02  0.11181687001E+03  0.00000000000E+00 0.  1.
</event>
<event>
12    1  0.9028446E-003  0.2026672E+03  0.7818608E-02  0.1147660E+00
         21   -1    0    0  503  502  0.00000000000E+00  0.00000000000E+00  0.52549678523E+03  0.52549678523E+03  0.00000000000E+00 0. -1.
         21   -1    0    0  501  503 -0.00000000000E+00 -0.00000000000E+00 -0.90041264836E+02  0.90041264836E+02  0.00000000000E+00 0. -1.
          6    2    1    2  501    0  0.64492814144E+02 -0.82373792187E+02  0.10428013981E+03  0.22727120353E+03  0.17272257431E+03 0.  0.
         24    2    3    3    0    0  0.50528816368E+02 -0.12487951594E+03  0.77219247372E+02  0.17477252083E+03  0.80215753368E+02 0.  0.
         -6    2    1    2    0  502 -0.64492814144E+02  0.82373792187E+02  0.33117538058E+03  0.38826684654E+03  0.17357778286E+03 0.  0.
        -24    2    5    5    0    0 -0.10598167238E+03  0.41686865487E+02  0.27019356177E+03  0.30390083687E+03  0.79882715235E+02 0.  0.
          5    1    3    3  501    0  0.13963997777E+02  0.42505723749E+02  0.27060892439E+02  0.52498682697E+02  0.47000000000E+01 0. -1.
        -13    1    4    4    0    0  0.19969078301E+02 -0.80501882298E+01 -0.11981602490E+02  0.24639975993E+02  0.00000000000E+00 0.  1.
         14    1    4    4    0    0  0.30559738067E+02 -0.11682932771E+03  0.89200849862E+02  0.15013254484E+03  0.00000000000E+00 0. -1.
         -5    1    5    5    0  502  0.41488858233E+02  0.40686926701E+02  0.60981818804E+02  0.84366009663E+02  0.47000000000E+01 0.  1.
         13    1    6    6    0    0 -0.49476573920E+02  0.57943403751E+02  0.18790247821E+03  0.20276269559E+03  0.00000000000E+00 0. -1.
        -14    1    6    6    0    0 -0.56505098458E+02 -0.16256538264E+02  0.82291083563E+02  0.10113814128E+03  0.00000000000E+00 0.  1.
</event>
<event>
12    1  0.9028446E-003  0.1814922E+03  0.7818608E-02  0.1167553E+00
         21   -1    0    0  501  502  0.00000000000E+00  0.00000000000E+00  0.10980657187E+03  0.10980657187E+03  0.00000000000E+00 0.  1.
         21   -1    0    0  502  503 -0.00000000000E+00 -0.00000000000E+00 -0.40187385140E+03  0.40187385140E+03  0.00000000000E+00 0.  1.
          6    2    1    2  501    0 -0.45663448744E+02 -0.71335796859E+01 -0.10797937703E+02  0.17693892215E+03  0.17045453413E+03 0.  0.
         24    2    3    3    0    0 -0.37429328052E+02  0.53599337149E+02  0.31825469475E+02  0.10213830203E+03  0.71732340641E+02 0.  0.
         -6    2    1    2    0  503  0.45663448744E+02  0.71335796859E+01 -0.28126934182E+03  0.33474150112E+03  0.17550894966E+03 0.  0.
        -24    2    5    5    0    0 -0.15758082991E+02  0.25573372806E+02 -0.24845417846E+03  0.26255039725E+03  0.79378320241E+02 0.  0.
          5    1    3    3  501    0 -0.82341206921E+01 -0.60732916835E+02 -0.42623407178E+02  0.74800620120E+02  0.47000000000E+01 0. -1.
        -13    1    4    4    0    0 -0.35771502593E+02 -0.40722451780E+01  0.25454685488E+02  0.44092228248E+02  0.00000000000E+00 0.  1.
         14    1    4    4    0    0 -0.16578254590E+01  0.57671582327E+02  0.63707839868E+01  0.58046073786E+02  0.00000000000E+00 0. -1.
         -5    1    5    5    0  503  0.61421531735E+02 -0.18439793120E+02 -0.32815163361E+02  0.72191103866E+02  0.47000000000E+01 0.  1.
         13    1    6    6    0    0 -0.84812715824E+01  0.42137203758E+02 -0.63296435975E+02  0.76510879719E+02  0.00000000000E+00 0. -1.
        -14    1    6    6    0    0 -0.72768114086E+01 -0.16563830952E+02 -0.18515774249E+03  0.18603951753E+03  0.00000000000E+00 0.  1.
</event>
<event>
12    1  0.9028446E-003  0.2526158E+03  0.7818608E-02  0.1111738E+00
         21   -1    0    0  501  502  0.00000000000E+00  0.00000000000E+00  0.22972941421E+03  0.22972941421E+03  0.00000000000E+00 0. -1.
         21   -1    0    0  502  503 -0.00000000000E+00 -0.00000000000E+00 -0.42141072854E+03  0.42141072854E+03  0.00000000000E+00 0.  1.
          6    2    1    2  501    0  0.18472288639E+03 -0.40863361239E+00  0.94520374846E+02  0.26971989707E+03  0.17231369614E+03 0.  0.
         24    2    3    3    0    0  0.72515384013E+02  0.46568531882E+01  0.11435013890E+03  0.15556433528E+03  0.76446981263E+02 0.  0.
         -6    2    1    2    0  503 -0.18472288639E+03  0.40863361239E+00 -0.28620168918E+03  0.38142024568E+03  0.17160211302E+03 0.  0.
        -24    2    5    5    0    0 -0.12922282009E+03  0.10826442025E+02 -0.28680797914E+03  0.32475239167E+03  0.79934660293E+02 0.  0.
          5    1    3    3  501    0  0.11220750238E+03 -0.50654868006E+01 -0.19829764049E+02  0.11415556179E+03  0.47000000000E+01 0. -1.
        -11    1    4    4    0    0  0.35835159630E+02  0.39165827663E+02  0.43463358934E+02  0.68608922832E+02  0.00000000000E+00 0.  1.
         12    1    4    4    0    0  0.36680224383E+02 -0.34508974475E+02  0.70886779961E+02  0.86955412444E+02  0.00000000000E+00 0. -1.
         -5    1    5    5    0  503 -0.55500066299E+02 -0.10417808413E+02  0.60628996568E+00  0.56667854016E+02  0.47000000000E+01 0.  1.
         13    1    6    6    0    0 -0.18497625712E+02 -0.11729151697E+02 -0.70089086484E+01  0.22996955384E+02  0.00000000000E+00 0. -1.
        -14    1    6    6    0    0 -0.11072519438E+03  0.22555593722E+02 -0.27979907049E+03  0.30175543628E+03  0.00000000000E+00 0.  1.
</event>
<event>
12    1  0.9028446E-003  0.1726984E+03  0.7818608E-02  0.1175336E+00
         21   -1    0    0  503  502  0.00000000000E+00  0.00000000000E+00  0.13832088822E+03  0.13832088822E+03  0.00000000000E+00 0.  1.
         21   -1    0    0  501  503 -0.00000000000E+00 -0.00000000000E+00 -0.24740085797E+03  0.24740085797E+03  0.00000000000E+00 0.  1.
          6    2    1    2  501    0  0.23471858437E+01  0.63275131003E+00 -0.12524262410E+03  0.21333181535E+03  0.17268132178E+03 0.  0.
         24    2    3    3    0    0 -0.12894022603E+02 -0.14087154564E+01 -0.15755530386E+03  0.17723941594E+03  0.80136736225E+02 0.  0.
         -6    2    1    2    0  502 -0.23471858437E+01 -0.63275131003E+00  0.16162654349E+02  0.17238993084E+03  0.17161336546E+03 0.  0.
        -24    2    5    5    0    0  0.52652587817E+02  0.21230787698E+01 -0.30497147315E+02  0.10005877024E+03  0.79403268451E+02 0.  0.
          5    1    3    3  501    0  0.15241208447E+02  0.20414667664E+01  0.32312679759E+02  0.36092399403E+02  0.47000000000E+01 0. -1.
        -11    1    4    4    0    0  0.11931902320E+02 -0.26750921844E+02 -0.12726144375E+03  0.13058888612E+03  0.00000000000E+00 0.  1.
         12    1    4    4    0    0 -0.24825924924E+02  0.25342206388E+02 -0.30293860110E+02  0.46650529828E+02  0.00000000000E+00 0. -1.
         -5    1    5    5    0  502 -0.54999773661E+02 -0.27558300798E+01  0.46659801664E+02  0.72331160598E+02  0.47000000000E+01 0.  1.
         11    1    6    6    0    0 -0.15572528581E+02 -0.17605897959E+02 -0.13218711532E+02  0.26966750340E+02  0.00000000000E+00 0. -1.
        -12    1    6    6    0    0  0.68225116398E+02  0.19728976729E+02 -0.17278435783E+02  0.73092019902E+02  0.00000000000E+00 0.  1.
</event>
<event>
12    1  0.9028446E-003  0.2936282E+03  0.7818608E-02  0.1088499E+00
         21   -1    0    0  501  502  0.00000000000E+00  0.00000000000E+00  0.15867597453E+03  0.15867597453E+03  0.00000000000E+00 0. -1.
         21   -1    0    0  502  503 -0.00000000000E+00 -0.00000000000E+00 -0.55084749200E+03  0.55084749200E+03  0.00000000000E+00 0. -1.
          6    2    1    2  501    0  0.10906447925E+03 -0.21153046202E+03 -0.15362877073E+03  0.33138997590E+03  0.17198058010E+03 0.  0.
         24    2    3    3    0    0  0.20356657555E+02 -0.15945870260E+03 -0.13718033241E+03  0.22711540142E+03  0.83195496400E+02 0.  0.
         -6    2    1    2    0  503 -0.10906447925E+03  0.21153046202E+03 -0.23854274675E+03  0.37813349063E+03  0.17158699750E+03 0.  0.
        -24    2    5    5    0    0  0.12940022411E+02  0.97014850577E+02 -0.95102509976E+02  0.15768822482E+03  0.79004831697E+02 0.  0.
          5    1    3    3  501    0  0.88707821699E+02 -0.52071759421E+02 -0.16448438323E+02  0.10427457448E+03  0.47000000000E+01 0. -1.
        -11    1    4    4    0    0 -0.14811070188E+02 -0.26447717165E+02  0.32922467078E+01  0.30490792573E+02  0.00000000000E+00 0.  1.
         12    1    4    4    0    0  0.35167727743E+02 -0.13301098544E+03 -0.14047257912E+03  0.19662460885E+03  0.00000000000E+00 0. -1.
         -5    1    5    5    0  503 -0.12200450167E+03  0.11451561145E+03 -0.14344023677E+03  0.22044526581E+03  0.47000000000E+01 0.  1.
         13    1    6    6    0    0  0.80792308446E+01  0.47073857772E+02  0.26226189963E+01  0.47834090218E+02  0.00000000000E+00 0. -1.
        -14    1    6    6    0    0  0.48607915669E+01  0.49940992804E+02 -0.97725128972E+02  0.10985413460E+03  0.00000000000E+00 0.  1.
</event>
<event>
12    1  0.9028446E-003  0.1802499E+03  0.7818608E-02  0.1167829E+00
         21   -1    0    0  501  502  0.00000000000E+00  0.00000000000E+00  0.57755668049E+02  0.57755668049E+02  0.00000000000E+00 0.  1.
         21   -1    0    0  502  503 -0.00000000000E+00 -0.00000000000E+00 -0.19044537786E+04  0.19044537786E+04  0.00000000000E+00 0.  1.
          6    2    1    2  501    0 -0.57927209820E+02 -0.26521399285E+01 -0.99573773992E+02  0.20592464565E+03  0.17066759427E+03 0.  0.
         24    2    3    3    0    0  0.14087445784E+02 -0.16737548776E+02 -0.51446832389E+01  0.86244018375E+02  0.83264405793E+02 0.  0.
         -6    2    1    2    0  503  0.57927209820E+02  0.26521399285E+01 -0.17471243365E+04  0.17562848010E+04  0.16950002755E+03 0.  0.
        -24    2    5    5    0    0  0.27261734637E+01 -0.10845466153E+02 -0.39647299087E+03  0.40443033864E+03  0.79044355690E+02 0.  0.
          5    1    3    3  501    0 -0.72014655604E+02  0.14085408848E+02 -0.94429090753E+02  0.11968062727E+03  0.47000000000E+01 0. -1.
        -13    1    4    4    0    0 -0.27990663117E+02 -0.30426201935E+02  0.21470108272E+01  0.41398558446E+02  0.00000000000E+00 0.  1.
         14    1    4    4    0    0  0.42078108901E+02  0.13688653158E+02 -0.72916940661E+01  0.44845459930E+02  0.00000000000E+00 0. -1.
         -5    1    5    5    0  503  0.55201036357E+02  0.13497606081E+02 -0.13506513457E+04  0.13518544623E+04  0.47000000000E+01 0.  1.
         11    1    6    6    0    0  0.30040290661E+02  0.19308384752E+02 -0.24498304642E+03  0.24757206187E+03  0.00000000000E+00 0. -1.
        -12    1    6    6    0    0 -0.27314117197E+02 -0.30153850905E+02 -0.15148994445E+03  0.15685827678E+03  0.00000000000E+00 0.  1.
</event>
<event>
12    1  0.9028446E-003  0.2748983E+03  0.7818608E-02  0.1098706E+00
         21   -1    0    0  503  502  0.00000000000E+00  0.00000000000E+00  0.36699973846E+03  0.36699973846E+03  0.00000000000E+00 0.  1.
         21   -1    0    0  501  503 -0.00000000000E+00 -0.00000000000E+00 -0.23868324138E+03  0.23868324138E+03  0.00000000000E+00 0. -1.
          6    2    1    2  501    0  0.20903342545E+03 -0.38601290623E+02 -0.49710336991E+02  0.27935675305E+03  0.17431019843E+03 0.  0.
         24    2    3    3    0    0  0.22704819209E+02  0.95473674311E+00 -0.18577364399E+02  0.86291010911E+02  0.81145546757E+02 0.  0.
         -6    2    1    2    0  502 -0.20903342545E+03  0.38601290623E+02  0.17802683406E+03  0.32632622679E+03  0.17207620420E+03 0.  0.
        -24    2    5    5    0    0 -0.19502383069E+03  0.47254470241E+02  0.85370269816E+02  0.23210056595E+03  0.79468926338E+02 0.  0.
          5    1    3    3  501    0  0.18632860624E+03 -0.39556027366E+02 -0.31132972592E+02  0.19306574214E+03  0.47000000000E+01 0. -1.
        -11    1    4    4    0    0 -0.40543781498E+01 -0.37197380863E+02 -0.11574184733E+02  0.39166884961E+02  0.00000000000E+00 0.  1.
         12    1    4    4    0    0  0.26759197358E+02  0.38152117606E+02 -0.70031796656E+01  0.47124125950E+02  0.00000000000E+00 0. -1.
         -5    1    5    5    0  502 -0.14009594765E+02 -0.86531796179E+01  0.92656564246E+02  0.94225660841E+02  0.47000000000E+01 0.  1.
         11    1    6    6    0    0 -0.45053856959E+02 -0.11446459145E+02 -0.61072869108E+01  0.46884650018E+02  0.00000000000E+00 0. -1.
        -12    1    6    6    0    0 -0.14996997373E+03  0.58700929386E+02  0.91477556727E+02  0.18521591593E+03  0.00000000000E+00 0.  1.
</event>
<event>
12    1  0.9028446E-003  0.1741494E+03  0.7818608E-02  0.1173688E+00
         21   -1    0    0  503  502  0.00000000000E+00  0.00000000000E+00  0.64026682651E+02  0.64026682651E+02  0.00000000000E+00 0. -1.
         21   -1    0    0  501  503 -0.00000000000E+00 -0.00000000000E+00 -0.52025944365E+03  0.52025944365E+03  0.00000000000E+00 0. -1.
          6    2    1    2  501    0 -0.25583444017E+02  0.21844239811E+01 -0.31629811561E+03  0.36088128277E+03  0.17184736831E+03 0.  0.
         24    2    3    3    0    0  0.11994541573E+02  0.45288585648E+02 -0.27391169202E+03  0.28954564890E+03  0.81327380108E+02 0.  0.
         -6    2    1    2    0  502  0.25583444017E+02 -0.21844239811E+01 -0.13993464538E+03  0.22340484353E+03  0.17224614602E+03 0.  0.
        -24    2    5    5    0    0 -0.28617709078E+02 -0.38442027396E+02 -0.36201903882E+02  0.10078775475E+03  0.80937203555E+02 0.  0.
          5    1    3    3  501    0 -0.37577985590E+02 -0.43104161667E+02 -0.42386423592E+02  0.71335633865E+02  0.47000000000E+01 0. -1.
        -13    1    4    4    0    0  0.34832642518E+02  0.34829681063E+02 -0.25019961904E+03  0.25500248829E+03  0.00000000000E+00 0.  1.
         14    1    4    4    0    0 -0.22838100944E+02  0.10458904585E+02 -0.23712072981E+02  0.34543160610E+02  0.00000000000E+00 0. -1.
         -5    1    5    5    0  502  0.54201153094E+02  0.36257603415E+02 -0.10373274150E+03  0.12261708878E+03  0.47000000000E+01 0.  1.
         13    1    6    6    0    0 -0.33918890920E+02  0.38352797202E+01 -0.45790633946E+02  0.57113769697E+02  0.00000000000E+00 0. -1.
        -14    1    6    6    0    0  0.53011818427E+01 -0.42277307117E+02  0.95887300649E+01  0.43673985051E+02  0.00000000000E+00 0.  1.
</event>
<event>
12    1  0.9028446E-003  0.1868978E+03  0.7818608E-02  0.1161594E+00
         21   -1    0    0  503  502  0.00000000000E+00  0.00000000000E+00  0.12957919785E+03  0.12957919785E+03  0.00000000000E+00 0.  1.
         21   -1    0    0  501  503 -0.00000000000E+00 -0.00000000000E+00 -0.31941496274E+03  0.31941496274E+03  0.00000000000E+00 0.  1.
          6    2    1    2  501    0 -0.11512782065E+02 -0.70434405106E+02 -0.18498814300E+03  0.26203352857E+03  0.17131085041E+03 0.  0.
         24    2    3    3    0    0 -0.20885153168E+02  0.18907177808E+02 -0.13393091609E+03  0.15859905560E+03  0.80140496370E+02 0.  0.
         -6    2    1    2    0  502  0.11512782065E+02  0.70434405106E+02 -0.48476218972E+01  0.18696063202E+03  0.17273456202E+03 0.  0.
        -24    2    5    5    0    0  0.23623942180E+02  0.11358887131E+03 -0.60573285575E+01  0.14187691498E+03  0.81436143365E+02 0.  0.
          5    1    3    3  501    0  0.93723711022E+01 -0.89341582913E+02 -0.51057226911E+02  0.10343447296E+03  0.47000000000E+01 0. -1.
        -13    1    4    4    0    0  0.65723886819E+01 -0.37457037888E+00 -0.12319644101E+03  0.12337219976E+03  0.00000000000E+00 0.  1.
         14    1    4    4    0    0 -0.27457541849E+02  0.19281748186E+02 -0.10734475081E+02  0.35226855846E+02  0.00000000000E+00 0. -1.
         -5    1    5    5    0  502 -0.12111160114E+02 -0.43154466199E+02  0.12097066604E+01  0.45083717044E+02  0.47000000000E+01 0.  1.
         13    1    6    6    0    0  0.17080341197E+02  0.26344165822E+01 -0.23706339334E+02  0.29337156146E+02  0.00000000000E+00 0. -1.
        -14    1    6    6    0    0  0.65436009825E+01  0.11095445472E+03  0.17649010776E+02  0.11253975883E+03  0.00000000000E+00 0.  1.
</event>
<event>
12    1  0.9028446E-003  0.2089956E+03  0.7818608E-02  0.1143188E+00
         21   -1    0    0  501  502  0.00000000000E+00  0.00000000000E+00  0.53669061901E+03  0.53669061901E+03  0.00000000000E+00 0.  1.
         21   -1    0    0  502  503 -0.00000000000E+00 -0.00000000000E+00 -0.89883619530E+02  0.89883619530E+02  0.00000000000E+00 0.  1.
          6    2    1    2  501    0 -0.34418123279E+01  0.11903028694E+03  0.32637257513E+03  0.38536147342E+03  0.16674637064E+03 0.  0.
         24    2    3    3    0    0  0.41127649476E+01  0.14820716353E+03  0.30513733244E+03  0.34819445448E+03  0.78411149218E+02 0.  0.
         -6    2    1    2    0  503  0.34418123279E+01 -0.11903028694E+03  0.12043442435E+03  0.24121276512E+03  0.17175299766E+03 0.  0.
        -24    2    5    5    0    0 -0.21249572669E+02 -0.96627385357E+02  0.15011735529E+03  0.19632712285E+03  0.78871559298E+02 0.  0.
          5    1    3    3  501    0 -0.75545772755E+01 -0.29176876589E+02  0.21235242681E+02  0.37167018942E+02  0.47000000000E+01 0. -1.
        -13    1    4    4    0    0  0.22713211416E+02  0.23865605066E+02  0.25727400174E+02  0.41801389902E+02  0.00000000000E+00 0.  1.
         14    1    4    4    0    0 -0.18600446469E+02  0.12434155847E+03  0.27940993227E+03  0.30639306458E+03  0.00000000000E+00 0. -1.
         -5    1    5    5    0  503  0.24691384997E+02 -0.22402901587E+02 -0.29682930941E+02  0.44885642268E+02  0.47000000000E+01 0.  1.
         13    1    6    6    0    0 -0.24805333108E+02 -0.55846890515E+01  0.64953925237E+01  0.26242778558E+02  0.00000000000E+00 0. -1.
        -14    1    6    6    0    0  0.35557604390E+01 -0.91042696306E+02  0.14362196277E+03  0.17008434429E+03  0.00000000000E+00 0.  1.
</event>
<event>
12    1  0.9028446E-003  0.1952368E+03  0.7818608E-02  0.1154162E+00
         21   -1    0    0  501  502  0.00000000000E+00  0.00000000000E+00  0.89121820777E+02  0.89121820777E+02  0.00000000000E+00 0.  1.
         21   -1    0    0  502  503 -0.00000000000E+00 -0.00000000000E+00 -0.10512325113E+04  0.10512325113E+04  0.00000000000E+00 0. -1.
          6    2    1    2  501    0  0.41634369888E+02  0.80072758064E+02 -0.39950298571E+02  0.19775304121E+03  0.17136269026E+03 0.  0.
         24    2    3    3    0    0  0.18994870347E+01 -0.23992685021E+02 -0.13419855771E+02  0.83147492680E+02  0.78448429076E+02 0.  0.
         -6    2    1    2    0  503 -0.41634369888E+02 -0.80072758064E+02 -0.92216039199E+03  0.94260129091E+03  0.17312520820E+03 0.  0.
        -24    2    5    5    0    0  0.23480486655E+02 -0.94735245650E+02 -0.51868290917E+03  0.53361339105E+03  0.78645984112E+02 0.  0.
          5    1    3    3  501    0  0.39734882854E+02  0.10406544308E+03 -0.26530442799E+02  0.11460554853E+03  0.47000000000E+01 0. -1.
        -13    1    4    4    0    0  0.26624904762E+02  0.18594731828E+02 -0.16577933834E+01  0.32517654963E+02  0.00000000000E+00 0.  1.
         14    1    4    4    0    0 -0.24725417728E+02 -0.42587416849E+02 -0.11762062388E+02  0.50629837717E+02  0.00000000000E+00 0. -1.
         -5    1    5    5    0  503 -0.65114856543E+02  0.14662487587E+02 -0.40347748282E+03  0.40898789986E+03  0.47000000000E+01 0.  1.
         13    1    6    6    0    0 -0.17353465181E+01 -0.42595416477E+02 -0.39208981585E+03  0.39440056368E+03  0.00000000000E+00 0. -1.
        -14    1    6    6    0    0  0.25215833173E+02 -0.52139829174E+02 -0.12659309332E+03  0.13921282737E+03  0.00000000000E+00 0.  1.
</event>
<event>
12    1  0.9028446E-003  0.2058501E+03  0.7818608E-02  0.1147296E+00
         21   -1    0    0  503  502  0.00000000000E+00  0.00000000000E+00  0.78562678798E+02  0.78562678798E+02  0.00000000000E+00 0. -1.
         21   -1    0    0  501  503 -0.00000000000E+00 -0.00000000000E+00 -0.53849244411E+03  0.53849244411E+03  0.00000000000E+00 0. -1.
          6    2    1    2  501    0  0.54582139546E+02  0.72517829127E+02 -0.29497088358E+03  0.35326412907E+03  0.17190019555E+03 0.  0.
         24    2    3    3    0    0  0.95563011079E+02  0.44894000933E+02 -0.14987856470E+03  0.19991361974E+03  0.79712676487E+02 0.  0.
         -6    2    1    2    0  502 -0.54582139546E+02 -0.72517829127E+02 -0.16495888173E+03  0.26379099384E+03  0.18475987191E+03 0.  0.
        -24    2    5    5    0    0 -0.70080285300E+02  0.89988052755E+01 -0.14246956385E+03  0.17769213424E+03  0.79276056039E+02 0.  0.
          5    1    3    3  501    0 -0.40980871533E+02  0.27623828194E+02 -0.14509231888E+03  0.15335050933E+03  0.47000000000E+01 0. -1.
        -13    1    4    4    0    0  0.40722861596E+02  0.16545051905E+02 -0.12646928846E+03  0.13389014573E+03  0.00000000000E+00 0.  1.
         14    1    4    4    0    0  0.54840149482E+02  0.28348949028E+02 -0.23409276244E+02  0.66023474011E+02  0.00000000000E+00 0. -1.
         -5    1    5    5    0  502  0.15498145754E+02 -0.81516634402E+02 -0.22489317880E+02  0.86098859602E+02  0.47000000000E+01 0.  1.
         13    1    6    6    0    0 -0.26764973608E+02 -0.35253271444E+02 -0.58352273513E+02  0.73240322118E+02  0.00000000000E+00 0. -1.
        -14    1    6    6    0    0 -0.43315311691E+02  0.44252076719E+02 -0.84117290339E+02  0.10445181212E+03  0.00000000000E+00 0.  1.
</event>
<event>
12    1  0.9028446E-003  0.2315975E+03  0.7818608E-02  0.1125558E+00
         21   -1    0    0  503  502  0.00000000000E+00  0.00000000000E+00  0.41845601706E+03  0.41845601706E+03  0.00000000000E+00 0. -1.
         21   -1    0    0  501  503 -0.00000000000E+00 -0.00000000000E+00 -0.12809217079E+03  0.12809217079E+03  0.00000000000E+00 0.  1.
          6    2    1    2  501    0 -0.30378364462E+02  0.15036484890E+03  0.14082461866E+03  0.27086830092E+03  0.17322133358E+03 0.  0.
         24    2    3    3    0    0 -0.71068594537E+02  0.82930196943E+02  0.13643715471E+03  0.19184636125E+03  0.79131324055E+02 0.  0.
         -6    2    1    2    0  502  0.30378364462E+02 -0.15036484890E+03  0.14953922761E+03  0.27567988693E+03  0.17350788642E+03 0.  0.
        -24    2    5    5    0    0 -0.22992850832E+02 -0.65021228037E+02  0.13906212626E+03  0.17436907853E+03  0.79434685779E+02 0.  0.
          5    1    3    3  501    0  0.40690230076E+02  0.67434651961E+02  0.43874639541E+01  0.79021939666E+02  0.47000000000E+01 0. -1.
        -11    1    4    4    0    0 -0.50369846234E+02  0.32966385012E+02  0.19952385367E+02  0.63419252851E+02  0.00000000000E+00 0.  1.
         12    1    4    4    0    0 -0.20698748303E+02  0.49963811932E+02  0.11648476934E+03  0.12842710840E+03  0.00000000000E+00 0. -1.
         -5    1    5    5    0  502  0.53371215294E+02 -0.85343620867E+02  0.10477101351E+02  0.10131080839E+03  0.47000000000E+01 0.  1.
         11    1    6    6    0    0  0.17658092441E+02 -0.15187115286E+02  0.25036669788E+01  0.23424880954E+02  0.00000000000E+00 0. -1.
        -12    1    6    6    0    0 -0.40650943273E+02 -0.49834112751E+02  0.13655845928E+03  0.15094419758E+03  0.00000000000E+00 0.  1.
</event>
<event>
12    1  0.9028446E-003  0.2249790E+03  0.7818608E-02  0.1130354E+00
         21   -1    0    0  503  502  0.00000000000E+00  0.00000000000E+00  0.61377344662E+03  0.61377344662E+03  0.00000000000E+00 0.  1.
         21   -1    0    0  501  503 -0.00000000000E+00 -0.00000000000E+00 -0.82868246681E+02  0.82868246681E+02  0.00000000000E+00 0. -1.
          6    2    1    2  501    0 -0.10882167855E+03  0.93959005911E+02  0.29619785548E+03  0.37152156830E+03  0.17211813852E+03 0.  0.
         24    2    3    3    0    0 -0.21843376704E+02  0.10754641488E+03  0.17598047439E+03  0.22244389931E+03  0.80428828901E+02 0.  0.
         -6    2    1    2    0  502  0.10882167855E+03 -0.93959005911E+02  0.23470734446E+03  0.32512012500E+03  0.17304654178E+03 0.  0.
        -24    2    5    5    0    0 -0.12889312293E+02 -0.47698186223E+02  0.11289326685E+03  0.14675424196E+03  0.79691069084E+02 0.  0.
          5    1    3    3  501    0 -0.86978301843E+02 -0.13587408964E+02  0.12021738110E+03  0.14907766899E+03  0.47000000000E+01 0. -1.
        -11    1    4    4    0    0  0.30252135218E+02  0.43579288961E+02  0.78431063143E+02  0.94687791068E+02  0.00000000000E+00 0.  1.
         12    1    4    4    0    0 -0.52095511922E+02  0.63967125914E+02  0.97549411244E+02  0.12775610825E+03  0.00000000000E+00 0. -1.
         -5    1    5    5    0  502  0.12171099084E+03 -0.46260819688E+02  0.12181407760E+03  0.17836588304E+03  0.47000000000E+01 0.  1.
         13    1    6    6    0    0  0.11569121541E+02 -0.40590879437E+02  0.13748544788E+02  0.44390162768E+02  0.00000000000E+00 0. -1.
        -14    1    6    6    0    0 -0.24458433834E+02 -0.71073067852E+01  0.99144722065E+02  0.10236407919E+03  0.00000000000E+00 0.  1.
</event>
<event>
12    1  0.9028446E-003  0.1801071E+03  0.7818608E-02  0.1168483E+00
         21   -1    0    0  503  502  0.00000000000E+00  0.00000000000E+00  0.26451488514E+02  0.26451488514E+02  0.00000000000E+00 0.  1.
         21   -1    0    0  501  503 -0.00000000000E+00 -0.00000000000E+00 -0.12727012512E+04  0.12727012512E+04  0.00000000000E+00 0.  1.
          6    2    1    2  501    0  0.24251807816E+02  0.35561559270E+02 -0.46754072291E+03  0.49988661310E+03  0.17157949673E+03 0.  0.
         24    2    3    3    0    0  0.47294435626E+02  0.75280890609E+02 -0.29516005451E+03  0.32143277364E+03  0.91080151864E+02 0.  0.
         -6    2    1    2    0  502 -0.24251807816E+02 -0.35561559270E+02 -0.77870903981E+03  0.79926612665E+03  0.17488795797E+03 0.  0.
        -24    2    5    5    0    0  0.52095616187E+02 -0.23357946013E+02 -0.46912633787E+03  0.48014013793E+03  0.84826200599E+02 0.  0.
          5    1    3    3  501    0 -0.23042627810E+02 -0.39719331340E+02 -0.17238066840E+03  0.17845383946E+03  0.47000000000E+01 0. -1.
        -11    1    4    4    0    0 -0.16418188170E+02  0.56765339307E+02 -0.11212420426E+03  0.12674264409E+03  0.00000000000E+00 0.  1.
         12    1    4    4    0    0  0.63712623796E+02  0.18515551302E+02 -0.18303585024E+03  0.19469012955E+03  0.00000000000E+00 0. -1.
         -5    1    5    5    0  502 -0.76347424004E+02 -0.12203613257E+02 -0.30958270195E+03  0.31912598871E+03  0.47000000000E+01 0.  1.
         11    1    6    6    0    0  0.24352758890E+02 -0.44182451538E+02 -0.13330593010E+03  0.14253286249E+03  0.00000000000E+00 0. -1.
        -12    1    6    6    0    0  0.27742857297E+02  0.20824505525E+02 -0.33582040777E+03  0.33760727545E+03  0.00000000000E+00 0.  1.
</event>
<event>
12    1  0.9028446E-003  0.1815446E+03  0.7818608E-02  0.1167004E+00
         21   -1    0    0  503  502  0.00000000000E+00  0.00000000000E+00  0.30740849675E+03  0.30740849675E+03  0.00000000000E+00 0.  1.
         21   -1    0    0  501  503 -0.00000000000E+00 -0.00000000000E+00 -0.20072897743E+03  0.20072897743E+03  0.00000000000E+00 0.  1.
          6    2    1    2  501    0  0.21570397433E+02  0.44953587075E+02 -0.12184237407E+03  0.21628012614E+03  0.17159668355E+03 0.  0.
         24    2    3    3    0    0  0.45532394590E+02  0.84640089167E+02 -0.60024003603E+02  0.13886697039E+03  0.80274596258E+02 0.  0.
         -6    2    1    2    0  502 -0.21570397433E+02 -0.44953587075E+02  0.22852189340E+03  0.29185734804E+03  0.17456330889E+03 0.  0.
        -24    2    5    5    0    0 -0.58106123468E+02  0.21058563356E+02  0.16336845083E+03  0.19205993145E+03  0.79862268095E+02 0.  0.
          5    1    3    3  501    0 -0.23961997158E+02 -0.39686502092E+02 -0.61818370470E+02  0.77413155753E+02  0.47000000000E+01 0. -1.
        -11    1    4    4    0    0  0.43113973277E+02  0.16232745298E+02 -0.52744807890E+02  0.70030932244E+02  0.00000000000E+00 0.  1.
         12    1    4    4    0    0  0.24184213137E+01  0.68407343869E+02 -0.72791957133E+01  0.68836038142E+02  0.00000000000E+00 0. -1.
         -5    1    5    5    0  502  0.36535726035E+02 -0.66012150431E+02  0.65153442562E+02  0.99797416596E+02  0.47000000000E+01 0.  1.
         13    1    6    6    0    0  0.18411024883E+01 -0.23797753386E+02  0.23972004367E+02  0.33828681883E+02  0.00000000000E+00 0. -1.
        -14    1    6    6    0    0 -0.59947225956E+02  0.44856316742E+02  0.13939644647E+03  0.15823124957E+03  0.00000000000E+00 0.  1.
</event>
<event>
12    1  0.9028446E-003  0.2056578E+03  0.7818608E-02  0.1145288E+00
         21   -1    0    0  503  502  0.00000000000E+00  0.00000000000E+00  0.90745266622E+03  0.90745266622E+03  0.00000000000E+00 0.  1.
         21   -1    0    0  501  503 -0.00000000000E+00 -0.00000000000E+00 -0.46351299253E+02  0.46351299253E+02  0.00000000000E+00 0.  1.
          6    2    1    2  501    0 -0.80236886467E+02  0.76735214467E+02  0.43676135839E+03  0.48275833993E+03  0.17311522030E+03 0.  0.
         24    2    3    3    0    0  0.26049834073E+01  0.93606003940E+02  0.28494652100E+03  0.30892729036E+03  0.73977570850E+02 0.  0.
         -6    2    1    2    0  502  0.80236886467E+02 -0.76735214467E+02  0.42434000858E+03  0.47104562555E+03  0.17173609806E+03 0.  0.
        -24    2    5    5    0    0  0.95529075563E+02 -0.11046532896E+03  0.35585927349E+03  0.39305028755E+03  0.80773218536E+02 0.  0.
          5    1    3    3  501    0 -0.82841869874E+02 -0.16870789473E+02  0.15181483739E+03  0.17383104957E+03  0.47000000000E+01 0. -1.
        -11    1    4    4    0    0 -0.35289379942E+02  0.38604257563E+02  0.13498412586E+03  0.14476305907E+03  0.00000000000E+00 0.  1.
         12    1    4    4    0    0  0.37894363349E+02  0.55001746377E+02  0.14996239514E+03  0.16416423129E+03  0.00000000000E+00 0. -1.
         -5    1    5    5    0  502 -0.15292189097E+02  0.33730114493E+02  0.68480735090E+02  0.77995337999E+02  0.47000000000E+01 0.  1.
         11    1    6    6    0    0  0.16965233950E+02  0.48191645305E+01  0.10374914886E+02  0.20461729366E+02  0.00000000000E+00 0. -1.
        -12    1    6    6    0    0  0.78563841613E+02 -0.11528449349E+03  0.34548435861E+03  0.37258855818E+03  0.00000000000E+00 0.  1.
</event>
<event>
12    1  0.9028446E-003  0.1756782E+03  0.7818608E-02  0.1172484E+00
         21   -1    0    0  501  502  0.00000000000E+00  0.00000000000E+00  0.13195158206E+04  0.13195158206E+04  0.00000000000E+00 0.  1.
         21   -1    0    0  502  503 -0.00000000000E+00 -0.00000000000E+00 -0.37764435881E+02  0.37764435881E+02  0.00000000000E+00 0. -1.
          6    2    1    2  501    0 -0.41600210189E+01  0.29199234318E+02  0.10609506552E+04  0.10751175712E+04  0.17143977986E+03 0.  0.
         24    2    3    3    0    0 -0.93926206435E+00  0.77750176894E+02  0.89795384265E+03  0.90494819026E+03  0.81019450222E+02 0.  0.
         -6    2    1    2    0  503  0.41600210189E+01 -0.29199234318E+02  0.22080072948E+03  0.28216268522E+03  0.17318463480E+03 0.  0.
        -24    2    5    5    0    0  0.51669936007E+01 -0.27525249589E+02  0.26521901922E+02  0.87817196320E+02  0.78893038351E+02 0.  0.
          5    1    3    3  501    0 -0.32207589545E+01 -0.48550942576E+02  0.16299681255E+03  0.17016938096E+03  0.47000000000E+01 0. -1.
        -11    1    4    4    0    0  0.35926047654E+02  0.56196755040E+02  0.44277117396E+03  0.44776675699E+03  0.00000000000E+00 0.  1.
         12    1    4    4    0    0 -0.36865309718E+02  0.21553421854E+02  0.45518266869E+03  0.45718143327E+03  0.00000000000E+00 0. -1.
         -5    1    5    5    0  503 -0.10069725818E+01 -0.16739847289E+01  0.19427882755E+03  0.19434548890E+03  0.47000000000E+01 0.  1.
         11    1    6    6    0    0 -0.28472169123E+02 -0.33691110534E+02 -0.68436980727E+00  0.44116025496E+02  0.00000000000E+00 0. -1.
        -12    1    6    6    0    0  0.33639162724E+02  0.61658609447E+01  0.27206271730E+02  0.43701170824E+02  0.00000000000E+00 0.  1.
</event>
<event>
12    1  0.9028446E-003  0.3225476E+03  0.7818608E-02  0.1074524E+00
         21   -1    0    0  501  502  0.00000000000E+00  0.00000000000E+00  0.29078068626E+03  0.29078068626E+03  0.00000000000E+00 0. -1.
         21   -1    0    0  502  503 -0.00000000000E+00 -0.00000000000E+00 -0.41907667648E+03  0.41907667648E+03  0.00000000000E+00 0.  1.
          6    2    1    2  501    0 -0.27197321047E+03 -0.23622031206E+02  0.71997988676E+02  0.33048552703E+03  0.17178342653E+03 0.  0.
         24    2    3    3    0    0 -0.11195619276E+03 -0.43868211127E+02 -0.18222959288E+02  0.14561459040E+03  0.80080732062E+02 0.  0.
         -6    2    1    2    0  503  0.27197321047E+03  0.23622031206E+02 -0.20029397890E+03  0.37937183571E+03  0.17110781447E+03 0.  0.
        -24    2    5    5    0    0  0.67108333750E+02  0.23238464354E+02 -0.27873841993E+02  0.11156489321E+03  0.81401594861E+02 0.  0.
          5    1    3    3  501    0 -0.16001701771E+03  0.20246179921E+02  0.90220947963E+02  0.18487093663E+03  0.47000000000E+01 0. -1.
        -11    1    4    4    0    0  0.93118184232E+01  0.23295255925E+01 -0.12444565066E+02  0.15716356178E+02  0.00000000000E+00 0.  1.
         12    1    4    4    0    0 -0.12126801119E+03 -0.46197736719E+02 -0.57783942219E+01  0.12989823422E+03  0.00000000000E+00 0. -1.
         -5    1    5    5    0  503  0.20486487672E+03  0.38356685129E+00 -0.17242013691E+03  0.26780694250E+03  0.47000000000E+01 0.  1.
         11    1    6    6    0    0  0.24455267452E+02  0.58641428293E+01 -0.53315483532E+02  0.58949037834E+02  0.00000000000E+00 0. -1.
        -12    1    6    6    0    0  0.42653066298E+02  0.17374321525E+02  0.25441641539E+02  0.52615855379E+02  0.00000000000E+00 0.  1.
</event>
<event>
12    1  0.9028446E-003  0.2240059E+03  0.7818608E-02  0.1132173E+00
         21   -1    0    0  503  502  0.00000000000E+00  0.00000000000E+00  0.18561304854E+03  0.18561304854E+03  0.00000000000E+00 0.  1.
         21   -1    0    0  501  503 -0.00000000000E+00 -0.00000000000E+00 -0.36030251536E+03  0.36030251536E+03  0.00000000000E+00 0.  1.
          6    2    1    2  501    0  0.55574638996E+02  0.11405627484E+03 -0.23065257153E+03  0.32152643714E+03  0.18461112289E+03 0.  0.
         24    2    3    3    0    0  0.36396117853E+02  0.12608371866E+03 -0.24856854664E+03  0.29227669796E+03  0.80109701563E+02 0.  0.
         -6    2    1    2    0  502 -0.55574638996E+02 -0.11405627484E+03  0.55963104717E+02  0.22438912676E+03  0.17641212201E+03 0.  0.
        -24    2    5    5    0    0 -0.90941819945E+02 -0.79735445022E+02 -0.68599342261E+01  0.14440424651E+03  0.78596258841E+02 0.  0.
          5    1    3    3  501    0  0.19178521143E+02 -0.12027443819E+02  0.17915975110E+02  0.29249739181E+02  0.47000000000E+01 0. -1.
        -11    1    4    4    0    0  0.34549763883E+02  0.96979415915E+02 -0.10995261491E+03  0.15062626206E+03  0.00000000000E+00 0.  1.
         12    1    4    4    0    0  0.18463539692E+01  0.29104302740E+02 -0.13861593173E+03  0.14165043590E+03  0.00000000000E+00 0. -1.
         -5    1    5    5    0  502  0.35367180949E+02 -0.34320829814E+02  0.62823038944E+02  0.79984880256E+02  0.47000000000E+01 0.  1.
         13    1    6    6    0    0 -0.91788736838E+02 -0.68847441375E+02  0.19028509490E+02  0.11630660586E+03  0.00000000000E+00 0. -1.
        -14    1    6    6    0    0  0.84691689250E+00 -0.10888003647E+02 -0.25888443716E+02  0.28097640643E+02  0.00000000000E+00 0.  1.
</event>
<event>
12    1  0.9028446E-003  0.2699509E+03  0.7818608E-02  0.1101534E+00
         21   -1    0    0  503  502  0.00000000000E+00  0.00000000000E+00  0.18032746400E+03  0.18032746400E+03  0.00000000000E+00 0. -1.
         21   -1    0    0  501  503 -0.00000000000E+00 -0.00000000000E+00 -0.40901281902E+03  0.40901281902E+03  0.00000000000E+00 0.  1.
          6    2    1    2  501    0  0.20153288210E+03  0.53312214443E+02 -0.15325416708E+03  0.30904874913E+03  0.16901655196E+03 0.  0.
         24    2    3    3    0    0  0.21911717088E+02  0.15311656300E+02 -0.54987465856E+02  0.10075511047E+03  0.80083710699E+02 0.  0.
         -6    2    1    2    0  502 -0.20153288210E+03 -0.53312214443E+02 -0.75431187942E+02  0.28029153389E+03  0.17151030605E+03 0.  0.
        -24    2    5    5    0    0 -0.30042262711E+02 -0.45502017238E+02 -0.50420625908E+02  0.10674715936E+03  0.76679497868E+02 0.  0.
          5    1    3    3  501    0  0.17962116501E+03  0.38000558142E+02 -0.98266701221E+02  0.20829363866E+03  0.47000000000E+01 0. -1.
        -13    1    4    4    0    0 -0.28037761047E+02  0.14712749656E+02 -0.34320490428E+02  0.46695579129E+02  0.00000000000E+00 0.  1.
         14    1    4    4    0    0  0.49949478134E+02  0.59890664458E+00 -0.20666975428E+02  0.54059531337E+02  0.00000000000E+00 0. -1.
         -5    1    5    5    0  502 -0.17149061939E+03 -0.78101972045E+01 -0.25010562034E+02  0.17354437453E+03  0.47000000000E+01 0.  1.
         11    1    6    6    0    0 -0.63877777610E+01 -0.26285630560E+02  0.17558109826E+02  0.32249423240E+02  0.00000000000E+00 0. -1.
        -12    1    6    6    0    0 -0.23654484950E+02 -0.19216386678E+02 -0.67978735734E+02  0.74497736121E+02  0.00000000000E+00 0.  1.
</event>
<event>
12    1  0.9028446E-003  0.2187178E+03  0.7818608E-02  0.1135259E+00
         21   -1    0    0  503  502  0.00000000000E+00  0.00000000000E+00  0.96831847558E+02  0.96831847558E+02  0.00000000000E+00 0. -1.
         21   -1    0    0  501  503 -0.00000000000E+00 -0.00000000000E+00 -0.50673254073E+03  0.50673254073E+03  0.00000000000E+00 0.  1.
          6    2    1    2  501    0 -0.13353045814E+03  0.12066788675E+02 -0.26230348287E+03  0.34152686143E+03  0.17280477226E+03 0.  0.
         24    2    3    3    0    0 -0.40962120391E+02 -0.42824397704E+02 -0.18775125817E+03  0.21052280156E+03  0.74548579367E+02 0.  0.
         -6    2    1    2    0  502  0.13353045814E+03 -0.12066788675E+02 -0.14759721030E+03  0.26203752686E+03  0.17000805378E+03 0.  0.
        -24    2    5    5    0    0  0.10637822398E+03  0.51410986113E+02 -0.12580554899E+03  0.18948659154E+03  0.78222223105E+02 0.  0.
          5    1    3    3  501    0 -0.92568337750E+02  0.54891186379E+02 -0.74552224695E+02  0.13100405987E+03  0.47000000000E+01 0. -1.
        -13    1    4    4    0    0 -0.62968810324E+02 -0.32434604443E+02 -0.13626719862E+03  0.15357676927E+03  0.00000000000E+00 0.  1.
         14    1    4    4    0    0  0.22006689933E+02 -0.10389793261E+02 -0.51484059550E+02  0.56946032290E+02  0.00000000000E+00 0. -1.
         -5    1    5    5    0  502  0.27152234164E+02 -0.63477774788E+02 -0.21791661310E+02  0.72550935313E+02  0.47000000000E+01 0.  1.
         11    1    6    6    0    0 -0.96662363213E+01  0.14491682564E+02 -0.29384945481E+02  0.34160210905E+02  0.00000000000E+00 0. -1.
        -12    1    6    6    0    0  0.11604446030E+03  0.36919303549E+02 -0.96420603514E+02  0.15532638064E+03  0.00000000000E+00 0.  1.
</event>
<event>
12    1  0.9028446E-003  0.2339051E+03  0.7818608E-02  0.1124186E+00
         21   -1    0    0  503  502  0.00000000000E+00  0.00000000000E+00  0.70766568386E+02  0.70766568386E+02  0.00000000000E+00 0. -1.
         21   -1    0    0  501  503 -0.00000000000E+00 -0.00000000000E+00 -0.83729066772E+03  0.83729066772E+03  0.00000000000E+00 0. -1.
          6    2    1    2  501    0  0.95643535306E+02  0.12374029280E+03 -0.51496088223E+03  0.56559375223E+03  0.17393170048E+03 0.  0.
         24    2    3    3    0    0  0.94330047155E+02  0.71907098896E+02 -0.21053259403E+03  0.25674576714E+03  0.86750372487E+02 0.  0.
         -6    2    1    2    0  502 -0.95643535306E+02 -0.12374029280E+03 -0.25156321711E+03  0.34246348388E+03  0.17186576064E+03 0.  0.
        -24    2    5    5    0    0 -0.71196445415E+02 -0.14798004166E+01 -0.10461516726E+03  0.14969131898E+03  0.79950197688E+02 0.  0.
          5    1    3    3  501    0  0.13134881502E+01  0.51833193903E+02 -0.30442828819E+03  0.30884798509E+03  0.47000000000E+01 0. -1.
        -11    1    4    4    0    0  0.11426475610E+02  0.48054265624E+02 -0.33116747124E+02  0.59468443141E+02  0.00000000000E+00 0.  1.
         12    1    4    4    0    0  0.82903571545E+02  0.23852833271E+02 -0.17741584691E+03  0.19727732400E+03  0.00000000000E+00 0. -1.
         -5    1    5    5    0  502 -0.24447089890E+02 -0.12226049238E+03 -0.14694804985E+03  0.19277216489E+03  0.47000000000E+01 0.  1.
         11    1    6    6    0    0 -0.21945464351E+02 -0.22411689699E+02  0.90156799104E+00  0.31379930937E+02  0.00000000000E+00 0. -1.
        -12    1    6    6    0    0 -0.49250981064E+02  0.20931889282E+02 -0.10551673525E+03  0.11831138805E+03  0.00000000000E+00 0.  1.
</event>
<event>
12    1  0.9028446E-003  0.3994870E+03  0.7818608E-02  0.1043977E+00
         21   -1    0    0  503  502  0.00000000000E+00  0.00000000000E+00  0.21223130646E+03  0.21223130646E+03  0.00000000000E+00 0.  1.
         21   -1    0    0  501  503 -0.00000000000E+00 -0.00000000000E+00 -0.79449326305E+03  0.79449326305E+03  0.00000000000E+00 0. -1.
          6    2    1    2  501    0  0.35925349417E+03  0.30281810885E+02 -0.40825475257E+03  0.57119330611E+03  0.17207495114E+03 0.  0.
         24    2    3    3    0    0  0.34206992340E+03  0.92971359859E+01 -0.41229511476E+03  0.54337162011E+03  0.90372488396E+02 0.  0.
         -6    2    1    2    0  502 -0.35925349417E+03 -0.30281810885E+02 -0.17400720402E+03  0.43553126340E+03  0.17154857390E+03 0.  0.
        -24    2    5    5    0    0 -0.88091539904E+02  0.16372459696E+02 -0.84601068843E+02  0.14618549548E+03  0.78642745385E+02 0.  0.
          5    1    3    3  501    0  0.17183570772E+02  0.20984674899E+02  0.40403621947E+01  0.27821685997E+02  0.47000000000E+01 0. -1.
        -11    1    4    4    0    0  0.26641508774E+02  0.26027209378E+02 -0.55573357593E+02  0.66899803377E+02  0.00000000000E+00 0.  1.
         12    1    4    4    0    0  0.31542841462E+03 -0.16730073392E+02 -0.35672175717E+03  0.47647181674E+03  0.00000000000E+00 0. -1.
         -5    1    5    5    0  502 -0.27116195426E+03 -0.46654270581E+02 -0.89406135177E+02  0.28934576792E+03  0.47000000000E+01 0.  1.
         11    1    6    6    0    0 -0.28796256822E+02 -0.31662918830E+02 -0.33403617430E+02  0.54291495588E+02  0.00000000000E+00 0. -1.
        -12    1    6    6    0    0 -0.59295283082E+02  0.48035378526E+02 -0.51197451413E+02  0.91893999897E+02  0.00000000000E+00 0.  1.
</event>
<event>
12    1  0.9028446E-003  0.2256124E+03  0.7818608E-02  0.1130480E+00
         21   -1    0    0  501  502  0.00000000000E+00  0.00000000000E+00  0.90545670398E+03  0.90545670398E+03  0.00000000000E+00 0. -1.
         21   -1    0    0  502  503 -0.00000000000E+00 -0.00000000000E+00 -0.59022116957E+02  0.59022116957E+02  0.00000000000E+00 0.  1.
          6    2    1    2  501    0  0.66089090983E+02 -0.12973601372E+03  0.54868025627E+03  0.59325455981E+03  0.17234195054E+03 0.  0.
         24    2    3    3    0    0  0.74794874910E+02 -0.11608878344E+02  0.28601396654E+03  0.30507843216E+03  0.74429976135E+02 0.  0.
         -6    2    1    2    0  503 -0.66089090983E+02  0.12973601372E+03  0.29775433076E+03  0.37122426113E+03  0.16718435740E+03 0.  0.
        -24    2    5    5    0    0 -0.76262203166E+02  0.94988323133E+02  0.13446259666E+03  0.20390069842E+03  0.93040849908E+02 0.  0.
          5    1    3    3  501    0 -0.87057839270E+01 -0.11812713538E+03  0.26266628973E+03  0.28817612765E+03  0.47000000000E+01 0. -1.
        -11    1    4    4    0    0 -0.12962665990E+02 -0.75738523748E+01  0.20507978046E+02  0.25415961774E+02  0.00000000000E+00 0.  1.
         12    1    4    4    0    0  0.87757540900E+02 -0.40350259693E+01  0.26550598849E+03  0.27966247039E+03  0.00000000000E+00 0. -1.
         -5    1    5    5    0  503  0.10173112184E+02  0.34747690591E+02  0.16329173410E+03  0.16732356271E+03  0.47000000000E+01 0.  1.
         13    1    6    6    0    0 -0.15475870724E+02  0.23200924856E+02  0.99845352664E+02  0.10366715940E+03  0.00000000000E+00 0. -1.
        -14    1    6    6    0    0 -0.60786332442E+02  0.71787398277E+02  0.34617243999E+02  0.10023353902E+03  0.00000000000E+00 0.  1.
</event>
<event>
12    1  0.9028446E-003  0.1949197E+03  0.7818608E-02  0.1154606E+00
         21   -1    0    0  501  502  0.00000000000E+00  0.00000000000E+00  0.28000432490E+02  0.28000432490E+02  0.00000000000E+00 0. -1.
         21   -1    0    0  502  503 -0.00000000000E+00 -0.00000000000E+00 -0.13489569659E+04  0.13489569659E+04  0.00000000000E+00 0. -1.
          6    2    1    2  501    0 -0.66424596644E+02 -0.62321273598E+02 -0.71003971404E+03  0.73569842736E+03  0.16970448526E+03 0.  0.
         24    2    3    3    0    0 -0.48859143686E+02  0.29551362886E+02 -0.36162254492E+03  0.37491353270E+03  0.80800947017E+02 0.  0.
         -6    2    1    2    0  503  0.66424596644E+02  0.62321273598E+02 -0.61091681932E+03  0.64125897098E+03  0.17232974078E+03 0.  0.
        -24    2    5    5    0    0  0.37129446157E+02  0.57525228590E+02 -0.60036990880E+03  0.60940720162E+03  0.79027604698E+02 0.  0.
          5    1    3    3  501    0 -0.17565452957E+02 -0.91872636484E+02 -0.34841716912E+03  0.36078489466E+03  0.47000000000E+01 0. -1.
        -11    1    4    4    0    0  0.21125048397E+02  0.17390201049E+02 -0.83801412801E+02  0.88155337613E+02  0.00000000000E+00 0.  1.
         12    1    4    4    0    0 -0.69984192083E+02  0.12161161836E+02 -0.27782113212E+03  0.28675819509E+03  0.00000000000E+00 0. -1.
         -5    1    5    5    0  503  0.29295150486E+02  0.47960450084E+01 -0.10546910518E+02  0.31851769358E+02  0.47000000000E+01 0.  1.
         11    1    6    6    0    0  0.51617328031E+02  0.10356306859E+02 -0.37656239253E+03  0.38022471923E+03  0.00000000000E+00 0. -1.
        -12    1    6    6    0    0 -0.14487881874E+02  0.47168921731E+02 -0.22380751627E+03  0.22918248239E+03  0.00000000000E+00 0.  1.
</event>
<event>
12    1  0.9028446E-003  0.1970854E+03  0.7818608E-02  0.1152382E+00
         21   -1    0    0  503  502  0.00000000000E+00  0.00000000000E+00  0.64401385091E+02  0.64401385091E+02  0.00000000000E+00 0.  1.
         21   -1    0    0  501  503 -0.00000000000E+00 -0.00000000000E+00 -0.67475162472E+03  0.67475162472E+03  0.00000000000E+00 0.  1.
          6    2    1    2  501    0 -0.33467544663E+01  0.93672778826E+02 -0.18338389810E+03  0.26920679174E+03  0.17336912175E+03 0.  0.
         24    2    3    3    0    0  0.47342915054E+02  0.11215063639E+03 -0.11219370755E+03  0.17975844325E+03  0.70046791904E+02 0.  0.
         -6    2    1    2    0  502  0.33467544663E+01 -0.93672778826E+02 -0.42696634153E+03  0.46994621807E+03  0.17252072579E+03 0.  0.
        -24    2    5    5    0    0 -0.50900587028E+02 -0.16637571669E+02 -0.28542673161E+03  0.29984992659E+03  0.74658427581E+02 0.  0.
          5    1    3    3  501    0 -0.50689669520E+02 -0.18477857569E+02 -0.71190190550E+02  0.89448348486E+02  0.47000000000E+01 0. -1.
        -11    1    4    4    0    0  0.32770376403E+02  0.85559120363E+02 -0.11747561593E+03  0.14897912936E+03  0.00000000000E+00 0.  1.
         12    1    4    4    0    0  0.14572538651E+02  0.26591516031E+02  0.52819083754E+01  0.30779313892E+02  0.00000000000E+00 0. -1.
         -5    1    5    5    0  502  0.54247341494E+02 -0.77035207157E+02 -0.14153960992E+03  0.17009629148E+03  0.47000000000E+01 0.  1.
         11    1    6    6    0    0 -0.40734704002E+02 -0.41942705433E+02 -0.23861651073E+03  0.24567528537E+03  0.00000000000E+00 0. -1.
        -12    1    6    6    0    0 -0.10165883026E+02  0.25305133764E+02 -0.46810220875E+02  0.54174641216E+02  0.00000000000E+00 0.  1.
</event>
<event>
12    1  0.9028446E-003  0.2362784E+03  0.7818608E-02  0.1122330E+00
         21   -1    0    0  501  502  0.00000000000E+00  0.00000000000E+00  0.55015662459E+03  0.55015662459E+03  0.00000000000E+00 0. -1.
         21   -1    0    0  502  503 -0.00000000000E+00 -0.00000000000E+00 -0.15247122849E+03  0.15247122849E+03  0.00000000000E+00 0.  1.
          6    2    1    2  501    0  0.16147578636E+03  0.10390403184E+02  0.40223518263E+03  0.46649823847E+03  0.17217744999E+03 0.  0.
         24    2    3    3    0    0  0.16181001428E+02  0.48483390352E+00  0.86653328560E+02  0.11890265240E+03  0.79793367687E+02 0.  0.
         -6    2    1    2    0  503 -0.16147578636E+03 -0.10390403184E+02 -0.45497865317E+01  0.23612961461E+03  0.17191307188E+03 0.  0.
        -24    2    5    5    0    0 -0.11487749927E+03 -0.72670621510E+02  0.53852683565E+01  0.15757376652E+03  0.79514977905E+02 0.  0.
          5    1    3    3  501    0  0.14529478493E+03  0.99055692801E+01  0.31558185407E+03  0.34759558606E+03  0.47000000000E+01 0. -1.
        -11    1    4    4    0    0 -0.28227237083E+02 -0.14515395272E+02  0.20350410056E+02  0.37704280960E+02  0.00000000000E+00 0.  1.
         12    1    4    4    0    0  0.44408238511E+02  0.15000229176E+02  0.66302918504E+02  0.81198371444E+02  0.00000000000E+00 0. -1.
         -5    1    5    5    0  503 -0.46598287087E+02  0.62280218326E+02 -0.99350548882E+01  0.78555848094E+02  0.47000000000E+01 0.  1.
         13    1    6    6    0    0 -0.65919063033E+02 -0.81820565684E+02 -0.97402651278E+01  0.10552156464E+03  0.00000000000E+00 0. -1.
        -14    1    6    6    0    0 -0.48958436237E+02  0.91499441741E+01  0.15125533484E+02  0.52052201878E+02  0.00000000000E+00 0.  1.
</event>
<event>
12    1  0.9028446E-003  0.1824751E+03  0.7818608E-02  0.1165736E+00
         21   -1    0    0  503  502  0.00000000000E+00  0.00000000000E+00  0.21164190061E+02  0.21164190061E+02  0.00000000000E+00 0. -1.
         21   -1    0    0  501  503 -0.00000000000E+00 -0.00000000000E+00 -0.27308441865E+04  0.27308441865E+04  0.00000000000E+00 0. -1.
          6    2    1    2  501    0 -0.21534989248E+02 -0.55121275026E+02 -0.45195875976E+03  0.48692507693E+03  0.17125185927E+03 0.  0.
         24    2    3    3    0    0 -0.38704456016E+02 -0.60590497701E+02 -0.15466842581E+03  0.18905205760E+03  0.81542107003E+02 0.  0.
         -6    2    1    2    0  502  0.21534989248E+02  0.55121275026E+02 -0.22577212367E+04  0.22650832996E+04  0.17261245889E+03 0.  0.
        -24    2    5    5    0    0  0.44237024683E+02  0.82040186014E+02 -0.20893644051E+04  0.20930190008E+04  0.81224467031E+02 0.  0.
          5    1    3    3  501    0  0.17169466768E+02  0.54692226753E+01 -0.29729033395E+03  0.29787301933E+03  0.47000000000E+01 0. -1.
        -11    1    4    4    0    0  0.12165969582E+01 -0.36005945967E+02 -0.13227774266E+03  0.13709598629E+03  0.00000000000E+00 0.  1.
         12    1    4    4    0    0 -0.39921052975E+02 -0.24584551735E+02 -0.22390683149E+02  0.51956071315E+02  0.00000000000E+00 0. -1.
         -5    1    5    5    0  502 -0.22702035435E+02 -0.26918910988E+02 -0.16835683157E+03  0.17206429879E+03  0.47000000000E+01 0.  1.
         11    1    6    6    0    0  0.65853959482E+02  0.64873443755E+02 -0.17897382326E+04  0.17921239491E+04  0.00000000000E+00 0. -1.
        -12    1    6    6    0    0 -0.21616934799E+02  0.17166742260E+02 -0.29962617247E+03  0.30089505171E+03  0.00000000000E+00 0.  1.
</event>
<event>
12    1  0.9028446E-003  0.1936224E+03  0.7818608E-02  0.1156248E+00
         21   -1    0    0  503  502  0.00000000000E+00  0.00000000000E+00  0.42219989863E+02  0.42219989863E+02  0.00000000000E+00 0.  1.
         21   -1    0    0  501  503 -0.00000000000E+00 -0.00000000000E+00 -0.87623565676E+03  0.87623565676E+03  0.00000000000E+00 0.  1.
          6    2    1    2  501    0  0.53578966008E+02  0.59185852725E+02 -0.36552955781E+03  0.41153468058E+03  0.17139213786E+03 0.  0.
         24    2    3    3    0    0 -0.10166048154E+02 -0.13097646864E+02 -0.10410592953E+03  0.13287227808E+03  0.80883254320E+02 0.  0.
         -6    2    1    2    0  502 -0.53578966008E+02 -0.59185852725E+02 -0.46848610908E+03  0.50692096604E+03  0.17639716735E+03 0.  0.
        -24    2    5    5    0    0  0.18062394683E+02 -0.79353832421E+02 -0.33899356122E+03  0.35748990528E+03  0.79114581544E+02 0.  0.
          5    1    3    3  501    0  0.63745014162E+02  0.72283499589E+02 -0.26142362828E+03  0.27866240250E+03  0.47000000000E+01 0. -1.
        -13    1    4    4    0    0  0.11054879875E+02 -0.19266064131E+02  0.39662445287E+01  0.22563747291E+02  0.00000000000E+00 0.  1.
         14    1    4    4    0    0 -0.21220928030E+02  0.61684172672E+01 -0.10807217406E+03  0.11030853079E+03  0.00000000000E+00 0. -1.
         -5    1    5    5    0  502 -0.71641360691E+02  0.20167979696E+02 -0.12949254786E+03  0.14943106076E+03  0.47000000000E+01 0.  1.
         13    1    6    6    0    0  0.13553094060E+02 -0.24720226754E+02 -0.21915925012E+02  0.35708314697E+02  0.00000000000E+00 0. -1.
        -14    1    6    6    0    0  0.45093006234E+01 -0.54633605667E+02 -0.31707763620E+03  0.32178159059E+03  0.00000000000E+00 0.  1.
</event>
<event>
12    1  0.9028446E-003  0.2222549E+03  0.7818608E-02  0.1132300E+00
         21   -1    0    0  503  502  0.00000000000E+00  0.00000000000E+00  0.40451730636E+02  0.40451730636E+02  0.00000000000E+00 0.  1.
         21   -1    0    0  501  503 -0.00000000000E+00 -0.00000000000E+00 -0.14195692091E+04  0.14195692091E+04  0.00000000000E+00 0. -1.
          6    2    1    2  501    0 -0.11566915963E+03  0.79926381691E+02 -0.41547618907E+03  0.47118753079E+03  0.17213263638E+03 0.  0.
         24    2    3    3    0    0 -0.13012551995E+03  0.50937169517E+02 -0.21363805496E+03  0.26671239011E+03  0.77246581341E+02 0.  0.
         -6    2    1    2    0  502  0.11566915963E+03 -0.79926381691E+02 -0.96364128944E+03  0.98883340899E+03  0.17152082978E+03 0.  0.
        -24    2    5    5    0    0  0.11302767513E+03 -0.50086400923E+01 -0.76314400739E+03  0.77472853853E+03  0.70818010256E+02 0.  0.
          5    1    3    3  501    0  0.14456360322E+02  0.28989212174E+02 -0.20183813411E+03  0.20447514068E+03  0.47000000000E+01 0. -1.
        -11    1    4    4    0    0 -0.91621828126E+02  0.53364390275E+02 -0.19893168780E+03  0.22542434196E+03  0.00000000000E+00 0.  1.
         12    1    4    4    0    0 -0.38503691823E+02 -0.24272207577E+01 -0.14706367164E+02  0.41288048147E+02  0.00000000000E+00 0. -1.
         -5    1    5    5    0  502  0.26414845007E+01 -0.74917741599E+02 -0.20049728204E+03  0.21410487046E+03  0.47000000000E+01 0.  1.
         11    1    6    6    0    0  0.62184422952E+02 -0.41566913983E+01 -0.20477916987E+03  0.21405300501E+03  0.00000000000E+00 0. -1.
        -12    1    6    6    0    0  0.50843252174E+02 -0.85194869397E+00 -0.55836483752E+03  0.56067553352E+03  0.00000000000E+00 0.  1.
</event>
<event>
12    1  0.9028446E-003  0.2042073E+03  0.7818608E-02  0.1146578E+00
         21   -1    0    0  501  502  0.00000000000E+00  0.00000000000E+00  0.12900363045E+03  0.12900363045E+03  0.00000000000E+00 0.  1.
         21   -1    0    0  502  503 -0.00000000000E+00 -0.00000000000E+00 -0.46567511695E+03  0.46567511695E+03  0.00000000000E+00 0. -1.
          6    2    1    2  501    0  0.36662426523E+02  0.10258981044E+03 -0.19241036081E+01  0.20256084386E+03  0.17075828110E+03 0.  0.
         24    2    3    3    0    0 -0.26380338769E+02  0.84293808496E+02  0.41280382349E+02  0.12383440897E+03  0.76351309451E+02 0.  0.
         -6    2    1    2    0  503 -0.36662426523E+02 -0.10258981044E+03 -0.33474738289E+03  0.39211790353E+03  0.17271895436E+03 0.  0.
        -24    2    5    5    0    0  0.21294192319E+02 -0.74677438097E+02 -0.94894193742E+02  0.14374376530E+03  0.75014663034E+02 0.  0.
          5    1    3    3  501    0  0.63042765292E+02  0.18296001947E+02 -0.43204485957E+02  0.78726434885E+02  0.47000000000E+01 0. -1.
        -11    1    4    4    0    0 -0.16472774906E+01  0.90318822818E+02  0.38607291106E+02  0.98238109738E+02  0.00000000000E+00 0.  1.
         12    1    4    4    0    0 -0.24733061278E+02 -0.60250143224E+01  0.26730912425E+01  0.25596299236E+02  0.00000000000E+00 0. -1.
         -5    1    5    5    0  503 -0.57956618842E+02 -0.27912372346E+02 -0.23985318915E+03  0.24837413823E+03  0.47000000000E+01 0.  1.
         13    1    6    6    0    0 -0.29190309578E+01 -0.49216426696E+02 -0.96719027970E+02  0.10856034161E+03  0.00000000000E+00 0. -1.
        -14    1    6    6    0    0  0.24213223276E+02 -0.25461011401E+02  0.18248342271E+01  0.35183423695E+02  0.00000000000E+00 0.  1.
</event>
<event>
12    1  0.9028446E-003  0.1979214E+03  0.7818608E-02  0.1151840E+00
         21   -1    0    0  503  502  0.00000000000E+00  0.00000000000E+00  0.13560307774E+03  0.13560307774E+03  0.00000000000E+00 0. -1.
         21   -1    0    0  501  503 -0.00000000000E+00 -0.00000000000E+00 -0.30475589603E+03  0.30475589603E+03  0.00000000000E+00 0.  1.
          6    2    1    2  501    0 -0.74840730375E+02  0.63004353584E+02 -0.13799462900E+03  0.24000001221E+03  0.17025511661E+03 0.  0.
         24    2    3    3    0    0 -0.11143712762E+01 -0.22457402008E+02 -0.54621380407E+02  0.99598885870E+02  0.80192681341E+02 0.  0.
         -6    2    1    2    0  502  0.74840730375E+02 -0.63004353584E+02 -0.31158189293E+02  0.20035896157E+03  0.17205289078E+03 0.  0.
        -24    2    5    5    0    0 -0.56553020403E+01 -0.53886289317E+02  0.26711625003E+02  0.10069073324E+03  0.80556801282E+02 0.  0.
          5    1    3    3  501    0 -0.73726359099E+02  0.85461755591E+02 -0.83373248597E+02  0.14040112634E+03  0.47000000000E+01 0. -1.
        -13    1    4    4    0    0  0.24118181699E+02  0.17964491622E+02 -0.44426539518E+01  0.30399783253E+02  0.00000000000E+00 0.  1.
         14    1    4    4    0    0 -0.25232552976E+02 -0.40421893630E+02 -0.50178726455E+02  0.69199102617E+02  0.00000000000E+00 0. -1.
         -5    1    5    5    0  502  0.80496032415E+02 -0.91180642663E+01 -0.57869814297E+02  0.99668228324E+02  0.47000000000E+01 0.  1.
         13    1    6    6    0    0 -0.91587312012E+00  0.21411419940E+02  0.86596728768E+01  0.23114447036E+02  0.00000000000E+00 0. -1.
        -14    1    6    6    0    0 -0.47394289202E+01 -0.75297709258E+02  0.18051952127E+02  0.77576286206E+02  0.00000000000E+00 0.  1.
</event>
<event>
12    1  0.9028446E-003  0.2154031E+03  0.7818608E-02  0.1137463E+00
         21   -1    0    0  503  502  0.00000000000E+00  0.00000000000E+00  0.18489981804E+03  0.18489981804E+03  0.00000000000E+00 0.  1.
         21   -1    0    0  501  503 -0.00000000000E+00 -0.00000000000E+00 -0.34944313420E+03  0.34944313420E+03  0.00000000000E+00 0.  1.
          6    2    1    2  501    0 -0.12457131797E+03 -0.33406084898E+02 -0.22450808001E+03  0.31074894119E+03  0.17183435829E+03 0.  0.
         24    2    3    3    0    0 -0.55415842124E+01 -0.59973327939E+01 -0.56770113509E+02  0.10319790501E+03  0.85792101355E+02 0.  0.
         -6    2    1    2    0  502  0.12457131797E+03  0.33406084898E+02  0.59964763863E+02  0.22359401105E+03  0.17252399574E+03 0.  0.
        -24    2    5    5    0    0  0.52594401802E+02 -0.30324484121E+02  0.77501851477E+02  0.12575791684E+03  0.78248138817E+02 0.  0.
          5    1    3    3  501    0 -0.11902973375E+03 -0.27408752104E+02 -0.16773796651E+03  0.20755103617E+03  0.47000000000E+01 0. -1.
        -11    1    4    4    0    0  0.85809939744E+01 -0.22277847797E+02  0.15044941815E+02  0.28218544156E+02  0.00000000000E+00 0.  1.
         12    1    4    4    0    0 -0.14122578187E+02  0.16280515003E+02 -0.71815055323E+02  0.74979360857E+02  0.00000000000E+00 0. -1.
         -5    1    5    5    0  502  0.71976916165E+02  0.63730569019E+02 -0.17537087614E+02  0.97836094209E+02  0.47000000000E+01 0.  1.
         11    1    6    6    0    0  0.42226569645E+01 -0.30130291146E+02  0.70624683034E+02  0.76899357150E+02  0.00000000000E+00 0. -1.
        -12    1    6    6    0    0  0.48371744837E+02 -0.19419297514E+00  0.68771684424E+01  0.48858559693E+02  0.00000000000E+00 0.  1.
</event>
<event>
12    1  0.9028446E-003  0.2591771E+03  0.7818608E-02  0.1107821E+00
         21   -1    0    0  501  502  0.00000000000E+00  0.00000000000E+00  0.20949439009E+03  0.20949439009E+03  0.00000000000E+00 0. -1.
         21   -1    0    0  502  503 -0.00000000000E+00 -0.00000000000E+00 -0.45332057899E+03  0.45332057899E+03  0.00000000000E+00 0.  1.
          6    2    1    2  501    0  0.16730786536E+03  0.98710201375E+02  0.58180542074E+02  0.26562705591E+03  0.17157252602E+03 0.  0.
         24    2    3    3    0    0  0.22136856234E+02  0.39185941226E+02 -0.76620574681E+01  0.95406324644E+02  0.83773989183E+02 0.  0.
         -6    2    1    2    0  503 -0.16730786536E+03 -0.98710201375E+02 -0.30200673097E+03  0.39718791317E+03  0.16974848202E+03 0.  0.
        -24    2    5    5    0    0 -0.10931581150E+03  0.79259553498E+01 -0.14489742002E+03  0.19859341722E+03  0.80195483818E+02 0.  0.
          5    1    3    3  501    0  0.14517100913E+03  0.59524260149E+02  0.65842599542E+02  0.17022073126E+03  0.47000000000E+01 0. -1.
        -11    1    4    4    0    0  0.52453072377E+01  0.47318955272E+02 -0.37201599137E+02  0.60419829149E+02  0.00000000000E+00 0.  1.
         12    1    4    4    0    0  0.16891548996E+02 -0.81330140459E+01  0.29539541669E+02  0.34986495494E+02  0.00000000000E+00 0. -1.
         -5    1    5    5    0  503 -0.57992053862E+02 -0.10663615672E+03 -0.15710931096E+03  0.19859449595E+03  0.47000000000E+01 0.  1.
         11    1    6    6    0    0  0.51438214048E+01  0.19813254914E+02 -0.17641556548E+02  0.27023110228E+02  0.00000000000E+00 0. -1.
        -12    1    6    6    0    0 -0.11445963290E+03 -0.11887299564E+02 -0.12725586347E+03  0.17157030699E+03  0.00000000000E+00 0.  1.
</event>
<event>
12    1  0.9028446E-003  0.2642012E+03  0.7818608E-02  0.1105076E+00
         21   -1    0    0  501  502  0.00000000000E+00  0.00000000000E+00  0.13360604681E+03  0.13360604681E+03  0.00000000000E+00 0.  1.
         21   -1    0    0  502  503 -0.00000000000E+00 -0.00000000000E+00 -0.63017979703E+03  0.63017979703E+03  0.00000000000E+00 0. -1.
          6    2    1    2  501    0  0.97891510515E+00  0.19644617786E+03 -0.85102986690E+02  0.27479663956E+03  0.17227482608E+03 0.  0.
         24    2    3    3    0    0 -0.34179977869E+02  0.32684440740E+02 -0.40432639229E+02  0.10138503603E+03  0.80047383851E+02 0.  0.
         -6    2    1    2    0  503 -0.97891510515E+00 -0.19644617786E+03 -0.41147076353E+03  0.48898920427E+03  0.17666406986E+03 0.  0.
        -24    2    5    5    0    0  0.21947155304E+02 -0.16801664458E+03 -0.41153571605E+03  0.45216615055E+03  0.79883112300E+02 0.  0.
          5    1    3    3  501    0  0.35158892974E+02  0.16376173712E+03 -0.44670347461E+02  0.17341160354E+03  0.47000000000E+01 0. -1.
        -11    1    4    4    0    0  0.10631569317E+02  0.44175420853E+02 -0.28407666122E+02  0.53586318853E+02  0.00000000000E+00 0.  1.
         12    1    4    4    0    0 -0.44811547186E+02 -0.11490980113E+02 -0.12024973108E+02  0.47798717173E+02  0.00000000000E+00 0. -1.
         -5    1    5    5    0  503 -0.22926070409E+02 -0.28429533276E+02  0.64952519244E-01  0.36823053723E+02  0.47000000000E+01 0.  1.
         13    1    6    6    0    0 -0.19420911305E+02 -0.63373111608E+02 -0.91949354300E+02  0.11334904864E+03  0.00000000000E+00 0. -1.
        -14    1    6    6    0    0  0.41368066609E+02 -0.10464353298E+03 -0.31958636175E+03  0.33881710191E+03  0.00000000000E+00 0.  1.
</event>
<event>
12    1  0.9028446E-003  0.1777637E+03  0.7818608E-02  0.1170880E+00
         21   -1    0    0  501  502  0.00000000000E+00  0.00000000000E+00  0.17988998022E+03  0.17988998022E+03  0.00000000000E+00 0.  1.
         21   -1    0    0  502  503 -0.00000000000E+00 -0.00000000000E+00 -0.48617740914E+03  0.48617740914E+03  0.00000000000E+00 0.  1.
          6    2    1    2  501    0  0.45453196351E+02  0.11281732802E+02  0.11396272411E+03  0.21115734221E+03  0.17148367307E+03 0.  0.
         24    2    3    3    0    0  0.34003065159E+02 -0.56083048021E+02  0.40613696609E+02  0.11080153005E+03  0.79536092395E+02 0.  0.
         -6    2    1    2    0  503 -0.45453196351E+02 -0.11281732802E+02 -0.42025015303E+03  0.45491004715E+03  0.16774888770E+03 0.  0.
        -24    2    5    5    0    0  0.14526265466E+02  0.42333141212E+01 -0.36303805180E+03  0.37044960051E+03  0.72161943711E+02 0.  0.
          5    1    3    3  501    0  0.11450131193E+02  0.67364780823E+02  0.73349027502E+02  0.10035581216E+03  0.47000000000E+01 0. -1.
        -13    1    4    4    0    0 -0.30609302251E+01 -0.62322596226E+02  0.11946031709E+02  0.63530960702E+02  0.00000000000E+00 0.  1.
         14    1    4    4    0    0  0.37063995384E+02  0.62395482044E+01  0.28667664900E+02  0.47270569347E+02  0.00000000000E+00 0. -1.
         -5    1    5    5    0  503 -0.59979461818E+02 -0.15515046923E+02 -0.57212101228E+02  0.84460446648E+02  0.47000000000E+01 0.  1.
         13    1    6    6    0    0  0.11615433647E+02  0.23937780185E+02 -0.48810348416E+02  0.55591237902E+02  0.00000000000E+00 0. -1.
        -14    1    6    6    0    0  0.29108318187E+01 -0.19704466064E+02 -0.31422770339E+03  0.31485836260E+03  0.00000000000E+00 0.  1.
</event>
<event>
12    1  0.9028446E-003  0.1989674E+03  0.7818608E-02  0.1150830E+00
         21   -1    0    0  503  502  0.00000000000E+00  0.00000000000E+00  0.10779232826E+03  0.10779232826E+03  0.00000000000E+00 0.  1.
         21   -1    0    0  501  503 -0.00000000000E+00 -0.00000000000E+00 -0.38812266734E+03  0.38812266734E+03  0.00000000000E+00 0.  1.
          6    2    1    2  501    0  0.15127425786E+02 -0.95804096454E+02 -0.20051333686E+03  0.28247762983E+03  0.17372607515E+03 0.  0.
         24    2    3    3    0    0  0.37238287541E+02 -0.12426097416E+03 -0.19172333804E+03  0.24508728114E+03  0.80513708581E+02 0.  0.
         -6    2    1    2    0  502 -0.15127425786E+02  0.95804096454E+02 -0.79817002217E+02  0.21343736577E+03  0.17256155817E+03 0.  0.
        -24    2    5    5    0    0 -0.46262909175E+02  0.10962010296E+03 -0.98551495619E+02  0.17427907668E+03  0.80647228984E+02 0.  0.
          5    1    3    3  501    0 -0.22110861755E+02  0.28456877704E+02 -0.87899988280E+01  0.37390348696E+02  0.47000000000E+01 0. -1.
        -11    1    4    4    0    0  0.38544883785E+02 -0.88082787586E+02 -0.18467669979E+03  0.20820607335E+03  0.00000000000E+00 0.  1.
         12    1    4    4    0    0 -0.13065962440E+01 -0.36178186572E+02 -0.70466382507E+01  0.36881207789E+02  0.00000000000E+00 0. -1.
         -5    1    5    5    0  502  0.31135483390E+02 -0.13816006503E+02  0.18734493401E+02  0.39158289092E+02  0.47000000000E+01 0.  1.
         13    1    6    6    0    0 -0.22841587530E+02 -0.59354753576E+01 -0.28996180759E+02  0.37386447909E+02  0.00000000000E+00 0. -1.
        -14    1    6    6    0    0 -0.23421321645E+02  0.11555557831E+03 -0.69555314860E+02  0.13689262877E+03  0.00000000000E+00 0.  1.
</event>
<event>
12    1  0.9028446E-003  0.2228557E+03  0.7818608E-02  0.1132177E+00
         21   -1    0    0  503  502  0.00000000000E+00  0.00000000000E+00  0.48810707730E+03  0.48810707730E+03  0.00000000000E+00 0.  1.
         21   -1    0    0  501  503 -0.00000000000E+00 -0.00000000000E+00 -0.11978714417E+03  0.11978714417E+03  0.00000000000E+00 0.  1.
          6    2    1    2  501    0 -0.57146763280E+02 -0.12960491839E+03  0.62215464140E+02  0.22925905352E+03  0.16919149571E+03 0.  0.
         24    2    3    3    0    0 -0.72076159448E+02 -0.33496190416E+02  0.67119055310E+02  0.13176079883E+03  0.80863916483E+02 0.  0.
         -6    2    1    2    0  502  0.57146763280E+02  0.12960491839E+03  0.30610446899E+03  0.37863516795E+03  0.17205073975E+03 0.  0.
        -24    2    5    5    0    0 -0.16088137400E+02  0.13018755336E+02  0.14572873756E+03  0.16721579957E+03  0.79346975495E+02 0.  0.
          5    1    3    3  501    0  0.14929396167E+02 -0.96108727971E+02 -0.49035911702E+01  0.97498254695E+02  0.47000000000E+01 0. -1.
        -11    1    4    4    0    0 -0.62674539464E+02 -0.53643320104E+02  0.28651428217E+02  0.87330453037E+02  0.00000000000E+00 0.  1.
         12    1    4    4    0    0 -0.94016199838E+01  0.20147129687E+02  0.38467627093E+02  0.44430345791E+02  0.00000000000E+00 0. -1.
         -5    1    5    5    0  502  0.73234900681E+02  0.11658616305E+03  0.16037573143E+03  0.21141936838E+03  0.47000000000E+01 0.  1.
         11    1    6    6    0    0  0.28455837781E+02 -0.12354366617E+01  0.25571640806E+02  0.38277536769E+02  0.00000000000E+00 0. -1.
        -12    1    6    6    0    0 -0.44543975181E+02  0.14254191998E+02  0.12015709675E+03  0.12893826280E+03  0.00000000000E+00 0.  1.
</event>
<event>
12    1  0.9028446E-003  0.1718603E+03  0.7818608E-02  0.1176784E+00
         21   -1    0    0  503  502  0.00000000000E+00  0.00000000000E+00  0.49317779660E+02  0.49317779660E+02  0.00000000000E+00 0. -1.
         21   -1    0    0  501  503 -0.00000000000E+00 -0.00000000000E+00 -0.72664652815E+03  0.72664652815E+03  0.00000000000E+00 0. -1.
          6    2    1    2  501    0 -0.10112796327E+02  0.14980534204E+02 -0.50584424234E+03  0.53318273470E+03  0.16756713884E+03 0.  0.
         24    2    3    3    0    0  0.55334694164E+02  0.24464324807E+02 -0.27107401442E+03  0.28923096444E+03  0.80703146961E+02 0.  0.
         -6    2    1    2    0  502  0.10112796327E+02 -0.14980534204E+02 -0.17148450615E+03  0.24278157311E+03  0.17090720095E+03 0.  0.
        -24    2    5    5    0    0 -0.34858599379E+01  0.24210876624E+02 -0.19686938969E+02  0.85347518547E+02  0.79361864833E+02 0.  0.
          5    1    3    3  501    0 -0.65447490491E+02 -0.94837906029E+01 -0.23477022792E+03  0.24395177026E+03  0.47000000000E+01 0. -1.
        -11    1    4    4    0    0 -0.14618343783E+02 -0.10027659148E+02 -0.22127808897E+02  0.28352951337E+02  0.00000000000E+00 0.  1.
         12    1    4    4    0    0  0.69953037947E+02  0.34491983955E+02 -0.24894620552E+03  0.26087801310E+03  0.00000000000E+00 0. -1.
         -5    1    5    5    0  502  0.13598656265E+02 -0.39191410828E+02 -0.15179756718E+03  0.15743405456E+03  0.47000000000E+01 0.  1.
         13    1    6    6    0    0  0.33815876328E+02  0.29593457079E+02 -0.64213513927E+01  0.45392950415E+02  0.00000000000E+00 0. -1.
        -14    1    6    6    0    0 -0.37301736266E+02 -0.53825804553E+01 -0.13265587576E+02  0.39954568131E+02  0.00000000000E+00 0.  1.
</event>
<event>
12    1  0.9028446E-003  0.1919220E+03  0.7818608E-02  0.1156912E+00
         21   -1    0    0  501  502  0.00000000000E+00  0.00000000000E+00  0.15131107762E+03  0.15131107762E+03  0.00000000000E+00 0.  1.
         21   -1    0    0  502  503 -0.00000000000E+00 -0.00000000000E+00 -0.33685681830E+03  0.33685681830E+03  0.00000000000E+00 0. -1.
          6    2    1    2  501    0 -0.11855229423E+01 -0.86281572313E+02  0.36580267234E+02  0.19461379999E+03  0.17055937386E+03 0.  0.
         24    2    3    3    0    0 -0.57983135146E+02 -0.60037266279E+02  0.56971666493E+02  0.12863932375E+03  0.79597660319E+02 0.  0.
         -6    2    1    2    0  503  0.11855229423E+01  0.86281572313E+02 -0.22212600791E+03  0.29355409593E+03  0.17142966097E+03 0.  0.
        -24    2    5    5    0    0  0.65762925870E+02  0.69066261511E+02 -0.11910168501E+03  0.17066101637E+03  0.76452993643E+02 0.  0.
          5    1    3    3  501    0  0.56797612204E+02 -0.26244306035E+02 -0.20391399259E+02  0.65974476239E+02  0.47000000000E+01 0. -1.
        -11    1    4    4    0    0 -0.38954296022E+01 -0.20541361722E+02  0.58005243712E+02  0.61658172300E+02  0.00000000000E+00 0.  1.
         12    1    4    4    0    0 -0.54087705544E+02 -0.39495904556E+02 -0.10335772199E+01  0.66981151450E+02  0.00000000000E+00 0. -1.
         -5    1    5    5    0  503 -0.64577402927E+02  0.17215310803E+02 -0.10302432290E+03  0.12289307956E+03  0.47000000000E+01 0.  1.
         13    1    6    6    0    0 -0.11226175708E+02  0.19153106988E+02 -0.53338246124E+02  0.57774016892E+02  0.00000000000E+00 0. -1.
        -14    1    6    6    0    0  0.76989101577E+02  0.49913154522E+02 -0.65763438887E+02  0.11288699947E+03  0.00000000000E+00 0.  1.
</event>
<event>
12    1  0.9028446E-003  0.1966899E+03  0.7818608E-02  0.1153371E+00
         21   -1    0    0  501  502  0.00000000000E+00  0.00000000000E+00  0.15357991097E+04  0.15357991097E+04  0.00000000000E+00 0. -1.
         21   -1    0    0  502  503 -0.00000000000E+00 -0.00000000000E+00 -0.47232116400E+02  0.47232116400E+02  0.00000000000E+00 0. -1.
          6    2    1    2  501    0 -0.42381549911E+02 -0.75945244550E+02  0.12944693292E+04  0.13093272163E+04  0.17641723024E+03 0.  0.
         24    2    3    3    0    0 -0.29585789672E+01  0.28341921645E+02  0.65164819544E+03  0.65689248110E+03  0.77783953301E+02 0.  0.
         -6    2    1    2    0  503  0.42381549911E+02  0.75945244550E+02  0.19409766416E+03  0.27370400987E+03  0.17226754147E+03 0.  0.
        -24    2    5    5    0    0  0.41408547746E+02  0.25043381499E+02  0.20160190305E+03  0.22202858054E+03  0.79445103568E+02 0.  0.
          5    1    3    3  501    0 -0.39422970944E+02 -0.10428716620E+03  0.64282113372E+03  0.65243473515E+03  0.47000000000E+01 0. -1.
        -13    1    4    4    0    0 -0.34942212913E+02  0.25364386376E+02  0.22966828194E+03  0.23369174155E+03  0.00000000000E+00 0.  1.
         14    1    4    4    0    0  0.31983633946E+02  0.29775352697E+01  0.42197991350E+03  0.42320073955E+03  0.00000000000E+00 0. -1.
         -5    1    5    5    0  503  0.97300216536E+00  0.50901863052E+02 -0.75042388883E+01  0.51675429332E+02  0.47000000000E+01 0.  1.
         13    1    6    6    0    0  0.32376202465E+02  0.18532685019E+02  0.24620522647E+02  0.44697304567E+02  0.00000000000E+00 0. -1.
        -14    1    6    6    0    0  0.90323452804E+01  0.65106964791E+01  0.17698138040E+03  0.17733127598E+03  0.00000000000E+00 0.  1.
</event>
<event>
12    1  0.9028446E-003  0.1885683E+03  0.7818608E-02  0.1161456E+00
         21   -1    0    0  501  502  0.00000000000E+00  0.00000000000E+00  0.93914189616E+03  0.93914189616E+03  0.00000000000E+00 0.  1.
         21   -1    0    0  502  503 -0.00000000000E+00 -0.00000000000E+00 -0.38296951503E+02  0.38296951503E+02  0.00000000000E+00 0. -1.
          6    2    1    2  501    0  0.45988856194E+02  0.62473289024E+02  0.55040166051E+03  0.57948346352E+03  0.16383287173E+03 0.  0.
         24    2    3    3    0    0 -0.34414472066E+02  0.44635186448E+02  0.32540847385E+03  0.33984432410E+03  0.80167537131E+02 0.  0.
         -6    2    1    2    0  503 -0.45988856194E+02 -0.62473289024E+02  0.35044328415E+03  0.39795538415E+03  0.17187235273E+03 0.  0.
        -24    2    5    5    0    0 -0.31966174558E+02 -0.34805855241E+02  0.72458410851E+02  0.11820584925E+03  0.80555059553E+02 0.  0.
          5    1    3    3  501    0  0.80403328260E+02  0.17838102576E+02  0.22499318666E+03  0.23963913942E+03  0.47000000000E+01 0. -1.
        -11    1    4    4    0    0 -0.10031644838E+02 -0.22415058902E+02  0.11738037852E+03  0.11992173291E+03  0.00000000000E+00 0.  1.
         12    1    4    4    0    0 -0.24382827228E+02  0.67050245350E+02  0.20802809533E+03  0.21992259118E+03  0.00000000000E+00 0. -1.
         -5    1    5    5    0  503 -0.14022681636E+02 -0.27667433783E+02  0.27798487329E+03  0.27974953489E+03  0.47000000000E+01 0.  1.
         13    1    6    6    0    0  0.80622822598E+01  0.20625094718E+02  0.62025562305E+01  0.22997100495E+02  0.00000000000E+00 0. -1.
        -14    1    6    6    0    0 -0.40028456818E+02 -0.55430949960E+02  0.66255854620E+02  0.95208748758E+02  0.00000000000E+00 0.  1.
</event>
<event>
12    1  0.9028446E-003  0.2088954E+03  0.7818608E-02  0.1142592E+00
         21   -1    0    0  503  502  0.00000000000E+00  0.00000000000E+00  0.11810283789E+03  0.11810283789E+03  0.00000000000E+00 0. -1.
         21   -1    0    0  501  503 -0.00000000000E+00 -0.00000000000E+00 -0.50310860239E+03  0.50310860239E+03  0.00000000000E+00 0. -1.
          6    2    1    2  501    0  0.40270876364E+02  0.11106641628E+03 -0.35360988094E+03  0.41070335082E+03  0.17227826960E+03 0.  0.
         24    2    3    3    0    0 -0.44669340065E+02  0.48292030013E+02 -0.15938914980E+03  0.18957161104E+03  0.78771978097E+02 0.  0.
         -6    2    1    2    0  502 -0.40270876364E+02 -0.11106641628E+03 -0.31395883570E+02  0.21050808946E+03  0.17137812554E+03 0.  0.
        -24    2    5    5    0    0 -0.67620859109E+01  0.99577435663E+01 -0.12388005674E+02  0.83413338480E+02  0.81605391298E+02 0.  0.
          5    1    3    3  501    0  0.84940216429E+02  0.62774386265E+02 -0.19422073114E+03  0.22113173979E+03  0.47000000000E+01 0. -1.
        -11    1    4    4    0    0 -0.25407359310E+01  0.97538974615E+01 -0.11949310713E+03  0.11991745705E+03  0.00000000000E+00 0.  1.
         12    1    4    4    0    0 -0.42128604134E+02  0.38538132551E+02 -0.39896042673E+02  0.69654153988E+02  0.00000000000E+00 0. -1.
         -5    1    5    5    0  502 -0.33508790453E+02 -0.12102415984E+03 -0.19007877896E+02  0.12709475098E+03  0.47000000000E+01 0.  1.
         11    1    6    6    0    0 -0.42574341430E+02 -0.62758144861E+01 -0.88473783364E+01  0.43934456855E+02  0.00000000000E+00 0. -1.
        -12    1    6    6    0    0  0.35812255519E+02  0.16233558052E+02 -0.35406273372E+01  0.39478881625E+02  0.00000000000E+00 0.  1.
</event>
<event>
12    1  0.9028446E-003  0.1791096E+03  0.7818608E-02  0.1168708E+00
         21   -1    0    0  501  502  0.00000000000E+00  0.00000000000E+00  0.50313320470E+03  0.50313320470E+03  0.00000000000E+00 0. -1.
         21   -1    0    0  502  503 -0.00000000000E+00 -0.00000000000E+00 -0.78552580126E+02  0.78552580126E+02  0.00000000000E+00 0. -1.
          6    2    1    2  501    0 -0.48950654501E+02 -0.89675668481E+00  0.85747442820E+02  0.19842587219E+03  0.17211400889E+03 0.  0.
         24    2    3    3    0    0 -0.26389547291E+02  0.16781529120E+02  0.12367251564E+03  0.15065635789E+03  0.80152474207E+02 0.  0.
         -6    2    1    2    0  503  0.48950654501E+02  0.89675668481E+00  0.33883318176E+03  0.38325991264E+03  0.17228831890E+03 0.  0.
        -24    2    5    5    0    0  0.72907469754E+02 -0.35000054819E+02  0.14413358263E+03  0.18377925199E+03  0.80373010629E+02 0.  0.
          5    1    3    3  501    0 -0.22561107210E+02 -0.17678285805E+02 -0.37925072824E+02  0.47769514298E+02  0.47000000000E+01 0. -1.
        -11    1    4    4    0    0 -0.48515018587E+02  0.35629759228E+01  0.11249741061E+03  0.12256455123E+03  0.00000000000E+00 0.  1.
         12    1    4    4    0    0  0.22125471296E+02  0.13218553197E+02  0.11175105037E+02  0.28091806657E+02  0.00000000000E+00 0. -1.
         -5    1    5    5    0  503 -0.23956815253E+02  0.35896811504E+02  0.19469959913E+03  0.19948066065E+03  0.47000000000E+01 0.  1.
         13    1    6    6    0    0  0.18822445567E+02 -0.35131399388E+02  0.11632566867E+03  0.12296406333E+03  0.00000000000E+00 0. -1.
        -14    1    6    6    0    0  0.54085024187E+02  0.13134456916E+00  0.27807913961E+02  0.60815188658E+02  0.00000000000E+00 0.  1.
</event>
<event>
12    1  0.9028446E-003  0.2044156E+03  0.7818608E-02  0.1147223E+00
         21   -1    0    0  501  502  0.00000000000E+00  0.00000000000E+00  0.30589534309E+02  0.30589534309E+02  0.00000000000E+00 0.  1.
         21   -1    0    0  502  503 -0.00000000000E+00 -0.00000000000E+00 -0.13310526732E+04  0.13310526732E+04  0.00000000000E+00 0.  1.
          6    2    1    2  501    0 -0.63763193027E+02  0.88227554910E+02 -0.61532731016E+03  0.64666190285E+03  0.16641535906E+03 0.  0.
         24    2    3    3    0    0 -0.60241165066E+02  0.63810021143E+02 -0.21307163955E+03  0.24362302734E+03  0.79069204496E+02 0.  0.
         -6    2    1    2    0  503  0.63763193027E+02 -0.88227554910E+02 -0.68513582877E+03  0.71498030470E+03  0.17301990064E+03 0.  0.
        -24    2    5    5    0    0  0.64194396062E+02  0.88780335685E+01 -0.27757207157E+03  0.29598151302E+03  0.79743721804E+02 0.  0.
          5    1    3    3  501    0 -0.35220279611E+01  0.24417533767E+02 -0.40225567061E+03  0.40303887551E+03  0.47000000000E+01 0. -1.
        -13    1    4    4    0    0 -0.51542196994E+02  0.56628728071E+01 -0.58100859322E+02  0.77874103868E+02  0.00000000000E+00 0.  1.
         14    1    4    4    0    0 -0.86989680723E+01  0.58147148336E+02 -0.15497078023E+03  0.16574892347E+03  0.00000000000E+00 0. -1.
         -5    1    5    5    0  503 -0.43120303479E+00 -0.97105588478E+02 -0.40756375720E+03  0.41899879169E+03  0.47000000000E+01 0.  1.
         13    1    6    6    0    0  0.42314315891E+02 -0.13254755551E+02 -0.52289363353E+02  0.68559225447E+02  0.00000000000E+00 0. -1.
        -14    1    6    6    0    0  0.21880080171E+02  0.22132789120E+02 -0.22528270822E+03  0.22742228757E+03  0.00000000000E+00 0.  1.
</event>
<event>
12    1  0.9028446E-003  0.2629705E+03  0.7818608E-02  0.1105612E+00
         21   -1    0    0  503  502  0.00000000000E+00  0.00000000000E+00  0.46475665645E+03  0.46475665645E+03  0.00000000000E+00 0.  1.
         21   -1    0    0  501  503 -0.00000000000E+00 -0.00000000000E+00 -0.15372364890E+03  0.15372364890E+03  0.00000000000E+00 0. -1.
          6    2    1    2  501    0  0.13524325998E+03 -0.14296181611E+03  0.94765578443E+02  0.27800259224E+03  0.17197705138E+03 0.  0.
         24    2    3    3    0    0  0.14430918987E+03 -0.60974738333E+02  0.81646256063E+02  0.19434687740E+03  0.81003312460E+02 0.  0.
         -6    2    1    2    0  502 -0.13524325998E+03  0.14296181611E+03  0.21626742910E+03  0.34047771310E+03  0.17442663785E+03 0.  0.
        -24    2    5    5    0    0 -0.40918901188E+02  0.10878744621E+03  0.57033011560E+02  0.15221549716E+03  0.80048286934E+02 0.  0.
          5    1    3    3  501    0 -0.90659298889E+01 -0.81987077773E+02  0.13119322380E+02  0.83655714845E+02  0.47000000000E+01 0. -1.
        -13    1    4    4    0    0  0.43421862041E+02  0.11693324639E+02 -0.11228554514E+01  0.44982805033E+02  0.00000000000E+00 0.  1.
         14    1    4    4    0    0  0.10088732783E+03 -0.72668062972E+02  0.82769111514E+02  0.14936407237E+03  0.00000000000E+00 0. -1.
         -5    1    5    5    0  502 -0.94324358793E+02  0.34174369895E+02  0.15923441754E+03  0.18826221594E+03  0.47000000000E+01 0.  1.
         11    1    6    6    0    0  0.18298700393E+02  0.30566671762E+02  0.38350572162E+02  0.52344342997E+02  0.00000000000E+00 0. -1.
        -12    1    6    6    0    0 -0.59217601581E+02  0.78220774449E+02  0.18682439399E+02  0.99871154165E+02  0.00000000000E+00 0.  1.
</event>
<event>
12    1  0.9028446E-003  0.2853087E+03  0.7818608E-02  0.1093003E+00
         21   -1    0    0  501  502  0.00000000000E+00  0.00000000000E+00  0.50271154848E+03  0.50271154848E+03  0.00000000000E+00 0. -1.
         21   -1    0    0  502  503 -0.00000000000E+00 -0.00000000000E+00 -0.16276023282E+03  0.16276023282E+03  0.00000000000E+00 0.  1.
          6    2    1    2  501    0 -0.17048899904E+03 -0.14735414495E+03  0.20252322354E+03  0.34878974945E+03  0.17279725235E+03 0.  0.
         24    2    3    3    0    0 -0.14643095324E+03 -0.60616288805E+02  0.75733292779E+02  0.19322618753E+03  0.80526203028E+02 0.  0.
         -6    2    1    2    0  503  0.17048899904E+03  0.14735414495E+03  0.13742809212E+03  0.31668203185E+03  0.17498938817E+03 0.  0.
        -24    2    5    5    0    0  0.14082584676E+03  0.62115162435E+02  0.14511321832E+03  0.22598066523E+03  0.79493411104E+02 0.  0.
          5    1    3    3  501    0 -0.24058045796E+02 -0.86737856140E+02  0.12678993076E+03  0.15556356192E+03  0.47000000000E+01 0. -1.
        -13    1    4    4    0    0  0.73231157108E+01  0.66557986967E+01  0.32519470432E+01  0.10416469631E+02  0.00000000000E+00 0.  1.
         14    1    4    4    0    0 -0.15375406895E+03 -0.67272087501E+02  0.72481345736E+02  0.18280971789E+03  0.00000000000E+00 0. -1.
         -5    1    5    5    0  503  0.29663152278E+02  0.85238982510E+02 -0.76851261975E+01  0.90701366621E+02  0.47000000000E+01 0.  1.
         11    1    6    6    0    0  0.36754001567E+02  0.55043379313E+02  0.76345190577E+02  0.10104067677E+03  0.00000000000E+00 0. -1.
        -12    1    6    6    0    0  0.10407184520E+03  0.70717831222E+01  0.68768027738E+02  0.12493998847E+03  0.00000000000E+00 0.  1.
</event>
<event>
12    1  0.9028446E-003  0.1858231E+03  0.7818608E-02  0.1162743E+00
         21   -1    0    0  501  502  0.00000000000E+00  0.00000000000E+00  0.28847276424E+03  0.28847276424E+03  0.00000000000E+00 0. -1.
         21   -1    0    0  502  503 -0.00000000000E+00 -0.00000000000E+00 -0.11843893460E+03  0.11843893460E+03  0.00000000000E+00 0. -1.
          6    2    1    2  501    0 -0.85482178602E+00 -0.68421157688E+02  0.84225323493E+02  0.20401996461E+03  0.17276589739E+03 0.  0.
         24    2    3    3    0    0  0.37228661900E+02 -0.32306660100E+02  0.11092047503E+03  0.14494941542E+03  0.79229336091E+02 0.  0.
         -6    2    1    2    0  503  0.85482178602E+00  0.68421157688E+02  0.85808506140E+02  0.20289173423E+03  0.17064515977E+03 0.  0.
        -24    2    5    5    0    0  0.61859524998E+02  0.60953320684E+02  0.74015726195E+02  0.14013424813E+03  0.81347228828E+02 0.  0.
          5    1    3    3  501    0 -0.38083483686E+02 -0.36114497588E+02 -0.26695151536E+02  0.59070549186E+02  0.47000000000E+01 0. -1.
        -13    1    4    4    0    0 -0.14699315432E+02  0.14657730586E+02  0.12723793421E+02  0.24347769079E+02  0.00000000000E+00 0.  1.
         14    1    4    4    0    0  0.51927977331E+02 -0.46964390686E+02  0.98196681608E+02  0.12060164634E+03  0.00000000000E+00 0. -1.
         -5    1    5    5    0  503 -0.61004703212E+02  0.74678370035E+01  0.11792779945E+02  0.62757486105E+02  0.47000000000E+01 0.  1.
         11    1    6    6    0    0  0.29628355516E+02  0.17136991820E+02  0.78418036561E+02  0.85562283731E+02  0.00000000000E+00 0. -1.
        -12    1    6    6    0    0  0.32231169482E+02  0.43816328864E+02 -0.44023103657E+01  0.54571964394E+02  0.00000000000E+00 0.  1.
</event>
<event>
12    1  0.9028446E-003  0.2211412E+03  0.7818608E-02  0.1133346E+00
         21   -1    0    0  501  502  0.00000000000E+00  0.00000000000E+00  0.88132414758E+03  0.88132414758E+03  0.00000000000E+00 0.  1.
         21   -1    0    0  502  503 -0.00000000000E+00 -0.00000000000E+00 -0.60943689575E+02  0.60943689575E+02  0.00000000000E+00 0. -1.
          6    2    1    2  501    0  0.11767398421E+03 -0.72909865524E+02  0.55504904428E+03  0.59686346833E+03  0.17030426658E+03 0.  0.
         24    2    3    3    0    0  0.37172231696E+02 -0.74950530446E+02  0.44620890459E+03  0.46139036222E+03  0.82336644259E+02 0.  0.
         -6    2    1    2    0  503 -0.11767398421E+03  0.72909865524E+02  0.26533141373E+03  0.34540436883E+03  0.17245406300E+03 0.  0.
        -24    2    5    5    0    0 -0.44454353648E+02  0.52045005818E+02  0.24339987831E+03  0.26603473411E+03  0.82741203773E+02 0.  0.
          5    1    3    3  501    0  0.80501752515E+02  0.20406649226E+01  0.10884013969E+03  0.13547310611E+03  0.47000000000E+01 0. -1.
        -13    1    4    4    0    0  0.63110531529E+02 -0.53608602926E+02  0.34296269624E+03  0.35281756265E+03  0.00000000000E+00 0.  1.
         14    1    4    4    0    0 -0.25938299833E+02 -0.21341927521E+02  0.10324620835E+03  0.10857279957E+03  0.00000000000E+00 0. -1.
         -5    1    5    5    0  503 -0.73219630563E+02  0.20864859705E+02  0.21931535419E+02  0.79369634723E+02  0.47000000000E+01 0.  1.
         13    1    6    6    0    0 -0.44363427846E+02 -0.96832965403E+01  0.11214169553E+03  0.12098611423E+03  0.00000000000E+00 0. -1.
        -14    1    6    6    0    0 -0.90925802710E-01  0.61728302359E+02  0.13125818279E+03  0.14504861988E+03  0.00000000000E+00 0.  1.
</event>
<event>
12    1  0.9028446E-003  0.2549110E+03  0.7818608E-02  0.1110587E+00
         21   -1    0    0  503  502  0.00000000000E+00  0.00000000000E+00  0.28659832816E+03  0.28659832816E+03  0.00000000000E+00 0.  1.
         21   -1    0    0  501  503 -0.00000000000E+00 -0.00000000000E+00 -0.22785029747E+03  0.22785029747E+03  0.00000000000E+00 0.  1.
          6    2    1    2  501    0  0.10827691199E+03  0.14882945098E+03 -0.81804935376E+00  0.25267055497E+03  0.17311165470E+03 0.  0.
         24    2    3    3    0    0  0.11294267390E+03  0.17590676698E+03  0.10526945236E+02  0.22257488620E+03  0.75693626770E+02 0.  0.
         -6    2    1    2    0  502 -0.10827691199E+03 -0.14882945098E+03  0.59566080049E+02  0.26177807066E+03  0.17636764226E+03 0.  0.
        -24    2    5    5    0    0 -0.14710616067E+03 -0.12502698443E+03  0.47504373787E+02  0.21442996907E+03  0.80321707918E+02 0.  0.
          5    1    3    3  501    0 -0.46657619101E+01 -0.27077316005E+02 -0.11344994589E+02  0.30095668766E+02  0.47000000000E+01 0. -1.
        -11    1    4    4    0    0  0.74212327440E+02  0.14963956067E+03 -0.17630832832E+02  0.16795926270E+03  0.00000000000E+00 0.  1.
         12    1    4    4    0    0  0.38730346463E+02  0.26267206315E+02  0.28157778067E+02  0.54615623501E+02  0.00000000000E+00 0. -1.
         -5    1    5    5    0  502  0.38829248675E+02 -0.23802466545E+02  0.12061706262E+02  0.47348101591E+02  0.47000000000E+01 0.  1.
         11    1    6    6    0    0  0.19707958941E+01 -0.17087292586E+02 -0.12029296326E+02  0.20989606344E+02  0.00000000000E+00 0. -1.
        -12    1    6    6    0    0 -0.14907695656E+03 -0.10793969185E+03  0.59533670113E+02  0.19344036273E+03  0.00000000000E+00 0.  1.
</event>
<event>
12    1  0.9028446E-003  0.2809269E+03  0.7818608E-02  0.1095201E+00
         21   -1    0    0  501  502  0.00000000000E+00  0.00000000000E+00  0.42595826285E+03  0.42595826285E+03  0.00000000000E+00 0. -1.
         21   -1    0    0  502  503 -0.00000000000E+00 -0.00000000000E+00 -0.18895806833E+03  0.18895806833E+03  0.00000000000E+00 0. -1.
          6    2    1    2  501    0 -0.14244684943E+03 -0.17133597336E+03  0.16192324454E+03  0.32425150752E+03  0.17109290554E+03 0.  0.
         24    2    3    3    0    0 -0.84306082551E+02 -0.27350868083E+02  0.10386440249E+03  0.15840525807E+03  0.80304583561E+02 0.  0.
         -6    2    1    2    0  503  0.14244684943E+03  0.17133597336E+03  0.75076949987E+02  0.29066482366E+03  0.17088701124E+03 0.  0.
        -24    2    5    5    0    0  0.10454115192E+03  0.35327604448E+02  0.54427396541E+02  0.14789363477E+03  0.82056648908E+02 0.  0.
          5    1    3    3  501    0 -0.58140766882E+02 -0.14398510528E+03  0.58058842047E+02  0.16584624945E+03  0.47000000000E+01 0. -1.
        -13    1    4    4    0    0 -0.11298923547E+02 -0.10099222465E+02  0.77379506521E+02  0.78849527564E+02  0.00000000000E+00 0.  1.
         14    1    4    4    0    0 -0.73007159004E+02 -0.17251645618E+02  0.26484895968E+02  0.79555730509E+02  0.00000000000E+00 0. -1.
         -5    1    5    5    0  503  0.37905697513E+02  0.13600836892E+03  0.20649553446E+02  0.14277118889E+03  0.47000000000E+01 0.  1.
         11    1    6    6    0    0  0.39398412935E+02 -0.10725053195E+02 -0.13613194180E+02  0.43041616647E+02  0.00000000000E+00 0. -1.
        -12    1    6    6    0    0  0.65142738986E+02  0.46052657643E+02  0.68040590721E+02  0.10485201812E+03  0.00000000000E+00 0.  1.
</event>
<event>
12    1  0.9028446E-003  0.3127810E+03  0.7818608E-02  0.1079196E+00
         21   -1    0    0  501  502  0.00000000000E+00  0.00000000000E+00  0.30019153963E+03  0.30019153963E+03  0.00000000000E+00 0. -1.
         21   -1    0    0  502  503 -0.00000000000E+00 -0.00000000000E+00 -0.33879800693E+03  0.33879800693E+03  0.00000000000E+00 0.  1.
          6    2    1    2  501    0  0.25743126879E+03  0.78629251411E+01  0.46695806564E+02  0.31478527278E+03  0.17486161918E+03 0.  0.
         24    2    3    3    0    0  0.17209065568E+03  0.69157378748E+02  0.43160904675E+01  0.20139144303E+03  0.78370580448E+02 0.  0.
         -6    2    1    2    0  503 -0.25743126879E+03 -0.78629251411E+01 -0.85302273867E+02  0.32420427378E+03  0.17748027909E+03 0.  0.
        -24    2    5    5    0    0 -0.24255326901E+03 -0.16602481930E+02 -0.12195316108E+03  0.28342300034E+03  0.79676175293E+02 0.  0.
          5    1    3    3  501    0  0.85340613112E+02 -0.61294453607E+02  0.42379716097E+02  0.11339382975E+03  0.47000000000E+01 0. -1.
        -13    1    4    4    0    0  0.41530643298E+02  0.30343614079E+02 -0.31807757528E+02  0.60475306424E+02  0.00000000000E+00 0.  1.
         14    1    4    4    0    0  0.13056001238E+03  0.38813764669E+02  0.36123847996E+02  0.14091613660E+03  0.00000000000E+00 0. -1.
         -5    1    5    5    0  503 -0.14877999783E+02  0.87395567892E+01  0.36650887210E+02  0.40781273444E+02  0.47000000000E+01 0.  1.
         13    1    6    6    0    0 -0.10510466317E+03  0.24041853264E+02 -0.25912911583E+02  0.11088949416E+03  0.00000000000E+00 0. -1.
        -14    1    6    6    0    0 -0.13744860584E+03 -0.40644335194E+02 -0.96040249494E+02  0.17253350618E+03  0.00000000000E+00 0.  1.
</event>
<event>
12    1  0.9028446E-003  0.1814113E+03  0.7818608E-02  0.1167080E+00
         21   -1    0    0  501  502  0.00000000000E+00  0.00000000000E+00  0.70131642884E+02  0.70131642884E+02  0.00000000000E+00 0.  1.
         21   -1    0    0  502  503 -0.00000000000E+00 -0.00000000000E+00 -0.54915919998E+03  0.54915919998E+03  0.00000000000E+00 0.  1.
          6    2    1    2  501    0 -0.38489383423E+02  0.32320590036E+02 -0.36401205338E+03  0.40671221099E+03  0.17431005246E+03 0.  0.
         24    2    3    3    0    0 -0.58205256354E+02  0.23566236985E+02 -0.10286457911E+03  0.14463312434E+03  0.79964990019E+02 0.  0.
         -6    2    1    2    0  503  0.38489383423E+02 -0.32320590036E+02 -0.11501550372E+03  0.21257863187E+03  0.17156647533E+03 0.  0.
        -24    2    5    5    0    0  0.11915211908E+02 -0.25936642857E+02  0.95504138003E+01  0.84963197145E+02  0.79453462780E+02 0.  0.
          5    1    3    3  501    0  0.19715872930E+02  0.87543530509E+01 -0.26114747427E+03  0.26207908665E+03  0.47000000000E+01 0. -1.
        -13    1    4    4    0    0 -0.41355256920E+02  0.14310890408E+01 -0.10861121956E+03  0.11622694311E+03  0.00000000000E+00 0.  1.
         14    1    4    4    0    0 -0.16849999434E+02  0.22135147944E+02  0.57466404534E+01  0.28406181228E+02  0.00000000000E+00 0. -1.
         -5    1    5    5    0  503  0.26574171515E+02 -0.63839471788E+01 -0.12456591752E+03  0.12761543473E+03  0.47000000000E+01 0.  1.
         13    1    6    6    0    0  0.27803921794E+02 -0.10499605426E+02 -0.28343560270E+02  0.41068932175E+02  0.00000000000E+00 0. -1.
        -14    1    6    6    0    0 -0.15888709885E+02 -0.15437037431E+02  0.37893974070E+02  0.43894264970E+02  0.00000000000E+00 0.  1.
</event>
<event>
12    1  0.9028446E-003  0.2125781E+03  0.7818608E-02  0.1140584E+00
         21   -1    0    0  503  502  0.00000000000E+00  0.00000000000E+00  0.18053845338E+04  0.18053845338E+04  0.00000000000E+00 0. -1.
         21   -1    0    0  501  503 -0.00000000000E+00 -0.00000000000E+00 -0.26467376530E+02  0.26467376530E+02  0.00000000000E+00 0. -1.
          6    2    1    2  501    0 -0.10022389309E+03  0.67478935533E+02  0.11549938091E+04  0.11743935247E+04  0.17490344828E+03 0.  0.
         24    2    3    3    0    0 -0.12265666938E+03  0.95306257051E+02  0.10135664788E+04  0.10284436393E+04  0.79065612890E+02 0.  0.
         -6    2    1    2    0  502  0.10022389309E+03 -0.67478935533E+02  0.62392334814E+03  0.65745838564E+03  0.16844271729E+03 0.  0.
        -24    2    5    5    0    0  0.12345670550E+03 -0.91002488382E+02  0.51670295259E+03  0.54515778754E+03  0.81805018657E+02 0.  0.
          5    1    3    3  501    0  0.22432776285E+02 -0.27827321518E+02  0.14142733038E+03  0.14594988542E+03  0.47000000000E+01 0. -1.
        -11    1    4    4    0    0  0.87296255607E+00  0.30258818901E+02  0.10735548126E+03  0.11154173004E+03  0.00000000000E+00 0.  1.
         12    1    4    4    0    0 -0.12352963193E+03  0.65047438150E+02  0.90621099749E+03  0.91690190923E+03  0.00000000000E+00 0. -1.
         -5    1    5    5    0  502 -0.23232812411E+02  0.23523552848E+02  0.10722039555E+03  0.11230059810E+03  0.47000000000E+01 0.  1.
         11    1    6    6    0    0  0.23390197529E+02 -0.94543790782E+01  0.20704902300E+02  0.32637089384E+02  0.00000000000E+00 0. -1.
        -12    1    6    6    0    0  0.10006650797E+03 -0.81548109304E+02  0.49599805029E+03  0.51252069816E+03  0.00000000000E+00 0.  1.
</event>
<event>
12    1  0.9028446E-003  0.1894424E+03  0.7818608E-02  0.1159022E+00
         21   -1    0    0  503  502  0.00000000000E+00  0.00000000000E+00  0.80331612457E+03  0.80331612457E+03  0.00000000000E+00 0. -1.
         21   -1    0    0  501  503 -0.00000000000E+00 -0.00000000000E+00 -0.50163979125E+02  0.50163979125E+02  0.00000000000E+00 0. -1.
          6    2    1    2  501    0  0.39923791662E+02 -0.67655113129E+02  0.23488606331E+03  0.30176133021E+03  0.17238710566E+03 0.  0.
         24    2    3    3    0    0  0.66181701541E+02 -0.35601571539E+02  0.23628828609E+03  0.26003647445E+03  0.78353840923E+02 0.  0.
         -6    2    1    2    0  502 -0.39923791662E+02  0.67655113129E+02  0.51826608213E+03  0.55171877348E+03  0.17211260749E+03 0.  0.
        -24    2    5    5    0    0 -0.47850115735E+02  0.25338978227E+01  0.43765826385E+03  0.44768363681E+03  0.81116142238E+02 0.  0.
          5    1    3    3  501    0 -0.26257909879E+02 -0.32053541590E+02 -0.14022227716E+01  0.41724855762E+02  0.47000000000E+01 0. -1.
        -13    1    4    4    0    0  0.71148032302E+02 -0.83772685452E-02  0.13569152105E+03  0.15321302639E+03  0.00000000000E+00 0.  1.
         14    1    4    4    0    0 -0.49663307610E+01 -0.35593194270E+02  0.10059676503E+03  0.10682344806E+03  0.00000000000E+00 0. -1.
         -5    1    5    5    0  502  0.79263240729E+01  0.65121215306E+02  0.80607818278E+02  0.10403513668E+03  0.47000000000E+01 0.  1.
         11    1    6    6    0    0 -0.52834742501E+02  0.28160459309E+02  0.37583926994E+03  0.38057808439E+03  0.00000000000E+00 0. -1.
        -12    1    6    6    0    0  0.49846267658E+01 -0.25626561487E+02  0.61818993909E+02  0.67105552420E+02  0.00000000000E+00 0.  1.
</event>
<event>
12    1  0.9028446E-003  0.1956605E+03  0.7818608E-02  0.1153766E+00
         21   -1    0    0  501  502  0.00000000000E+00  0.00000000000E+00  0.41182460892E+03  0.41182460892E+03  0.00000000000E+00 0.  1.
         21   -1    0    0  502  503 -0.00000000000E+00 -0.00000000000E+00 -0.92893173253E+02  0.92893173253E+02  0.00000000000E+00 0.  1.
          6    2    1    2  501    0  0.68420022058E+02  0.57000066691E+02  0.13952415887E+03  0.24031237723E+03  0.17422037976E+03 0.  0.
         24    2    3    3    0    0  0.91752943508E+02 -0.13607790369E+02  0.86746294755E+02  0.14900253306E+03  0.77929844121E+02 0.  0.
         -6    2    1    2    0  503 -0.68420022058E+02 -0.57000066691E+02  0.17940727680E+03  0.26440540493E+03  0.17260631555E+03 0.  0.
        -24    2    5    5    0    0 -0.97854411850E+02 -0.85452798346E+02  0.15196713284E+03  0.21489790306E+03  0.78799953135E+02 0.  0.
          5    1    3    3  501    0 -0.23332921450E+02  0.70607857060E+02  0.52777864111E+02  0.91309844169E+02  0.47000000000E+01 0. -1.
        -13    1    4    4    0    0  0.10014628806E+03  0.43887259862E+01  0.79219073775E+02  0.12776619889E+03  0.00000000000E+00 0.  1.
         14    1    4    4    0    0 -0.83933445512E+01 -0.17996516355E+02  0.75272209797E+01  0.21236334179E+02  0.00000000000E+00 0. -1.
         -5    1    5    5    0  503  0.29434389792E+02  0.28452731655E+02  0.27440143961E+02  0.49507501873E+02  0.47000000000E+01 0.  1.
         13    1    6    6    0    0  0.12640949380E+02 -0.43888848567E+01  0.23574633048E+02  0.27107549407E+02  0.00000000000E+00 0. -1.
        -14    1    6    6    0    0 -0.11049536123E+03 -0.81063913490E+02  0.12839249979E+03  0.18779035365E+03  0.00000000000E+00 0.  1.
</event>
<event>
12    1  0.9028446E-003  0.1794862E+03  0.7818608E-02  0.1168441E+00
         21   -1    0    0  503  502  0.00000000000E+00  0.00000000000E+00  0.31540064811E+02  0.31540064811E+02  0.00000000000E+00 0.  1.
         21   -1    0    0  501  503 -0.00000000000E+00 -0.00000000000E+00 -0.10182874100E+04  0.10182874100E+04  0.00000000000E+00 0.  1.
          6    2    1    2  501    0 -0.47839921256E+02 -0.22277188729E+02 -0.48615034215E+03  0.51802615080E+03  0.17095030427E+03 0.  0.
         24    2    3    3    0    0  0.11130096220E+02  0.43582675166E+02 -0.23552736903E+03  0.25222745010E+03  0.78244593471E+02 0.  0.
         -6    2    1    2    0  502  0.47839921256E+02  0.22277188729E+02 -0.50059700301E+03  0.53180132398E+03  0.17155278362E+03 0.  0.
        -24    2    5    5    0    0 -0.13683602908E+02  0.46845722753E+02 -0.16126081670E+03  0.18602698395E+03  0.78862063285E+02 0.  0.
          5    1    3    3  501    0 -0.58970017476E+02 -0.65859863895E+02 -0.25062297312E+03  0.26579870069E+03  0.47000000000E+01 0. -1.
        -11    1    4    4    0    0 -0.17084446820E+02  0.77596050764E+01 -0.83836598484E+01  0.20551777211E+02  0.00000000000E+00 0.  1.
         12    1    4    4    0    0  0.28214543040E+02  0.35823070090E+02 -0.22714370918E+03  0.23167567289E+03  0.00000000000E+00 0. -1.
         -5    1    5    5    0  502  0.61523524164E+02 -0.24568534024E+02 -0.33933618630E+03  0.34577434003E+03  0.47000000000E+01 0.  1.
         11    1    6    6    0    0 -0.44354028674E+02  0.35416622823E+02 -0.77209043372E+02  0.95827206003E+02  0.00000000000E+00 0. -1.
        -12    1    6    6    0    0  0.30670425767E+02  0.11429099930E+02 -0.84051773333E+02  0.90199777950E+02  0.00000000000E+00 0.  1.
</event>
<event>
12    1  0.9028446E-003  0.2153645E+03  0.7818608E-02  0.1137560E+00
         21   -1    0    0  503  502  0.00000000000E+00  0.00000000000E+00  0.15132532249E+03  0.15132532249E+03  0.00000000000E+00 0. -1.
         21   -1    0    0  501  503 -0.00000000000E+00 -0.00000000000E+00 -0.33315952352E+03  0.33315952352E+03  0.00000000000E+00 0. -1.
          6    2    1    2  501    0  0.12365368624E+03 -0.34943162492E+02 -0.20597637839E+02  0.21545121603E+03  0.17170819747E+03 0.  0.
         24    2    3    3    0    0  0.10421804855E+02  0.16959082524E+02 -0.34775733046E+02  0.89998394688E+02  0.80586195722E+02 0.  0.
         -6    2    1    2    0  502 -0.12365368624E+03  0.34943162492E+02 -0.16123656319E+03  0.26903362998E+03  0.17283114888E+03 0.  0.
        -24    2    5    5    0    0 -0.15416199515E+03  0.23202345855E+02 -0.10534801593E+03  0.20411657981E+03  0.79127138786E+02 0.  0.
          5    1    3    3  501    0  0.11323188138E+03 -0.51902245017E+02  0.14178095207E+02  0.12545282134E+03  0.47000000000E+01 0. -1.
        -13    1    4    4    0    0  0.14643584638E+02  0.46753489355E+02 -0.78487549550E+01  0.49617802171E+02  0.00000000000E+00 0.  1.
         14    1    4    4    0    0 -0.42217797826E+01 -0.29794406830E+02 -0.26926978091E+02  0.40380592517E+02  0.00000000000E+00 0. -1.
         -5    1    5    5    0  502  0.30508308908E+02  0.11740816637E+02 -0.55888547262E+02  0.64917050170E+02  0.47000000000E+01 0.  1.
         11    1    6    6    0    0 -0.12997099902E+03  0.21462376216E+02 -0.11791857038E+03  0.17679899157E+03  0.00000000000E+00 0. -1.
        -12    1    6    6    0    0 -0.24190996127E+02  0.17399696398E+01  0.12570554454E+02  0.27317588240E+02  0.00000000000E+00 0.  1.
</event>
<event>
12    1  0.9028446E-003  0.1765672E+03  0.7818608E-02  0.1171601E+00
         21   -1    0    0  501  502  0.00000000000E+00  0.00000000000E+00  0.19936098757E+03  0.19936098757E+03  0.00000000000E+00 0. -1.
         21   -1    0    0  502  503 -0.00000000000E+00 -0.00000000000E+00 -0.22714059756E+03  0.22714059756E+03  0.00000000000E+00 0. -1.
          6    2    1    2  501    0  0.12398896333E+02 -0.44457664972E+02  0.10646535482E+03  0.20469606955E+03  0.16862797071E+03 0.  0.
         24    2    3    3    0    0 -0.10269302970E+02  0.32172378558E+02  0.23853962083E+02  0.89662409075E+02  0.79560138063E+02 0.  0.
         -6    2    1    2    0  503 -0.12398896333E+02  0.44457664972E+02 -0.13424496481E+03  0.22180551559E+03  0.17042816540E+03 0.  0.
        -24    2    5    5    0    0  0.40119473594E+02  0.70310448023E+02 -0.11273306534E+03  0.15926435002E+03  0.78123350567E+02 0.  0.
          5    1    3    3  501    0  0.22668199303E+02 -0.76630043530E+02  0.82611392739E+02  0.11503366047E+03  0.47000000000E+01 0. -1.
        -11    1    4    4    0    0  0.28084824617E+02  0.21441252031E+01  0.29306357852E+02  0.40647475411E+02  0.00000000000E+00 0.  1.
         12    1    4    4    0    0 -0.38354127588E+02  0.30028253355E+02 -0.54523957692E+01  0.49014933665E+02  0.00000000000E+00 0. -1.
         -5    1    5    5    0  503 -0.52518369927E+02 -0.25852783051E+02 -0.21511899469E+02  0.62541165564E+02  0.47000000000E+01 0.  1.
         13    1    6    6    0    0  0.33766538198E+02 -0.24143158155E+01 -0.61089674617E+02  0.69842367998E+02  0.00000000000E+00 0. -1.
        -14    1    6    6    0    0  0.63529353965E+01  0.72724763839E+02 -0.51643390724E+02  0.89421982023E+02  0.00000000000E+00 0.  1.
</event>
<event>
12    1  0.9028446E-003  0.1725357E+03  0.7818608E-02  0.1175830E+00
         21   -1    0    0  501  502  0.00000000000E+00  0.00000000000E+00  0.13072542828E+03  0.13072542828E+03  0.00000000000E+00 0. -1.
         21   -1    0    0  502  503 -0.00000000000E+00 -0.00000000000E+00 -0.22645037851E+03  0.22645037851E+03  0.00000000000E+00 0. -1.
          6    2    1    2  501    0 -0.61867728933E+00 -0.11843936359E+02 -0.63461545954E+02  0.18164948057E+03  0.16978958857E+03 0.  0.
         24    2    3    3    0    0  0.50372705631E+02  0.10889634374E+02 -0.79609214667E+02  0.12334190323E+03  0.78864468703E+02 0.  0.
         -6    2    1    2    0  503  0.61867728933E+00  0.11843936359E+02 -0.32263404278E+02  0.17552632622E+03  0.17212757580E+03 0.  0.
        -24    2    5    5    0    0  0.87303302775E+00  0.95814810689E+01 -0.88444210801E+02  0.11910331298E+03  0.79187459696E+02 0.  0.
          5    1    3    3  501    0 -0.50991382921E+02 -0.22733570734E+02  0.16147668714E+02  0.58307577341E+02  0.47000000000E+01 0. -1.
        -13    1    4    4    0    0  0.48774075125E+02  0.40813488567E+02 -0.60652694499E+02  0.87882880035E+02  0.00000000000E+00 0.  1.
         14    1    4    4    0    0  0.15986305070E+01 -0.29923854193E+02 -0.18956520168E+02  0.35459023198E+02  0.00000000000E+00 0. -1.
         -5    1    5    5    0  503 -0.25435573842E+00  0.22624552906E+01  0.56180806523E+02  0.56423013234E+02  0.47000000000E+01 0.  1.
         13    1    6    6    0    0  0.29772100193E+02 -0.33614744853E+01 -0.56886244830E+01  0.30496522902E+02  0.00000000000E+00 0. -1.
        -14    1    6    6    0    0 -0.28899067165E+02  0.12942955554E+02 -0.82755586318E+02  0.88606790081E+02  0.00000000000E+00 0.  1.
</event>
<event>
12    1  0.9028446E-003  0.2674661E+03  0.7818608E-02  0.1103173E+00
         21   -1    0    0  501  502  0.00000000000E+00  0.00000000000E+00  0.34897751895E+02  0.34897751895E+02  0.00000000000E+00 0. -1.
         21   -1    0    0  502  503 -0.00000000000E+00 -0.00000000000E+00 -0.20293118246E+04  0.20293118246E+04  0.00000000000E+00 0. -1.
          6    2    1    2  501    0  0.20283121109E+03 -0.31108314708E+02 -0.96919913168E+03  0.10054278001E+04  0.17155138248E+03 0.  0.
         24    2    3    3    0    0  0.12157044347E+03  0.16308187255E+02 -0.78455671007E+03  0.79814405522E+03  0.80370217560E+02 0.  0.
         -6    2    1    2    0  503 -0.20283121109E+03  0.31108314708E+02 -0.10252149411E+04  0.10587817765E+04  0.16686805384E+03 0.  0.
        -24    2    5    5    0    0 -0.22229267370E+03  0.15711873289E+02 -0.86945058368E+03  0.90098309472E+03  0.78519575663E+02 0.  0.
          5    1    3    3  501    0  0.81260767624E+02 -0.47416501963E+02 -0.18464242161E+03  0.20728374483E+03  0.47000000000E+01 0. -1.
        -13    1    4    4    0    0  0.12321102116E+03  0.16408439945E+02 -0.56201428176E+03  0.57559555726E+03  0.00000000000E+00 0.  1.
         14    1    4    4    0    0 -0.16405776900E+01 -0.10025269021E+00 -0.22254242831E+03  0.22254849796E+03  0.00000000000E+00 0. -1.
         -5    1    5    5    0  503  0.19461462610E+02  0.15396441419E+02 -0.15576435737E+03  0.15779868175E+03  0.47000000000E+01 0.  1.
         13    1    6    6    0    0 -0.11613784652E+03 -0.17047845763E+02 -0.56065665655E+03  0.57281280972E+03  0.00000000000E+00 0. -1.
        -14    1    6    6    0    0 -0.10615482719E+03  0.32759719052E+02 -0.30879392713E+03  0.32817028500E+03  0.00000000000E+00 0.  1.
</event>
<event>
12    1  0.9028446E-003  0.1934277E+03  0.7818608E-02  0.1155839E+00
         21   -1    0    0  501  502  0.00000000000E+00  0.00000000000E+00  0.19916767733E+03  0.19916767733E+03  0.00000000000E+00 0. -1.
         21   -1    0    0  502  503 -0.00000000000E+00 -0.00000000000E+00 -0.18810648424E+03  0.18810648424E+03  0.00000000000E+00 0. -1.
          6    2    1    2  501    0  0.83772499999E+02 -0.47448944782E+01  0.26197822238E+02  0.19325512532E+03  0.17210715206E+03 0.  0.
         24    2    3    3    0    0  0.73577538095E+02 -0.64061434867E+02 -0.18186648610E+01  0.12670136688E+03  0.80823309010E+02 0.  0.
         -6    2    1    2    0  503 -0.83772499999E+02  0.47448944782E+01 -0.15136629151E+02  0.19401903625E+03  0.17428116108E+03 0.  0.
        -24    2    5    5    0    0 -0.16653446654E+01  0.14048580385E+02  0.43986008626E+02  0.92305124589E+02  0.79908266699E+02 0.  0.
          5    1    3    3  501    0  0.10194961903E+02  0.59316540389E+02  0.28016487099E+02  0.66553758431E+02  0.47000000000E+01 0. -1.
        -13    1    4    4    0    0  0.46807497103E+02  0.79209572490E+00 -0.24664555710E+02  0.52914171155E+02  0.00000000000E+00 0.  1.
         14    1    4    4    0    0  0.26770040993E+02 -0.64853530592E+02  0.22845890849E+02  0.73787195730E+02  0.00000000000E+00 0. -1.
         -5    1    5    5    0  503 -0.82107155333E+02 -0.93036859063E+01 -0.59122637777E+02  0.10171391166E+03  0.47000000000E+01 0.  1.
         11    1    6    6    0    0 -0.21567657693E+02  0.27404660708E+02 -0.73585355781E+01  0.35641651655E+02  0.00000000000E+00 0. -1.
        -12    1    6    6    0    0  0.19902313028E+02 -0.13356080323E+02  0.51344544204E+02  0.56663472934E+02  0.00000000000E+00 0.  1.
</event>
<event>
12    1  0.9028446E-003  0.2119014E+03  0.7818608E-02  0.1140534E+00
         21   -1    0    0  501  502  0.00000000000E+00  0.00000000000E+00  0.29697864349E+03  0.29697864349E+03  0.00000000000E+00 0. -1.
         21   -1    0    0  502  503 -0.00000000000E+00 -0.00000000000E+00 -0.15939211021E+03  0.15939211021E+03  0.00000000000E+00 0.  1.
          6    2    1    2  501    0  0.12044523745E+03 -0.19648733675E+02  0.12360866520E+02  0.21226162774E+03  0.17323128941E+03 0.  0.
         24    2    3    3    0    0  0.69292111297E+01 -0.98803966261E+01  0.46662716539E+02  0.93181757251E+02  0.79748320140E+02 0.  0.
         -6    2    1    2    0  503 -0.12044523745E+03  0.19648733675E+02  0.12522566676E+03  0.24410912596E+03  0.17033693024E+03 0.  0.
        -24    2    5    5    0    0 -0.11858027556E+03  0.69350949126E+02  0.93666847836E+02  0.18501735534E+03  0.81160997389E+02 0.  0.
          5    1    3    3  501    0  0.11351602632E+03 -0.97683370493E+01 -0.34301850019E+02  0.11907987049E+03  0.47000000000E+01 0. -1.
        -13    1    4    4    0    0  0.96565329993E+01  0.28591370972E+02 -0.29717427821E+01  0.30324023130E+02  0.00000000000E+00 0.  1.
         14    1    4    4    0    0 -0.27273218696E+01 -0.38471767598E+02  0.49634459321E+02  0.62857734121E+02  0.00000000000E+00 0. -1.
         -5    1    5    5    0  503 -0.18649618958E+01 -0.49702215451E+02  0.31558818924E+02  0.59091770624E+02  0.47000000000E+01 0.  1.
         11    1    6    6    0    0 -0.54156267915E+02  0.13451852464E+02  0.81626170454E+02  0.98877122694E+02  0.00000000000E+00 0. -1.
        -12    1    6    6    0    0 -0.64424007643E+02  0.55899096663E+02  0.12040677382E+02  0.86140232646E+02  0.00000000000E+00 0.  1.
</event>
<event>
12    1  0.9028446E-003  0.1946194E+03  0.7818608E-02  0.1155252E+00
         21   -1    0    0  503  502  0.00000000000E+00  0.00000000000E+00  0.18938048716E+03  0.18938048716E+03  0.00000000000E+00 0.  1.
         21   -1    0    0  501  503 -0.00000000000E+00 -0.00000000000E+00 -0.21100162516E+03  0.21100162516E+03  0.00000000000E+00 0.  1.
          6    2    1    2  501    0 -0.40308169134E+02 -0.72206501717E+02 -0.64299718777E+02  0.20113813851E+03  0.17170780279E+03 0.  0.
         24    2    3    3    0    0 -0.55784284743E+02  0.16708065085E+02 -0.20410875603E+02  0.10067107475E+03  0.79542539475E+02 0.  0.
         -6    2    1    2    0  502  0.40308169134E+02  0.72206501717E+02  0.42678580777E+02  0.19924397382E+03  0.17617653776E+03 0.  0.
        -24    2    5    5    0    0 -0.16779715951E+02  0.58822903933E+02  0.81156045656E+02  0.12895348643E+03  0.79378870126E+02 0.  0.
          5    1    3    3  501    0  0.15476115609E+02 -0.88914566802E+02 -0.43888843174E+02  0.10046706375E+03  0.47000000000E+01 0. -1.
        -13    1    4    4    0    0 -0.37521202198E+02 -0.60062671522E+01  0.25875761957E+02  0.45972501741E+02  0.00000000000E+00 0.  1.
         14    1    4    4    0    0 -0.18263082545E+02  0.22714332238E+02 -0.46286637560E+02  0.54698573012E+02  0.00000000000E+00 0. -1.
         -5    1    5    5    0  502  0.57087885084E+02  0.13383597784E+02 -0.38477464878E+02  0.70290487383E+02  0.47000000000E+01 0.  1.
         11    1    6    6    0    0  0.96655768089E+01  0.38762635132E+02  0.86550113882E+02  0.95325167036E+02  0.00000000000E+00 0. -1.
        -12    1    6    6    0    0 -0.26445292759E+02  0.20060268801E+02 -0.53940682266E+01  0.33628319398E+02  0.00000000000E+00 0.  1.
</event>
<event>
12    1  0.9028446E-003  0.2057711E+03  0.7818608E-02  0.1145238E+00
         21   -1    0    0  501  502  0.00000000000E+00  0.00000000000E+00  0.12963591151E+04  0.12963591151E+04  0.00000000000E+00 0.  1.
         21   -1    0    0  502  503 -0.00000000000E+00 -0.00000000000E+00 -0.32492064522E+02  0.32492064522E+02  0.00000000000E+00 0.  1.
          6    2    1    2  501    0 -0.60458708569E+02  0.95016673889E+02  0.65499396325E+03  0.68614735864E+03  0.17058042709E+03 0.  0.
         24    2    3    3    0    0  0.22140701137E+02  0.84783399523E+02  0.32238588793E+03  0.34325145000E+03  0.78806482661E+02 0.  0.
         -6    2    1    2    0  503  0.60458708569E+02 -0.95016673889E+02  0.60887308732E+03  0.64270382098E+03  0.17221597279E+03 0.  0.
        -24    2    5    5    0    0  0.40932522492E+02 -0.13240109657E+02  0.12116309238E+03  0.14777775825E+03  0.72849152219E+02 0.  0.
          5    1    3    3  501    0 -0.82599409707E+02  0.10233274367E+02  0.33260807533E+03  0.34289590864E+03  0.47000000000E+01 0. -1.
        -13    1    4    4    0    0  0.28795429579E+02  0.74581976622E+02  0.32121560285E+03  0.33101527384E+03  0.00000000000E+00 0.  1.
         14    1    4    4    0    0 -0.66547284417E+01  0.10201422901E+02  0.11702850795E+01  0.12236176159E+02  0.00000000000E+00 0. -1.
         -5    1    5    5    0  503  0.19526186077E+02 -0.81776564233E+02  0.48770999494E+03  0.49492606273E+03  0.47000000000E+01 0.  1.
         13    1    6    6    0    0 -0.89799949111E+01  0.17781371612E+02  0.10595600472E+02  0.22562895080E+02  0.00000000000E+00 0. -1.
        -14    1    6    6    0    0  0.49912517403E+02 -0.31021481269E+02  0.11056749190E+03  0.12521486317E+03  0.00000000000E+00 0.  1.
</event>
<event>
12    1  0.9028446E-003  0.2179634E+03  0.7818608E-02  0.1135606E+00
         21   -1    0    0  503  502  0.00000000000E+00  0.00000000000E+00  0.18179039227E+03  0.18179039227E+03  0.00000000000E+00 0. -1.
         21   -1    0    0  501  503 -0.00000000000E+00 -0.00000000000E+00 -0.38148418608E+03  0.38148418608E+03  0.00000000000E+00 0.  1.
          6    2    1    2  501    0  0.21231244632E+02  0.13100673803E+03 -0.25855477147E+03  0.33750333855E+03  0.17159371353E+03 0.  0.
         24    2    3    3    0    0 -0.67674486702E+01  0.97648639261E+02 -0.70234566760E+02  0.14415577823E+03  0.79164000135E+02 0.  0.
         -6    2    1    2    0  502 -0.21231244632E+02 -0.13100673803E+03  0.58860977656E+02  0.22577123980E+03  0.17290028014E+03 0.  0.
        -24    2    5    5    0    0 -0.88563519745E+01 -0.14729740140E+03  0.46021723092E+01  0.16759365272E+03  0.79318932248E+02 0.  0.
          5    1    3    3  501    0  0.27998693302E+02  0.33358098771E+02 -0.18832020471E+03  0.19334756032E+03  0.47000000000E+01 0. -1.
        -13    1    4    4    0    0 -0.42562313446E+02  0.42553440163E+02 -0.33848629386E+02  0.69051252754E+02  0.00000000000E+00 0.  1.
         14    1    4    4    0    0  0.35794864776E+02  0.55095199098E+02 -0.36385937374E+02  0.75104525473E+02  0.00000000000E+00 0. -1.
         -5    1    5    5    0  502 -0.12374892657E+02  0.16290663367E+02  0.54258805347E+02  0.58177587084E+02  0.47000000000E+01 0.  1.
         13    1    6    6    0    0 -0.54155682939E+00 -0.10041071214E+03  0.40179401215E+02  0.10815261753E+03  0.00000000000E+00 0. -1.
        -14    1    6    6    0    0 -0.83147951451E+01 -0.46886689255E+02 -0.35577228906E+02  0.59441035188E+02  0.00000000000E+00 0.  1.
</event>
<event>
12    1  0.9028446E-003  0.1862672E+03  0.7818608E-02  0.1162155E+00
         21   -1    0    0  503  502  0.00000000000E+00  0.00000000000E+00  0.16525232700E+04  0.16525232700E+04  0.00000000000E+00 0.  1.
         21   -1    0    0  501  503 -0.00000000000E+00 -0.00000000000E+00 -0.23034330106E+02  0.23034330106E+02  0.00000000000E+00 0.  1.
          6    2    1    2  501    0 -0.59728119496E+02 -0.33079182908E+02  0.55966509550E+03  0.58984786031E+03  0.17330262143E+03 0.  0.
         24    2    3    3    0    0 -0.10419296605E+03 -0.32152199536E+02  0.34161978236E+03  0.36726342586E+03  0.79299496639E+02 0.  0.
         -6    2    1    2    0  502  0.59728119496E+02  0.33079182908E+02  0.10698238444E+04  0.10857097398E+04  0.17199098943E+03 0.  0.
        -24    2    5    5    0    0  0.48843840519E+02  0.69702090430E+02  0.99293116537E+03  0.99971974636E+03  0.79266448937E+02 0.  0.
          5    1    3    3  501    0  0.44464846557E+02 -0.92698337262E+00  0.21804531314E+03  0.22258443445E+03  0.47000000000E+01 0. -1.
        -13    1    4    4    0    0 -0.64347095447E+02 -0.41178553133E+02  0.29741617400E+03  0.30707100561E+03  0.00000000000E+00 0.  1.
         14    1    4    4    0    0 -0.39845870606E+02  0.90263535967E+01  0.44203608356E+02  0.60192420248E+02  0.00000000000E+00 0. -1.
         -5    1    5    5    0  502  0.10884278978E+02 -0.36622907521E+02  0.76892679072E+02  0.85989993482E+02  0.47000000000E+01 0.  1.
         11    1    6    6    0    0  0.18671579937E+02  0.70584073529E+01  0.62246864505E+03  0.62278861830E+03  0.00000000000E+00 0. -1.
        -12    1    6    6    0    0  0.30172260582E+02  0.62643683077E+02  0.37046252033E+03  0.37693112806E+03  0.00000000000E+00 0.  1.
</event>
<event>
12    1  0.9028446E-003  0.1850150E+03  0.7818608E-02  0.1164495E+00
         21   -1    0    0  503  502  0.00000000000E+00  0.00000000000E+00  0.18259193223E+02  0.18259193223E+02  0.00000000000E+00 0. -1.
         21   -1    0    0  501  503 -0.00000000000E+00 -0.00000000000E+00 -0.18473402406E+04  0.18473402406E+04  0.00000000000E+00 0. -1.
          6    2    1    2  501    0  0.42621716308E+02 -0.43748634079E+02 -0.10265553058E+04  0.10420230129E+04  0.16812379331E+03 0.  0.
         24    2    3    3    0    0  0.12903013844E+01 -0.62149716518E+02 -0.92711745946E+03  0.93267558047E+03  0.80453108366E+02 0.  0.
         -6    2    1    2    0  502 -0.42621716308E+02  0.43748634079E+02 -0.80252574152E+03  0.82357642085E+03  0.17464249628E+03 0.  0.
        -24    2    5    5    0    0  0.87597848496E+01  0.75809989844E+02 -0.35597270638E+03  0.37291058857E+03  0.80757977895E+02 0.  0.
          5    1    3    3  501    0  0.41331414924E+02  0.18401082439E+02 -0.99437846386E+02  0.10934743247E+03  0.47000000000E+01 0. -1.
        -13    1    4    4    0    0  0.11695189926E+02  0.16658150534E+02 -0.12720715065E+03  0.12882519405E+03  0.00000000000E+00 0.  1.
         14    1    4    4    0    0 -0.10404888542E+02 -0.78807867052E+02 -0.79991030881E+03  0.80385038642E+03  0.00000000000E+00 0. -1.
         -5    1    5    5    0  502 -0.51381501158E+02 -0.32061355765E+02 -0.44655303514E+03  0.45066583228E+03  0.47000000000E+01 0.  1.
         13    1    6    6    0    0 -0.36010741394E+02  0.29353527811E+02 -0.14004164564E+03  0.14754682513E+03  0.00000000000E+00 0. -1.
        -14    1    6    6    0    0  0.44770526243E+02  0.46456462033E+02 -0.21593106073E+03  0.22536376345E+03  0.00000000000E+00 0.  1.
</event>
<event>
12    1  0.9028446E-003  0.2142529E+03  0.7818608E-02  0.1138625E+00
         21   -1    0    0  501  502  0.00000000000E+00  0.00000000000E+00  0.90024059415E+03  0.90024059415E+03  0.00000000000E+00 0. -1.
         21   -1    0    0  502  503 -0.00000000000E+00 -0.00000000000E+00 -0.50586923442E+02  0.50586923442E+02  0.00000000000E+00 0.  1.
          6    2    1    2  501    0  0.11199011543E+02  0.12378098707E+03  0.40574773719E+03  0.45792103960E+03  0.17208515814E+03 0.  0.
         24    2    3    3    0    0  0.71015843150E+02  0.40796934126E+02  0.24358149629E+03  0.26612847959E+03  0.69172122293E+02 0.  0.
         -6    2    1    2    0  503 -0.11199011543E+02 -0.12378098707E+03  0.44390593351E+03  0.49290647799E+03  0.17451982012E+03 0.  0.
        -24    2    5    5    0    0  0.48450682417E+02 -0.26364133285E+02  0.24559829329E+03  0.26400444750E+03  0.79607100703E+02 0.  0.
          5    1    3    3  501    0 -0.59816831608E+02  0.82984052943E+02  0.16216624090E+03  0.19179256001E+03  0.47000000000E+01 0. -1.
        -11    1    4    4    0    0 -0.71871972811E+01  0.13161779657E+02  0.94151483295E+01  0.17706870603E+02  0.00000000000E+00 0.  1.
         12    1    4    4    0    0  0.78203040431E+02  0.27635154469E+02  0.23416634796E+03  0.24842160899E+03  0.00000000000E+00 0. -1.
         -5    1    5    5    0  503 -0.59649693960E+02 -0.97416853784E+02  0.19830764022E+03  0.22890203049E+03  0.47000000000E+01 0.  1.
         11    1    6    6    0    0 -0.79869446298E+00  0.57656367218E+01  0.16027504696E+03  0.16038070694E+03  0.00000000000E+00 0. -1.
        -12    1    6    6    0    0  0.49249376880E+02 -0.32129770006E+02  0.85323246326E+02  0.10362374056E+03  0.00000000000E+00 0.  1.
</event>
<event>
12    1  0.9028446E-003  0.1858762E+03  0.7818608E-02  0.1162769E+00
         21   -1    0    0  503  502  0.00000000000E+00  0.00000000000E+00  0.11049302823E+04  0.11049302823E+04  0.00000000000E+00 0.  1.
         21   -1    0    0  501  503 -0.00000000000E+00 -0.00000000000E+00 -0.31217816175E+02  0.31217816175E+02  0.00000000000E+00 0.  1.
          6    2    1    2  501    0 -0.50622075080E+02 -0.40858339962E+02  0.59879942682E+03  0.62698542446E+03  0.17412056310E+03 0.  0.
         24    2    3    3    0    0 -0.72837686616E+02 -0.83228439793E+02  0.48188200532E+03  0.50057129469E+03  0.78288263692E+02 0.  0.
         -6    2    1    2    0  502  0.50622075080E+02  0.40858339962E+02  0.47491303933E+03  0.50916267404E+03  0.17167479512E+03 0.  0.
        -24    2    5    5    0    0  0.17336173227E+02  0.34404660794E+01  0.44051134971E+03  0.44822323856E+03  0.80879185538E+02 0.  0.
          5    1    3    3  501    0  0.22215611536E+02  0.42370099831E+02  0.11691742150E+03  0.12641412977E+03  0.47000000000E+01 0. -1.
        -13    1    4    4    0    0 -0.23903981310E+02 -0.52794145654E+02  0.11079527211E+03  0.12503685241E+03  0.00000000000E+00 0.  1.
         14    1    4    4    0    0 -0.48933705307E+02 -0.30434294139E+02  0.37108673321E+03  0.37553444228E+03  0.00000000000E+00 0. -1.
         -5    1    5    5    0  502  0.33285901853E+02  0.37417873882E+02  0.34401689621E+02  0.60939435482E+02  0.47000000000E+01 0.  1.
         13    1    6    6    0    0 -0.20635032061E+02 -0.59337509839E+01  0.33514623798E+03  0.33583331398E+03  0.00000000000E+00 0. -1.
        -14    1    6    6    0    0  0.37971205289E+02  0.93742170634E+01  0.10536511174E+03  0.11238992458E+03  0.00000000000E+00 0.  1.
</event>
<event>
12    1  0.9028446E-003  0.1887516E+03  0.7818608E-02  0.1161124E+00
         21   -1    0    0  501  502  0.00000000000E+00  0.00000000000E+00  0.14495706716E+03  0.14495706716E+03  0.00000000000E+00 0.  1.
         21   -1    0    0  502  503 -0.00000000000E+00 -0.00000000000E+00 -0.37920883761E+03  0.37920883761E+03  0.00000000000E+00 0. -1.
          6    2    1    2  501    0  0.50351828475E+02 -0.27377702184E+02  0.41907793869E+02  0.19334791294E+03  0.17983967039E+03 0.  0.
         24    2    3    3    0    0 -0.24068366010E+02  0.36539136303E+02  0.25129386845E+02  0.93711912766E+02  0.78968612669E+02 0.  0.
         -6    2    1    2    0  503 -0.50351828475E+02  0.27377702184E+02 -0.27615956433E+03  0.33081799182E+03  0.17289185504E+03 0.  0.
        -24    2    5    5    0    0  0.17347154024E+01 -0.30783326389E+02 -0.63574882503E+02  0.10430077340E+03  0.76721986582E+02 0.  0.
          5    1    3    3  501    0  0.74420194486E+02 -0.63916838487E+02  0.16778407024E+02  0.99636000179E+02  0.47000000000E+01 0. -1.
        -13    1    4    4    0    0 -0.50215249777E+02  0.32860820011E+02  0.44555104277E+01  0.60176875751E+02  0.00000000000E+00 0.  1.
         14    1    4    4    0    0  0.26146883767E+02  0.36783162924E+01  0.20673876417E+02  0.33535037015E+02  0.00000000000E+00 0. -1.
         -5    1    5    5    0  503 -0.52086543878E+02  0.58161028573E+02 -0.21258468182E+03  0.22651721843E+03  0.47000000000E+01 0.  1.
         13    1    6    6    0    0 -0.29884314060E+02 -0.78639430000E+01 -0.14681169598E+01  0.30936534935E+02  0.00000000000E+00 0. -1.
        -14    1    6    6    0    0  0.31619029463E+02 -0.22919383389E+02 -0.62106765543E+02  0.73364238463E+02  0.00000000000E+00 0.  1.
</event>
<event>
12    1  0.9028446E-003  0.2103943E+03  0.7818608E-02  0.1141360E+00
         21   -1    0    0  503  502  0.00000000000E+00  0.00000000000E+00  0.39730076794E+03  0.39730076794E+03  0.00000000000E+00 0. -1.
         21   -1    0    0  501  503 -0.00000000000E+00 -0.00000000000E+00 -0.11420076659E+03  0.11420076659E+03  0.00000000000E+00 0. -1.
          6    2    1    2  501    0 -0.92209423274E+02  0.77809813250E+02  0.99803534657E+02  0.23286583601E+03  0.17236242999E+03 0.  0.
         24    2    3    3    0    0 -0.10982038429E+03  0.10485662915E+02  0.86556780084E+02  0.16187109203E+03  0.80868463096E+02 0.  0.
         -6    2    1    2    0  502  0.92209423274E+02 -0.77809813250E+02  0.18329646670E+03  0.27863569852E+03  0.17170705579E+03 0.  0.
        -24    2    5    5    0    0  0.10899786931E+03 -0.37350199130E+02  0.18621983580E+03  0.23448291399E+03  0.83838158489E+02 0.  0.
          5    1    3    3  501    0  0.17610961017E+02  0.67324150335E+02  0.13246754574E+02  0.70994743982E+02  0.47000000000E+01 0. -1.
        -13    1    4    4    0    0 -0.62990085341E+02  0.45144684328E+02  0.39516868587E+02  0.86990667760E+02  0.00000000000E+00 0.  1.
         14    1    4    4    0    0 -0.46830298951E+02 -0.34659021413E+02  0.47039911497E+02  0.74880424270E+02  0.00000000000E+00 0. -1.
         -5    1    5    5    0  502 -0.16788446039E+02 -0.40459614121E+02 -0.29233690986E+01  0.44152784534E+02  0.47000000000E+01 0.  1.
         13    1    6    6    0    0  0.67421529783E+02 -0.51503001889E+02  0.69172908332E+02  0.10946740670E+03  0.00000000000E+00 0. -1.
        -14    1    6    6    0    0  0.41576339531E+02  0.14152802759E+02  0.11704692746E+03  0.12501550729E+03  0.00000000000E+00 0.  1.
</event>
<event>
12    1  0.9028446E-003  0.2092676E+03  0.7818608E-02  0.1142576E+00
         21   -1    0    0  503  502  0.00000000000E+00  0.00000000000E+00  0.11554828066E+03  0.11554828066E+03  0.00000000000E+00 0. -1.
         21   -1    0    0  501  503 -0.00000000000E+00 -0.00000000000E+00 -0.39766348288E+03  0.39766348288E+03  0.00000000000E+00 0. -1.
          6    2    1    2  501    0 -0.88786929706E+02  0.80799324967E+02 -0.20146059604E+03  0.28893944114E+03  0.16878382355E+03 0.  0.
         24    2    3    3    0    0  0.19253517634E+02  0.26025062879E+02 -0.86976741524E+02  0.12220132015E+03  0.79499731075E+02 0.  0.
         -6    2    1    2    0  502  0.88786929706E+02 -0.80799324967E+02 -0.80654606186E+02  0.22427232239E+03  0.17140962426E+03 0.  0.
        -24    2    5    5    0    0  0.80778881732E+02 -0.17865737204E+02  0.26155680700E+02  0.99953004963E+02  0.49619263080E+02 0.  0.
          5    1    3    3  501    0 -0.10804044734E+03  0.54774262088E+02 -0.11448385451E+03  0.16673812100E+03  0.47000000000E+01 0. -1.
        -11    1    4    4    0    0  0.35778856987E+02  0.32066280634E+02 -0.18473735245E+02  0.51474769110E+02  0.00000000000E+00 0.  1.
         12    1    4    4    0    0 -0.16525339353E+02 -0.60412177551E+01 -0.68503006279E+02  0.70726551040E+02  0.00000000000E+00 0. -1.
         -5    1    5    5    0  502  0.80080479735E+01 -0.62933587763E+02 -0.10681028689E+03  0.12431931743E+03  0.47000000000E+01 0.  1.
         11    1    6    6    0    0  0.48385841436E+02  0.11547240811E+02  0.15807422990E+01  0.49769741491E+02  0.00000000000E+00 0. -1.
        -12    1    6    6    0    0  0.32393040296E+02 -0.29412978015E+02  0.24574938401E+02  0.50183263472E+02  0.00000000000E+00 0.  1.
</event>
<event>
12    1  0.9028446E-003  0.2415385E+03  0.7818608E-02  0.1120496E+00
         21   -1    0    0  501  502  0.00000000000E+00  0.00000000000E+00  0.49327562048E+03  0.49327562048E+03  0.00000000000E+00 0. -1.
         21   -1    0    0  502  503 -0.00000000000E+00 -0.00000000000E+00 -0.11993091101E+03  0.11993091101E+03  0.00000000000E+00 0. -1.
          6    2    1    2  501    0 -0.90266241416E+01 -0.16941284351E+03  0.11857182915E+03  0.26907270287E+03  0.17192629023E+03 0.  0.
         24    2    3    3    0    0 -0.42676739103E+02 -0.80725694935E+02  0.12434565798E+03  0.17392456753E+03  0.80311709295E+02 0.  0.
         -6    2    1    2    0  503  0.90266241416E+01  0.16941284351E+03  0.25477288032E+03  0.34413382862E+03  0.15727898770E+03 0.  0.
        -24    2    5    5    0    0  0.22259800784E+02  0.82307784115E+02  0.22075062591E+03  0.24957161561E+03  0.79278511715E+02 0.  0.
          5    1    3    3  501    0  0.33650114961E+02 -0.88687148572E+02 -0.57738288267E+01  0.95148135337E+02  0.47000000000E+01 0. -1.
        -11    1    4    4    0    0 -0.63159684594E+02 -0.76284625397E+02  0.11237281563E+03  0.14978698048E+03  0.00000000000E+00 0.  1.
         12    1    4    4    0    0  0.20482945491E+02 -0.44410695383E+01  0.11972842352E+02  0.24137587051E+02  0.00000000000E+00 0. -1.
         -5    1    5    5    0  503 -0.13233176642E+02  0.87105059392E+02  0.34022254404E+02  0.94562213016E+02  0.47000000000E+01 0.  1.
         11    1    6    6    0    0 -0.11326397766E+02  0.44162008621E+02  0.17614384304E+03  0.18194840954E+03  0.00000000000E+00 0. -1.
        -12    1    6    6    0    0  0.33586198550E+02  0.38145775494E+02  0.44606782868E+02  0.67623206068E+02  0.00000000000E+00 0.  1.
</event>
<event>
12    1  0.9028446E-003  0.4501362E+03  0.7818608E-02  0.1027686E+00
         21   -1    0    0  501  502  0.00000000000E+00  0.00000000000E+00  0.31442143119E+03  0.31442143119E+03  0.00000000000E+00 0. -1.
         21   -1    0    0  502  503 -0.00000000000E+00 -0.00000000000E+00 -0.65428491554E+03  0.65428491554E+03  0.00000000000E+00 0.  1.
          6    2    1    2  501    0 -0.11915826075E+03 -0.39787948134E+03 -0.11023847474E+03  0.46343835918E+03  0.17353909839E+03 0.  0.
         24    2    3    3    0    0 -0.15434298912E+03 -0.32469972390E+03 -0.98951636814E+02  0.38132426344E+03  0.79781567186E+02 0.  0.
         -6    2    1    2    0  503  0.11915826075E+03  0.39787948134E+03 -0.22962500961E+03  0.50526798755E+03  0.17338201009E+03 0.  0.
        -24    2    5    5    0    0  0.11327257678E+03  0.30879513833E+03 -0.10953760916E+03  0.35555581305E+03  0.78970464501E+02 0.  0.
          5    1    3    3  501    0  0.35184728372E+02 -0.73179757441E+02 -0.11286837921E+02  0.82114095745E+02  0.47000000000E+01 0. -1.
        -13    1    4    4    0    0  0.96929112181E+01 -0.18433624450E+02 -0.61183082705E+01  0.21706790051E+02  0.00000000000E+00 0.  1.
         14    1    4    4    0    0 -0.16403590034E+03 -0.30626609945E+03 -0.92833328544E+02  0.35961747339E+03  0.00000000000E+00 0. -1.
         -5    1    5    5    0  503  0.58856839685E+01  0.89084343010E+02 -0.12008740045E+03  0.14971217450E+03  0.47000000000E+01 0.  1.
         11    1    6    6    0    0  0.60086264185E+02  0.20835813846E+03 -0.35031160989E+02  0.21966031787E+03  0.00000000000E+00 0. -1.
        -12    1    6    6    0    0  0.53186312599E+02  0.10043699987E+03 -0.74506448170E+02  0.13589549518E+03  0.00000000000E+00 0.  1.
</event>
<event>
12    1  0.9028446E-003  0.1822019E+03  0.7818608E-02  0.1166246E+00
         21   -1    0    0  503  502  0.00000000000E+00  0.00000000000E+00  0.38169087900E+03  0.38169087900E+03  0.00000000000E+00 0. -1.
         21   -1    0    0  501  503 -0.00000000000E+00 -0.00000000000E+00 -0.88484307517E+02  0.88484307517E+02  0.00000000000E+00 0. -1.
          6    2    1    2  501    0 -0.57399183093E+02 -0.12129017129E+02  0.18792298864E+03  0.26174905972E+03  0.17249852558E+03 0.  0.
         24    2    3    3    0    0  0.36217585328E+02 -0.89408899669E+01  0.98974770843E+02  0.13248909324E+03  0.79785346798E+02 0.  0.
         -6    2    1    2    0  502  0.57399183093E+02  0.12129017129E+02  0.10528358285E+03  0.20842612680E+03  0.17004422437E+03 0.  0.
        -24    2    5    5    0    0  0.72393141852E+02 -0.48316323689E+02  0.41859511350E+02  0.11941398791E+03  0.70229962945E+02 0.  0.
          5    1    3    3  501    0 -0.93616768421E+02 -0.31881271621E+01  0.88948217797E+02  0.12925996648E+03  0.47000000000E+01 0. -1.
        -11    1    4    4    0    0  0.11149777950E+02 -0.13024190520E+02 -0.10501393103E+02  0.20105380975E+02  0.00000000000E+00 0.  1.
         12    1    4    4    0    0  0.25067807378E+02  0.40833005534E+01  0.10947616395E+03  0.11238371226E+03  0.00000000000E+00 0. -1.
         -5    1    5    5    0  502 -0.14993958759E+02  0.60445340818E+02  0.63424071497E+02  0.89012138898E+02  0.47000000000E+01 0.  1.
         11    1    6    6    0    0  0.30876330927E+02 -0.13523813675E+01 -0.15386031858E+02  0.34524002132E+02  0.00000000000E+00 0. -1.
        -12    1    6    6    0    0  0.41516810925E+02 -0.46963942321E+02  0.57245543207E+02  0.84889985775E+02  0.00000000000E+00 0.  1.
</event>
<event>
12    1  0.9028446E-003  0.2304184E+03  0.7818608E-02  0.1127349E+00
         21   -1    0    0  501  502  0.00000000000E+00  0.00000000000E+00  0.12512654436E+03  0.12512654436E+03  0.00000000000E+00 0. -1.
         21   -1    0    0  502  503 -0.00000000000E+00 -0.00000000000E+00 -0.48826796167E+03  0.48826796167E+03  0.00000000000E+00 0. -1.
          6    2    1    2  501    0  0.15375125067E+03 -0.30062274738E+01 -0.63862881005E+02  0.23910484993E+03  0.17159305698E+03 0.  0.
         24    2    3    3    0    0  0.34839083906E+02  0.47733102834E+02 -0.13380995584E+02  0.10023406899E+03  0.79847396134E+02 0.  0.
         -6    2    1    2    0  503 -0.15375125067E+03  0.30062274738E+01 -0.29927853631E+03  0.37428965610E+03  0.16394090364E+03 0.  0.
        -24    2    5    5    0    0 -0.28080011074E+02  0.36222270553E+02 -0.16886883767E+03  0.19010131370E+03  0.74305351278E+02 0.  0.
          5    1    3    3  501    0  0.11891216676E+03 -0.50739330307E+02 -0.50481885421E+02  0.13887078094E+03  0.47000000000E+01 0. -1.
        -13    1    4    4    0    0 -0.67167010420E+00 -0.63380977569E+01  0.24468833078E+02  0.25285300395E+02  0.00000000000E+00 0.  1.
         14    1    4    4    0    0  0.35510754010E+02  0.54071200591E+02 -0.37849828662E+02  0.74948768591E+02  0.00000000000E+00 0. -1.
         -5    1    5    5    0  503 -0.12567123959E+03 -0.33216043079E+02 -0.13040969863E+03  0.18418834240E+03  0.47000000000E+01 0.  1.
         11    1    6    6    0    0  0.11633874980E+02  0.11640246811E+02 -0.12482017610E+03  0.12590043191E+03  0.00000000000E+00 0. -1.
        -12    1    6    6    0    0 -0.39713886054E+02  0.24582023742E+02 -0.44048661569E+02  0.64200881791E+02  0.00000000000E+00 0.  1.
</event>
<event>
12    1  0.9028446E-003  0.1974569E+03  0.7818608E-02  0.1152641E+00
         21   -1    0    0  501  502  0.00000000000E+00  0.00000000000E+00  0.49603825241E+02  0.49603825241E+02  0.00000000000E+00 0.  1.
         21   -1    0    0  502  503 -0.00000000000E+00 -0.00000000000E+00 -0.82856583993E+03  0.82856583993E+03  0.00000000000E+00 0.  1.
          6    2    1    2  501    0 -0.77025154877E+01  0.90478794794E+02 -0.27208762801E+03  0.33419277411E+03  0.17148583584E+03 0.  0.
         24    2    3    3    0    0 -0.54418079686E+02  0.39600583941E+02 -0.87488753736E+02  0.13703859418E+03  0.81214288268E+02 0.  0.
         -6    2    1    2    0  503  0.77025154877E+01 -0.90478794794E+02 -0.50687438667E+03  0.54397689106E+03  0.17533816782E+03 0.  0.
        -24    2    5    5    0    0 -0.54201477707E+02 -0.79957246166E+02 -0.17529356343E+03  0.20647023972E+03  0.50706657448E+02 0.  0.
          5    1    3    3  501    0  0.46715564199E+02  0.50878210854E+02 -0.18459887428E+03  0.19715417993E+03  0.47000000000E+01 0. -1.
        -13    1    4    4    0    0 -0.35885637689E+02 -0.12579102563E+02 -0.59707351509E+01  0.38492369268E+02  0.00000000000E+00 0.  1.
         14    1    4    4    0    0 -0.18532441998E+02  0.52179686504E+02 -0.81518018585E+02  0.98546224910E+02  0.00000000000E+00 0. -1.
         -5    1    5    5    0  503  0.61903993195E+02 -0.10521548628E+02 -0.33158082324E+03  0.33750665135E+03  0.47000000000E+01 0.  1.
         11    1    6    6    0    0 -0.95971858905E+01 -0.26844562751E+01 -0.21485499856E+00  0.99678706443E+01  0.00000000000E+00 0. -1.
        -12    1    6    6    0    0 -0.44604291816E+02 -0.77272789891E+02 -0.17507870843E+03  0.19650236907E+03  0.00000000000E+00 0.  1.
</event>
<event>
12    1  0.9028446E-003  0.1769209E+03  0.7818608E-02  0.1171237E+00
         21   -1    0    0  503  502  0.00000000000E+00  0.00000000000E+00  0.99893173222E+02  0.99893173222E+02  0.00000000000E+00 0.  1.
         21   -1    0    0  501  503 -0.00000000000E+00 -0.00000000000E+00 -0.47948709655E+03  0.47948709655E+03  0.00000000000E+00 0.  1.
          6    2    1    2  501    0 -0.14581675235E+02  0.21219745729E+02 -0.36125506020E+03  0.40151149481E+03  0.17333020246E+03 0.  0.
         24    2    3    3    0    0 -0.56381698878E+02  0.43837876542E+02 -0.32325828168E+03  0.34048144487E+03  0.79567846755E+02 0.  0.
         -6    2    1    2    0  502  0.14581675235E+02 -0.21219745729E+02 -0.18338863126E+02  0.17786877496E+03  0.17503737985E+03 0.  0.
        -24    2    5    5    0    0  0.59004706291E+02  0.23101745037E+02 -0.41722295593E+02  0.11073700047E+03  0.80664039918E+02 0.  0.
          5    1    3    3  501    0  0.41800023644E+02 -0.22618130813E+02 -0.37996778523E+02  0.61030049944E+02  0.47000000000E+01 0. -1.
        -11    1    4    4    0    0 -0.63225386204E+02  0.18786580337E+02 -0.13297548029E+03  0.14843471097E+03  0.00000000000E+00 0.  1.
         12    1    4    4    0    0  0.68436873260E+01  0.25051296205E+02 -0.19028280139E+03  0.19204673390E+03  0.00000000000E+00 0. -1.
         -5    1    5    5    0  502 -0.44423031056E+02 -0.44321490766E+02  0.23383432467E+02  0.67131774488E+02  0.47000000000E+01 0.  1.
         11    1    6    6    0    0  0.34506582789E+02 -0.22884328564E+02  0.37578418955E+01  0.41575450994E+02  0.00000000000E+00 0. -1.
        -12    1    6    6    0    0  0.24498123501E+02  0.45986073602E+02 -0.45480137489E+02  0.69161549479E+02  0.00000000000E+00 0.  1.
</event>
<event>
12    1  0.9028446E-003  0.3122022E+03  0.7818608E-02  0.1079720E+00
         21   -1    0    0  503  502  0.00000000000E+00  0.00000000000E+00  0.33075338919E+03  0.33075338919E+03  0.00000000000E+00 0.  1.
         21   -1    0    0  501  503 -0.00000000000E+00 -0.00000000000E+00 -0.37276678922E+03  0.37276678922E+03  0.00000000000E+00 0.  1.
          6    2    1    2  501    0 -0.72529752620E+02 -0.24994307807E+03 -0.18530700232E+03  0.36000417562E+03  0.16592834014E+03 0.  0.
         24    2    3    3    0    0  0.97267473581E+01 -0.89767290359E+02 -0.10978017083E+03  0.16468697967E+03  0.83170543665E+02 0.  0.
         -6    2    1    2    0  502  0.72529752620E+02  0.24994307807E+03  0.14329360230E+03  0.34351600279E+03  0.17244732652E+03 0.  0.
        -24    2    5    5    0    0  0.83440021425E+02  0.26663834114E+03  0.12750496664E+03  0.31764832430E+03  0.81146159936E+02 0.  0.
          5    1    3    3  501    0 -0.82256499978E+02 -0.16017578771E+03 -0.75526831495E+02  0.19531719595E+03  0.47000000000E+01 0. -1.
        -13    1    4    4    0    0  0.22239578390E+02 -0.62486254277E+02 -0.18881206733E+02  0.68961081692E+02  0.00000000000E+00 0.  1.
         14    1    4    4    0    0 -0.12512831032E+02 -0.27281036082E+02 -0.90898964094E+02  0.95725897977E+02  0.00000000000E+00 0. -1.
         -5    1    5    5    0  502 -0.10910268805E+02 -0.16695263073E+02  0.15788635658E+02  0.25867678489E+02  0.47000000000E+01 0.  1.
         13    1    6    6    0    0 -0.80614195938E+01  0.52550110298E+02  0.47993648330E+02  0.71623256406E+02  0.00000000000E+00 0. -1.
        -14    1    6    6    0    0  0.91501441019E+02  0.21408823084E+03  0.79511318311E+02  0.24602506790E+03  0.00000000000E+00 0.  1.
</event>
<event>
12    1  0.9028446E-003  0.1958155E+03  0.7818608E-02  0.1153868E+00
         21   -1    0    0  501  502  0.00000000000E+00  0.00000000000E+00  0.20268871396E+03  0.20268871396E+03  0.00000000000E+00 0.  1.
         21   -1    0    0  502  503 -0.00000000000E+00 -0.00000000000E+00 -0.24701814534E+03  0.24701814534E+03  0.00000000000E+00 0.  1.
          6    2    1    2  501    0 -0.91454774549E+02 -0.19249147003E+02  0.89005848124E+02  0.21280602036E+03  0.16920359290E+03 0.  0.
         24    2    3    3    0    0 -0.13193444259E+02  0.10128449732E+02  0.98764549314E+02  0.12851366449E+03  0.80527469188E+02 0.  0.
         -6    2    1    2    0  503  0.91454774549E+02  0.19249147003E+02 -0.13333527951E+03  0.23690083894E+03  0.17207325557E+03 0.  0.
        -24    2    5    5    0    0  0.30457030033E+02 -0.21648424580E+02 -0.10821833825E+03  0.15914296516E+03  0.11053953890E+03 0.  0.
          5    1    3    3  501    0 -0.78261330291E+02 -0.29377596735E+02 -0.97587011902E+01  0.84292355867E+02  0.47000000000E+01 0. -1.
        -11    1    4    4    0    0 -0.27490858695E+02 -0.49825887961E+01  0.10347812367E+03  0.10718346692E+03  0.00000000000E+00 0.  1.
         12    1    4    4    0    0  0.14297414437E+02  0.15111038528E+02 -0.47135743582E+01  0.21330197566E+02  0.00000000000E+00 0. -1.
         -5    1    5    5    0  503  0.60997744516E+02  0.40897571583E+02 -0.25116941261E+02  0.77757873786E+02  0.47000000000E+01 0.  1.
         11    1    6    6    0    0 -0.12522014768E+02 -0.70807681096E+01  0.19138747339E+02  0.23942217537E+02  0.00000000000E+00 0. -1.
        -12    1    6    6    0    0  0.42979044801E+02 -0.14567656471E+02 -0.12735708559E+03  0.13520074762E+03  0.00000000000E+00 0.  1.
</event>
<event>
12    1  0.9028446E-003  0.1855956E+03  0.7818608E-02  0.1163675E+00
         21   -1    0    0  503  502  0.00000000000E+00  0.00000000000E+00  0.12387339287E+03  0.12387339287E+03  0.00000000000E+00 0. -1.
         21   -1    0    0  501  503 -0.00000000000E+00 -0.00000000000E+00 -0.32718548384E+03  0.32718548384E+03  0.00000000000E+00 0. -1.
          6    2    1    2  501    0  0.35476163568E+02 -0.37502327287E+02 -0.19656496517E+03  0.27033964279E+03  0.17827157429E+03 0.  0.
         24    2    3    3    0    0 -0.42063506356E+02  0.14408930858E+02 -0.86499189377E+02  0.12596601593E+03  0.80052305092E+02 0.  0.
         -6    2    1    2    0  502 -0.35476163568E+02  0.37502327287E+02 -0.67471258047E+01  0.18071923391E+03  0.17305760621E+03 0.  0.
        -24    2    5    5    0    0  0.35457000040E+02  0.18743956793E+02  0.33878749337E+02  0.96719579783E+02  0.81230368020E+02 0.  0.
          5    1    3    3  501    0  0.77539669924E+02 -0.51911258145E+02 -0.11006577579E+03  0.14437362687E+03  0.47000000000E+01 0. -1.
        -13    1    4    4    0    0  0.22429788930E+02  0.55821915339E+01 -0.91201633335E+01  0.24848212672E+02  0.00000000000E+00 0.  1.
         14    1    4    4    0    0 -0.64493295286E+02  0.88267393236E+01 -0.77379026043E+02  0.10111780326E+03  0.00000000000E+00 0. -1.
         -5    1    5    5    0  502 -0.70933163608E+02  0.18758370494E+02 -0.40625875142E+02  0.83999654131E+02  0.47000000000E+01 0.  1.
         11    1    6    6    0    0 -0.14560798177E+02  0.24453925179E+01  0.41052052580E+02  0.43626457674E+02  0.00000000000E+00 0. -1.
        -12    1    6    6    0    0  0.50017798217E+02  0.16298564275E+02 -0.71733032428E+01  0.53093122109E+02  0.00000000000E+00 0.  1.
</event>
<event>
12    1  0.9028446E-003  0.2052117E+03  0.7818608E-02  0.1146002E+00
         21   -1    0    0  503  502  0.00000000000E+00  0.00000000000E+00  0.87247041349E+03  0.87247041349E+03  0.00000000000E+00 0. -1.
         21   -1    0    0  501  503 -0.00000000000E+00 -0.00000000000E+00 -0.72113325460E+02  0.72113325460E+02  0.00000000000E+00 0. -1.
          6    2    1    2  501    0 -0.73130099553E+02 -0.83815407250E+02  0.12296018843E+03  0.23678545803E+03  0.16904174409E+03 0.  0.
         24    2    3    3    0    0 -0.31200577312E+02 -0.50065023846E+02 -0.36159018548E+01  0.99159988563E+02  0.79621893649E+02 0.  0.
         -6    2    1    2    0  502  0.73130099553E+02  0.83815407250E+02  0.67739689960E+03  0.70779828091E+03  0.17244945035E+03 0.  0.
        -24    2    5    5    0    0 -0.16951604679E+02  0.76487437973E+02  0.32074658862E+03  0.33984455164E+03  0.80487639391E+02 0.  0.
          5    1    3    3  501    0 -0.41929522241E+02 -0.33750383404E+02  0.12657609028E+03  0.13762546947E+03  0.47000000000E+01 0. -1.
        -13    1    4    4    0    0 -0.37538539976E+01  0.15738309497E+02 -0.20277046594E+02  0.25941172376E+02  0.00000000000E+00 0.  1.
         14    1    4    4    0    0 -0.27446723314E+02 -0.65803333343E+02  0.16661144740E+02  0.73218816187E+02  0.00000000000E+00 0. -1.
         -5    1    5    5    0  502  0.90081704232E+02  0.73279692762E+01  0.35665031097E+03  0.36795372928E+03  0.47000000000E+01 0.  1.
         13    1    6    6    0    0 -0.24256217085E+02 -0.35115857709E+00  0.15646387047E+03  0.15833328816E+03  0.00000000000E+00 0. -1.
        -14    1    6    6    0    0  0.73046124063E+01  0.76838596551E+02  0.16428271816E+03  0.18151126347E+03  0.00000000000E+00 0.  1.
</event>
<event>
12    1  0.9028446E-003  0.1885303E+03  0.7818608E-02  0.1162274E+00
         21   -1    0    0  501  502  0.00000000000E+00  0.00000000000E+00  0.68689296971E+03  0.68689296971E+03  0.00000000000E+00 0.  1.
         21   -1    0    0  502  503 -0.00000000000E+00 -0.00000000000E+00 -0.50410752554E+02  0.50410752554E+02  0.00000000000E+00 0.  1.
          6    2    1    2  501    0  0.40039688116E+02  0.19166911883E+02  0.39118164752E+03  0.43424273533E+03  0.18322970473E+03 0.  0.
         24    2    3    3    0    0 -0.19902729548E+01  0.53058560795E+02  0.10073016607E+03  0.13877816119E+03  0.79332462508E+02 0.  0.
         -6    2    1    2    0  503 -0.40039688116E+02 -0.19166911883E+02  0.24530056964E+03  0.30306098694E+03  0.17234571420E+03 0.  0.
        -24    2    5    5    0    0 -0.33159534407E+02  0.19446339596E+02  0.44023748863E+02  0.97944512009E+02  0.78595942153E+02 0.  0.
          5    1    3    3  501    0  0.42029961070E+02 -0.33891648912E+02  0.29045148145E+03  0.29546457414E+03  0.47000000000E+01 0. -1.
        -11    1    4    4    0    0  0.34815705220E+02  0.24884603203E+02  0.23811255686E+02  0.48972979324E+02  0.00000000000E+00 0.  1.
         12    1    4    4    0    0 -0.36805978175E+02  0.28173957592E+02  0.76918910382E+02  0.89805181867E+02  0.00000000000E+00 0. -1.
         -5    1    5    5    0  503 -0.68801537081E+01 -0.38613251479E+02  0.20127682078E+03  0.20511647493E+03  0.47000000000E+01 0.  1.
         11    1    6    6    0    0 -0.20561873488E+02 -0.24852541883E+02  0.40470540671E+02  0.51752334648E+02  0.00000000000E+00 0. -1.
        -12    1    6    6    0    0 -0.12597660920E+02  0.44298881479E+02  0.35532081925E+01  0.46192177361E+02  0.00000000000E+00 0.  1.
</event>
<event>
12    1  0.9028446E-003  0.1912903E+03  0.7818608E-02  0.1157348E+00
         21   -1    0    0  501  502  0.00000000000E+00  0.00000000000E+00  0.14889892194E+03  0.14889892194E+03  0.00000000000E+00 0. -1.
         21   -1    0    0  502  503 -0.00000000000E+00 -0.00000000000E+00 -0.25211845483E+03  0.25211845483E+03  0.00000000000E+00 0. -1.
          6    2    1    2  501    0  0.71342004512E+02 -0.43656488043E+02 -0.84093863623E+02  0.20877333442E+03  0.17181081662E+03 0.  0.
         24    2    3    3    0    0 -0.10170291071E+02 -0.63221020010E+02 -0.69565296795E+02  0.12356655947E+03  0.79555212968E+02 0.  0.
         -6    2    1    2    0  503 -0.71342004512E+02  0.43656488043E+02 -0.19125669258E+02  0.19224404235E+03  0.17203607191E+03 0.  0.
        -24    2    5    5    0    0 -0.95053301101E+02  0.60170298899E+02 -0.52632503399E+02  0.14774989140E+03  0.80026589794E+02 0.  0.
          5    1    3    3  501    0  0.81512295583E+02  0.19564531968E+02 -0.14528566828E+02  0.85206774944E+02  0.47000000000E+01 0. -1.
        -11    1    4    4    0    0 -0.30873547033E+02 -0.17436653573E+02  0.26878058291E+01  0.35558924258E+02  0.00000000000E+00 0.  1.
         12    1    4    4    0    0  0.20703255962E+02 -0.45784366437E+02 -0.72253102624E+02  0.88007635216E+02  0.00000000000E+00 0. -1.
         -5    1    5    5    0  503  0.23711296589E+02 -0.16513810856E+02  0.33506834141E+02  0.44494150953E+02  0.47000000000E+01 0.  1.
         13    1    6    6    0    0 -0.65459859929E+02  0.23398888905E+02  0.90250971703E+01  0.70099598022E+02  0.00000000000E+00 0. -1.
        -14    1    6    6    0    0 -0.29593441172E+02  0.36771409994E+02 -0.61657600569E+02  0.77650293376E+02  0.00000000000E+00 0.  1.
</event>
<event>
12    1  0.9028446E-003  0.1755493E+03  0.7818608E-02  0.1173017E+00
         21   -1    0    0  501  502  0.00000000000E+00  0.00000000000E+00  0.17767684620E+03  0.17767684620E+03  0.00000000000E+00 0.  1.
         21   -1    0    0  502  503 -0.00000000000E+00 -0.00000000000E+00 -0.34690207263E+03  0.34690207263E+03  0.00000000000E+00 0.  1.
          6    2    1    2  501    0  0.19516759159E+02 -0.16172023880E+02  0.10297770851E+03  0.20067768495E+03  0.17036633042E+03 0.  0.
         24    2    3    3    0    0 -0.12768317854E+02 -0.98750448248E+01  0.13277993940E+03  0.15604315673E+03  0.80364220922E+02 0.  0.
         -6    2    1    2    0  503 -0.19516759159E+02  0.16172023880E+02 -0.27220293494E+03  0.32390123388E+03  0.17370991128E+03 0.  0.
        -24    2    5    5    0    0 -0.52556695549E+02 -0.20266630371E+02 -0.74815580747E+02  0.12042329769E+03  0.75706386462E+02 0.  0.
          5    1    3    3  501    0  0.32285077013E+02 -0.62969790553E+01 -0.29802230888E+02  0.44634528214E+02  0.47000000000E+01 0. -1.
        -11    1    4    4    0    0  0.23236640460E+02 -0.31190799079E+02  0.50567123329E+02  0.63795308360E+02  0.00000000000E+00 0.  1.
         12    1    4    4    0    0 -0.36004958314E+02  0.21315754254E+02  0.82212816073E+02  0.92247848372E+02  0.00000000000E+00 0. -1.
         -5    1    5    5    0  503  0.33039936390E+02  0.36438654251E+02 -0.19738735420E+03  0.20347793619E+03  0.47000000000E+01 0.  1.
         13    1    6    6    0    0 -0.53546612749E+02 -0.35904122520E+02 -0.81046541197E+02  0.10356103317E+03  0.00000000000E+00 0. -1.
        -14    1    6    6    0    0  0.98991720003E+00  0.15637492149E+02  0.62309604503E+01  0.16862264525E+02  0.00000000000E+00 0.  1.
</event>
<event>
12    1  0.9028446E-003  0.2441696E+03  0.7818608E-02  0.1117237E+00
         21   -1    0    0  501  502  0.00000000000E+00  0.00000000000E+00  0.11232394815E+03  0.11232394815E+03  0.00000000000E+00 0.  1.
         21   -1    0    0  502  503 -0.00000000000E+00 -0.00000000000E+00 -0.52845963475E+03  0.52845963475E+03  0.00000000000E+00 0.  1.
          6    2    1    2  501    0  0.11918713865E+03 -0.12292762848E+03 -0.20094116439E+03  0.31531854177E+03  0.17242869648E+03 0.  0.
         24    2    3    3    0    0  0.13276529226E+03 -0.14476059473E+03 -0.19335303350E+03  0.28810247297E+03  0.83877212365E+02 0.  0.
         -6    2    1    2    0  503 -0.11918713865E+03  0.12292762848E+03 -0.21519452221E+03  0.32546504113E+03  0.17407479640E+03 0.  0.
        -24    2    5    5    0    0 -0.11778058786E+03  0.12960318593E+03 -0.11370559759E+03  0.22363855502E+03  0.80099860733E+02 0.  0.
          5    1    3    3  501    0 -0.13578153608E+02  0.21832966245E+02 -0.75881308973E+01  0.27216068801E+02  0.47000000000E+01 0. -1.
        -11    1    4    4    0    0  0.94540337192E+02 -0.43475318786E+02 -0.11045065781E+03  0.15174757498E+03  0.00000000000E+00 0.  1.
         12    1    4    4    0    0  0.38224955064E+02 -0.10128527594E+03 -0.82902375684E+02  0.13635489799E+03  0.00000000000E+00 0. -1.
         -5    1    5    5    0  503 -0.14065507903E+01 -0.66755574420E+01 -0.10148892462E+03  0.10182648611E+03  0.47000000000E+01 0.  1.
         11    1    6    6    0    0 -0.78319582422E+02  0.13024088848E+03 -0.99703910764E+02  0.18176225088E+03  0.00000000000E+00 0. -1.
        -12    1    6    6    0    0 -0.39461005435E+02 -0.63770255256E+00 -0.14001686821E+02  0.41876304139E+02  0.00000000000E+00 0.  1.
</event>
<event>
12    1  0.9028446E-003  0.2090510E+03  0.7818608E-02  0.1142565E+00
         21   -1    0    0  503  502  0.00000000000E+00  0.00000000000E+00  0.62963037194E+02  0.62963037194E+02  0.00000000000E+00 0.  1.
         21   -1    0    0  501  503 -0.00000000000E+00 -0.00000000000E+00 -0.70393421262E+03  0.70393421262E+03  0.00000000000E+00 0.  1.
          6    2    1    2  501    0 -0.11612087069E+03 -0.26978272273E+02 -0.26565890916E+03  0.33729087475E+03  0.17023100301E+03 0.  0.
         24    2    3    3    0    0 -0.10359925171E+03 -0.61498120057E+02 -0.26356380408E+03  0.30021136156E+03  0.78397442968E+02 0.  0.
         -6    2    1    2    0  502  0.11612087069E+03  0.26978272273E+02 -0.37531226627E+03  0.42960637506E+03  0.17172785593E+03 0.  0.
        -24    2    5    5    0    0  0.96541224985E+02  0.73689086319E+02 -0.20326581118E+03  0.25019808266E+03  0.80819558334E+02 0.  0.
          5    1    3    3  501    0 -0.12521618981E+02  0.34519847784E+02 -0.20951050811E+01  0.37079513187E+02  0.47000000000E+01 0. -1.
        -13    1    4    4    0    0 -0.32151248718E+02 -0.27677554904E+02 -0.25802916762E+02  0.49654207808E+02  0.00000000000E+00 0.  1.
         14    1    4    4    0    0 -0.71448002994E+02 -0.33820565153E+02 -0.23776088732E+03  0.25055715375E+03  0.00000000000E+00 0. -1.
         -5    1    5    5    0  502  0.19579645708E+02 -0.46710814046E+02 -0.17204645509E+03  0.17940829240E+03  0.47000000000E+01 0.  1.
         13    1    6    6    0    0  0.71802114012E+02  0.38151808593E+02 -0.61445784976E+02  0.10191510470E+03  0.00000000000E+00 0. -1.
        -14    1    6    6    0    0  0.24739110972E+02  0.35537277727E+02 -0.14182002620E+03  0.14828297796E+03  0.00000000000E+00 0.  1.
</event>
<event>
12    1  0.9028446E-003  0.1842749E+03  0.7818608E-02  0.1163746E+00
         21   -1    0    0  501  502  0.00000000000E+00  0.00000000000E+00  0.93864596489E+03  0.93864596489E+03  0.00000000000E+00 0.  1.
         21   -1    0    0  502  503 -0.00000000000E+00 -0.00000000000E+00 -0.49675636768E+02  0.49675636768E+02  0.00000000000E+00 0.  1.
          6    2    1    2  501    0 -0.59466861267E+02  0.27323168454E+02  0.70215628713E+03  0.72591593412E+03  0.17218486790E+03 0.  0.
         24    2    3    3    0    0 -0.10685276597E+03  0.26904046049E+02  0.49700487795E+03  0.51531016422E+03  0.79933568351E+02 0.  0.
         -6    2    1    2    0  503  0.59466861267E+02 -0.27323168454E+02  0.18681404099E+03  0.26240566754E+03  0.17226254764E+03 0.  0.
        -24    2    5    5    0    0  0.26737830585E+02 -0.67936303970E+02  0.57953871254E+02  0.12330983880E+03  0.80724297277E+02 0.  0.
          5    1    3    3  501    0  0.47385904707E+02  0.41912240511E+00  0.20515140917E+03  0.21060576990E+03  0.47000000000E+01 0. -1.
        -13    1    4    4    0    0 -0.98757638168E+02  0.40828232230E+02  0.48053367561E+03  0.49227292129E+03  0.00000000000E+00 0.  1.
         14    1    4    4    0    0 -0.80951278066E+01 -0.13924186181E+02  0.16471202341E+02  0.23037242924E+02  0.00000000000E+00 0. -1.
         -5    1    5    5    0  503  0.32729030682E+02  0.40613135516E+02  0.12886016974E+03  0.13909582873E+03  0.47000000000E+01 0.  1.
         13    1    6    6    0    0  0.22164886960E+02 -0.27857305835E+02  0.72224165755E+02  0.80521064457E+02  0.00000000000E+00 0. -1.
        -14    1    6    6    0    0  0.45729436249E+01 -0.40078998135E+02 -0.14270294501E+02  0.42788774346E+02  0.00000000000E+00 0.  1.
</event>
<event>
12    1  0.9028446E-003  0.2808889E+03  0.7818608E-02  0.1096329E+00
         21   -1    0    0  501  502  0.00000000000E+00  0.00000000000E+00  0.24358422799E+03  0.24358422799E+03  0.00000000000E+00 0.  1.
         21   -1    0    0  502  503 -0.00000000000E+00 -0.00000000000E+00 -0.31518490141E+03  0.31518490141E+03  0.00000000000E+00 0. -1.
          6    2    1    2  501    0 -0.12415138717E+03  0.17214972199E+03 -0.23140147829E+02  0.27373050490E+03  0.17130040617E+03 0.  0.
         24    2    3    3    0    0 -0.14119048637E+03  0.18773763204E+03 -0.26495746223E+02  0.24992580197E+03  0.81121575385E+02 0.  0.
         -6    2    1    2    0  503  0.12415138717E+03 -0.17214972199E+03 -0.48460525598E+02  0.28503862450E+03  0.18398233936E+03 0.  0.
        -24    2    5    5    0    0 -0.29460146361E+01 -0.10856536805E+03  0.73763668297E+01  0.13227551322E+03  0.75148402954E+02 0.  0.
          5    1    3    3  501    0  0.17039099200E+02 -0.15587910053E+02  0.33555983942E+01  0.23804702938E+02  0.47000000000E+01 0. -1.
        -11    1    4    4    0    0 -0.29558577022E+02  0.78411639918E+02  0.21424230701E+02  0.86493308477E+02  0.00000000000E+00 0.  1.
         12    1    4    4    0    0 -0.11163190935E+03  0.10932599213E+03 -0.47919976924E+02  0.16343249349E+03  0.00000000000E+00 0. -1.
         -5    1    5    5    0  503  0.12709740181E+03 -0.63584353939E+02 -0.55836892427E+02  0.15276311128E+03  0.47000000000E+01 0.  1.
         13    1    6    6    0    0 -0.11871512644E+02 -0.10317617631E+03 -0.17483063618E+02  0.10531815458E+03  0.00000000000E+00 0. -1.
        -14    1    6    6    0    0  0.89254980079E+01 -0.53891917375E+01  0.24859430448E+02  0.26957358633E+02  0.00000000000E+00 0.  1.
</event>
<event>
12    1  0.9028446E-003  0.2356822E+03  0.7818608E-02  0.1122889E+00
         21   -1    0    0  503  502  0.00000000000E+00  0.00000000000E+00  0.79620160245E+02  0.79620160245E+02  0.00000000000E+00 0.  1.
         21   -1    0    0  501  503 -0.00000000000E+00 -0.00000000000E+00 -0.17648915792E+04  0.17648915792E+04  0.00000000000E+00 0. -1.
          6    2    1    2  501    0  0.13107555105E+03  0.89932767690E+02 -0.15601243755E+04  0.15776636759E+04  0.17252798137E+03 0.  0.
         24    2    3    3    0    0  0.60574742137E+02  0.57501071563E+02 -0.41663448912E+03  0.43153393225E+03  0.75243368750E+02 0.  0.
         -6    2    1    2    0  502 -0.13107555105E+03 -0.89932767690E+02 -0.12514704350E+03  0.26684806362E+03  0.17400403378E+03 0.  0.
        -24    2    5    5    0    0 -0.61287586275E+02 -0.98477701745E+02 -0.13530626756E+03  0.19565343068E+03  0.80736936548E+02 0.  0.
          5    1    3    3  501    0  0.70500808912E+02  0.32431696126E+02 -0.11434898864E+04  0.11461297436E+04  0.47000000000E+01 0. -1.
        -11    1    4    4    0    0  0.45981314243E+02  0.29006509698E+02 -0.10481745378E+03  0.11807776032E+03  0.00000000000E+00 0.  1.
         12    1    4    4    0    0  0.14593427893E+02  0.28494561865E+02 -0.31181703534E+03  0.31345617193E+03  0.00000000000E+00 0. -1.
         -5    1    5    5    0  502 -0.69787964773E+02  0.85449340553E+01  0.10159224063E+02  0.71194632935E+02  0.47000000000E+01 0.  1.
         11    1    6    6    0    0 -0.53138715095E+02 -0.10533373099E+03 -0.88052904349E+02  0.14721491735E+03  0.00000000000E+00 0. -1.
        -12    1    6    6    0    0 -0.81488711797E+01  0.68560292471E+01 -0.47253363213E+02  0.48438513328E+02  0.00000000000E+00 0.  1.
</event>
<event>
12    1  0.9028446E-003  0.1825636E+03  0.7818608E-02  0.1165663E+00
         21   -1    0    0  503  502  0.00000000000E+00  0.00000000000E+00  0.13922776761E+04  0.13922776761E+04  0.00000000000E+00 0. -1.
         21   -1    0    0  501  503 -0.00000000000E+00 -0.00000000000E+00 -0.24464386355E+02  0.24464386355E+02  0.00000000000E+00 0. -1.
          6    2    1    2  501    0 -0.58144371633E+02  0.18690333783E+02  0.56650789749E+03  0.59519799630E+03  0.17204464640E+03 0.  0.
         24    2    3    3    0    0 -0.90620166224E+02 -0.31315111459E+02  0.40277619098E+03  0.42088395928E+03  0.75643878947E+02 0.  0.
         -6    2    1    2    0  502  0.58144371633E+02 -0.18690333783E+02  0.80130539224E+03  0.82154406614E+03  0.17062890858E+03 0.  0.
        -24    2    5    5    0    0  0.76409830760E+02 -0.67845972121E+02  0.56790978469E+03  0.58228374055E+03  0.78046734657E+02 0.  0.
          5    1    3    3  501    0  0.32475794591E+02  0.50005445242E+02  0.16373170651E+03  0.17431403703E+03  0.47000000000E+01 0. -1.
        -13    1    4    4    0    0  0.99938533221E+01  0.79907790152E+01  0.65300346692E+02  0.66542204138E+02  0.00000000000E+00 0.  1.
         14    1    4    4    0    0 -0.10061401955E+03 -0.39305890474E+02  0.33747584429E+03  0.35434175514E+03  0.00000000000E+00 0. -1.
         -5    1    5    5    0  502 -0.18265459127E+02  0.49155638339E+02  0.23339560755E+03  0.23926032559E+03  0.47000000000E+01 0.  1.
         13    1    6    6    0    0  0.82902842715E+02 -0.43073608519E+02  0.32907105076E+03  0.34207597626E+03  0.00000000000E+00 0. -1.
        -14    1    6    6    0    0 -0.64930119547E+01 -0.24772363602E+02  0.23883873393E+03  0.24020776429E+03  0.00000000000E+00 0.  1.
</event>
<event>
12    1  0.9028446E-003  0.1845872E+03  0.7818608E-02  0.1163503E+00
         21   -1    0    0  501  502  0.00000000000E+00  0.00000000000E+00  0.22759751641E+02  0.22759751641E+02  0.00000000000E+00 0.  1.
         21   -1    0    0  502  503 -0.00000000000E+00 -0.00000000000E+00 -0.17270923256E+04  0.17270923256E+04  0.00000000000E+00 0.  1.
          6    2    1    2  501    0  0.37261692228E+02 -0.56187371568E+02 -0.11736664040E+04  0.11880931277E+04  0.17183421641E+03 0.  0.
         24    2    3    3    0    0  0.73131771292E+02  0.55244569274E+01 -0.56567616069E+03  0.57590913719E+03  0.79391686815E+02 0.  0.
         -6    2    1    2    0  503 -0.37261692228E+02  0.56187371568E+02 -0.53066616995E+03  0.56175894946E+03  0.17152573844E+03 0.  0.
        -24    2    5    5    0    0 -0.83935579552E+02  0.21235362205E+02 -0.42363744726E+03  0.43978627959E+03  0.80294226891E+02 0.  0.
          5    1    3    3  501    0 -0.35870079064E+02 -0.61711828495E+02 -0.60799024328E+03  0.61218399054E+03  0.47000000000E+01 0. -1.
        -13    1    4    4    0    0  0.86750985793E+02  0.15134154631E+02 -0.51730084757E+03  0.52474273989E+03  0.00000000000E+00 0.  1.
         14    1    4    4    0    0 -0.13619214500E+02 -0.96096977036E+01 -0.48375313119E+02  0.51166397302E+02  0.00000000000E+00 0. -1.
         -5    1    5    5    0  503  0.46673887325E+02  0.34952009363E+02 -0.10702872269E+03  0.12197266988E+03  0.47000000000E+01 0.  1.
         11    1    6    6    0    0 -0.57360672604E+02  0.51468374568E+02 -0.30113979561E+03  0.31084468283E+03  0.00000000000E+00 0. -1.
        -12    1    6    6    0    0 -0.26574906948E+02 -0.30233012363E+02 -0.12249765164E+03  0.12894159676E+03  0.00000000000E+00 0.  1.
</event>
<event>
12    1  0.9028446E-003  0.1759797E+03  0.7818608E-02  0.1172929E+00
         21   -1    0    0  503  502  0.00000000000E+00  0.00000000000E+00  0.10416222772E+04  0.10416222772E+04  0.00000000000E+00 0.  1.
         21   -1    0    0  501  503 -0.00000000000E+00 -0.00000000000E+00 -0.28980154957E+02  0.28980154957E+02  0.00000000000E+00 0.  1.
          6    2    1    2  501    0  0.38342711757E+01 -0.34149273871E+02  0.48219239399E+03  0.51172339300E+03  0.16784055404E+03 0.  0.
         24    2    3    3    0    0  0.18495472533E+02  0.22565261547E+01  0.45850331577E+03  0.46564090687E+03  0.79050548163E+02 0.  0.
         -6    2    1    2    0  502 -0.38342711757E+01  0.34149273871E+02  0.53044972827E+03  0.55887903917E+03  0.17259198030E+03 0.  0.
        -24    2    5    5    0    0  0.34952584917E+02  0.17669839697E+02  0.14444273801E+03  0.17054995388E+03  0.81790438174E+02 0.  0.
          5    1    3    3  501    0 -0.14661201357E+02 -0.36405800026E+02  0.23689078216E+02  0.46082486126E+02  0.47000000000E+01 0. -1.
        -11    1    4    4    0    0 -0.15231062363E+01 -0.36119699783E+02  0.16125562223E+03  0.16525836822E+03  0.00000000000E+00 0.  1.
         12    1    4    4    0    0  0.20018578769E+02  0.38376225938E+02  0.29724769354E+03  0.30038253866E+03  0.00000000000E+00 0. -1.
         -5    1    5    5    0  502 -0.38786856092E+02  0.16479434175E+02  0.38600699026E+03  0.38832908530E+03  0.47000000000E+01 0.  1.
         13    1    6    6    0    0 -0.26102033790E+02 -0.11433568871E+01  0.32967257427E+02  0.42064991325E+02  0.00000000000E+00 0. -1.
        -14    1    6    6    0    0  0.61054618706E+02  0.18813196584E+02  0.11147548058E+03  0.12848496255E+03  0.00000000000E+00 0.  1.
</event>
<event>
12    1  0.9028446E-003  0.1775665E+03  0.7818608E-02  0.1170863E+00
         21   -1    0    0  501  502  0.00000000000E+00  0.00000000000E+00  0.42338441991E+03  0.42338441991E+03  0.00000000000E+00 0.  1.
         21   -1    0    0  502  503 -0.00000000000E+00 -0.00000000000E+00 -0.79254163105E+02  0.79254163105E+02  0.00000000000E+00 0.  1.
          6    2    1    2  501    0 -0.24604767433E+02  0.19337446190E+02  0.10206110983E+03  0.20242642096E+03  0.17199027402E+03 0.  0.
         24    2    3    3    0    0  0.24543454068E+02  0.31689188924E+02 -0.94117002175E+00  0.87536591645E+02  0.77815057949E+02 0.  0.
         -6    2    1    2    0  503  0.24604767433E+02 -0.19337446190E+02  0.24206914697E+03  0.30021216205E+03  0.17478712459E+03 0.  0.
        -24    2    5    5    0    0  0.44577463252E+02 -0.35103240735E+02  0.55264199879E+02  0.11162359635E+03  0.78653084705E+02 0.  0.
          5    1    3    3  501    0 -0.49148221501E+02 -0.12351742735E+02  0.10300227985E+03  0.11488982932E+03  0.47000000000E+01 0. -1.
        -11    1    4    4    0    0 -0.18039090901E+02  0.37932426668E+02  0.99002775793E+01  0.43154296305E+02  0.00000000000E+00 0.  1.
         12    1    4    4    0    0  0.42582544969E+02 -0.62432377434E+01 -0.10841447601E+02  0.44382295340E+02  0.00000000000E+00 0. -1.
         -5    1    5    5    0  503 -0.19972695819E+02  0.15765794545E+02  0.18680494709E+03  0.18858856570E+03  0.47000000000E+01 0.  1.
         11    1    6    6    0    0  0.47883764969E+02  0.80032051981E+01  0.47071267256E+02  0.67621079865E+02  0.00000000000E+00 0. -1.
        -12    1    6    6    0    0 -0.33063017171E+01 -0.43106445933E+02  0.81929326231E+01  0.44002516484E+02  0.00000000000E+00 0.  1.
</event>
<event>
12    1  0.9028446E-003  0.1732522E+03  0.7818608E-02  0.1174955E+00
         21   -1    0    0  501  502  0.00000000000E+00  0.00000000000E+00  0.67344783461E+03  0.67344783461E+03  0.00000000000E+00 0.  1.
         21   -1    0    0  502  503 -0.00000000000E+00 -0.00000000000E+00 -0.54576080518E+02  0.54576080518E+02  0.00000000000E+00 0.  1.
          6    2    1    2  501    0 -0.11817993547E+02 -0.50446485570E+01  0.46752245395E+03  0.49797403361E+03  0.17098473545E+03 0.  0.
         24    2    3    3    0    0 -0.69200483331E+02  0.12023320111E+02  0.35196501755E+03  0.36774470975E+03  0.80146932859E+02 0.  0.
         -6    2    1    2    0  503  0.11817993547E+02  0.50446485570E+01  0.15134930015E+03  0.23004988152E+03  0.17277506730E+03 0.  0.
        -24    2    5    5    0    0  0.67205852001E+02  0.32108329264E+02  0.11301982476E+03  0.15730720930E+03  0.80153015902E+02 0.  0.
          5    1    3    3  501    0  0.57382489784E+02 -0.17067968668E+02  0.11555743639E+03  0.13022932386E+03  0.47000000000E+01 0. -1.
        -13    1    4    4    0    0 -0.11115704735E+02 -0.31793010667E+02  0.11998334696E+03  0.12462085687E+03  0.00000000000E+00 0.  1.
         14    1    4    4    0    0 -0.58084778597E+02  0.43816330779E+02  0.23198167059E+03  0.24312385287E+03  0.00000000000E+00 0. -1.
         -5    1    5    5    0  503 -0.55387858455E+02 -0.27063680707E+02  0.38329475388E+02  0.72742672216E+02  0.47000000000E+01 0.  1.
         11    1    6    6    0    0  0.36804262384E+02 -0.15486761604E+02  0.85752215326E+02  0.94593001580E+02  0.00000000000E+00 0. -1.
        -12    1    6    6    0    0  0.30401589617E+02  0.47595090867E+02  0.27267609434E+02  0.62714207722E+02  0.00000000000E+00 0.  1.
</event>
<event>
12    1  0.9028446E-003  0.2541771E+03  0.7818608E-02  0.1110713E+00
         21   -1    0    0  501  502  0.00000000000E+00  0.00000000000E+00  0.45925164039E+03  0.45925164039E+03  0.00000000000E+00 0.  1.
         21   -1    0    0  502  503 -0.00000000000E+00 -0.00000000000E+00 -0.15441111546E+03  0.15441111546E+03  0.00000000000E+00 0. -1.
          6    2    1    2  501    0  0.52510722433E+02 -0.17976599000E+03  0.60636077854E+02  0.26118320557E+03  0.17165880636E+03 0.  0.
         24    2    3    3    0    0  0.17145331405E+02 -0.18941507123E+03  0.77394537521E+02  0.22060301802E+03  0.80645802903E+02 0.  0.
         -6    2    1    2    0  503 -0.52510722433E+02  0.17976599000E+03  0.24420444707E+03  0.35247955028E+03  0.17185119803E+03 0.  0.
        -24    2    5    5    0    0  0.81304134420E+00  0.17672086216E+03  0.22172640484E+03  0.29434136172E+03  0.79014647097E+02 0.  0.
          5    1    3    3  501    0  0.35365391028E+02  0.96490812221E+01 -0.16758459667E+02  0.40580187548E+02  0.47000000000E+01 0. -1.
        -11    1    4    4    0    0 -0.24628665831E+02 -0.13477502361E+03  0.60553346825E+02  0.14979180879E+03  0.00000000000E+00 0.  1.
         12    1    4    4    0    0  0.41773997236E+02 -0.54640047620E+02  0.16841190696E+02  0.70811209233E+02  0.00000000000E+00 0. -1.
         -5    1    5    5    0  503 -0.53323763777E+02  0.30451278472E+01  0.22478042227E+02  0.58138188562E+02  0.47000000000E+01 0.  1.
         11    1    6    6    0    0  0.38707101743E+02  0.78788544825E+02  0.11428057603E+03  0.14410386733E+03  0.00000000000E+00 0. -1.
        -12    1    6    6    0    0 -0.37894060399E+02  0.97932317332E+02  0.10744582881E+03  0.15023749439E+03  0.00000000000E+00 0.  1.
</event>
<event>
12    1  0.9028446E-003  0.1905263E+03  0.7818608E-02  0.1158129E+00
         21   -1    0    0  503  502  0.00000000000E+00  0.00000000000E+00  0.85015511026E+03  0.85015511026E+03  0.00000000000E+00 0.  1.
         21   -1    0    0  501  503 -0.00000000000E+00 -0.00000000000E+00 -0.67338740850E+02  0.67338740850E+02  0.00000000000E+00 0. -1.
          6    2    1    2  501    0  0.60528677809E+02 -0.54440171103E+02  0.11270639199E+03  0.22082489106E+03  0.17156179251E+03 0.  0.
         24    2    3    3    0    0 -0.22222296737E+02  0.67683978184E+01  0.44561081063E+02  0.97293170038E+02  0.83310439377E+02 0.  0.
         -6    2    1    2    0  502 -0.60528677809E+02  0.54440171103E+02  0.67010997742E+03  0.69666896005E+03  0.17225796060E+03 0.  0.
        -24    2    5    5    0    0 -0.18694214462E+02  0.78676965711E+02  0.60494886295E+03  0.61539408463E+03  0.78785874469E+02 0.  0.
          5    1    3    3  501    0  0.82750974546E+02 -0.61208568921E+02  0.68145310928E+02  0.12353172102E+03  0.47000000000E+01 0. -1.
        -13    1    4    4    0    0  0.18818463174E+02  0.44885288593E+01  0.52035092704E+02  0.55515153970E+02  0.00000000000E+00 0.  1.
         14    1    4    4    0    0 -0.41040759912E+02  0.22798689591E+01 -0.74740116407E+01  0.41778016068E+02  0.00000000000E+00 0. -1.
         -5    1    5    5    0  502 -0.41834463347E+02 -0.24236794609E+02  0.65161114465E+02  0.81274875421E+02  0.47000000000E+01 0.  1.
         13    1    6    6    0    0  0.69687318772E+01 -0.14588461766E+02  0.85250880141E+02  0.86770380923E+02  0.00000000000E+00 0. -1.
        -14    1    6    6    0    0 -0.25662946339E+02  0.93265427477E+02  0.51969798281E+03  0.52862370370E+03  0.00000000000E+00 0.  1.
</event>
<event>
12    1  0.9028446E-003  0.1841219E+03  0.7818608E-02  0.1166199E+00
         21   -1    0    0  501  502  0.00000000000E+00  0.00000000000E+00  0.15182567067E+03  0.15182567067E+03  0.00000000000E+00 0.  1.
         21   -1    0    0  502  503 -0.00000000000E+00 -0.00000000000E+00 -0.26148293496E+03  0.26148293496E+03  0.00000000000E+00 0.  1.
          6    2    1    2  501    0  0.33642066306E+02  0.20273593628E+02  0.36445086933E+02  0.17826229030E+03  0.17001880060E+03 0.  0.
         24    2    3    3    0    0  0.22710837285E+02 -0.10986449543E+02 -0.41436410537E+02  0.93502041866E+02  0.79932293294E+02 0.  0.
         -6    2    1    2    0  503 -0.33642066306E+02 -0.20273593628E+02 -0.14610235123E+03  0.23504631533E+03  0.17988347921E+03 0.  0.
        -24    2    5    5    0    0  0.26703706623E+02 -0.30695102122E+02 -0.14915063250E+03  0.17355158248E+03  0.78860404296E+02 0.  0.
          5    1    3    3  501    0  0.10931229021E+02  0.31260043171E+02  0.77881497470E+02  0.84760248437E+02  0.47000000000E+01 0. -1.
        -13    1    4    4    0    0 -0.20019613640E+01 -0.13731484309E+02  0.21636975199E+02  0.25704478333E+02  0.00000000000E+00 0.  1.
         14    1    4    4    0    0  0.24712798649E+02  0.27450347659E+01 -0.63073385735E+02  0.67797563533E+02  0.00000000000E+00 0. -1.
         -5    1    5    5    0  503 -0.60345772929E+02  0.10421508494E+02  0.30482812655E+01  0.61494732851E+02  0.47000000000E+01 0.  1.
         11    1    6    6    0    0  0.23927029514E+02 -0.37767978551E+02 -0.29287660188E+02  0.53448011979E+02  0.00000000000E+00 0. -1.
        -12    1    6    6    0    0  0.27766771092E+01  0.70728764289E+01 -0.11986297231E+03  0.12010357050E+03  0.00000000000E+00 0.  1.
</event>
<event>
12    1  0.9028446E-003  0.2688641E+03  0.7818608E-02  0.1102162E+00
         21   -1    0    0  501  502  0.00000000000E+00  0.00000000000E+00  0.36748106102E+03  0.36748106102E+03  0.00000000000E+00 0. -1.
         21   -1    0    0  502  503 -0.00000000000E+00 -0.00000000000E+00 -0.21969378528E+03  0.21969378528E+03  0.00000000000E+00 0.  1.
          6    2    1    2  501    0  0.11537421904E+03 -0.17025797382E+03  0.17142368127E+03  0.31886356476E+03  0.17317305323E+03 0.  0.
         24    2    3    3    0    0  0.56081645716E+02 -0.14664405801E+03  0.52897231094E+02  0.18416450886E+03  0.80428965742E+02 0.  0.
         -6    2    1    2    0  503 -0.11537421904E+03  0.17025797382E+03 -0.23636405530E+02  0.26831128153E+03  0.17068472709E+03 0.  0.
        -24    2    5    5    0    0 -0.11355659096E+03  0.11202934892E+03  0.39456424485E+02  0.18230737622E+03  0.78952489643E+02 0.  0.
          5    1    3    3  501    0  0.59292573323E+02 -0.23613915813E+02  0.11852645017E+03  0.13469905591E+03  0.47000000000E+01 0. -1.
        -13    1    4    4    0    0 -0.77483111908E+01  0.32146817324E+00 -0.94576993711E+01  0.12230606914E+02  0.00000000000E+00 0.  1.
         14    1    4    4    0    0  0.63829956907E+02 -0.14696552618E+03  0.62354930465E+02  0.17193390194E+03  0.00000000000E+00 0. -1.
         -5    1    5    5    0  503 -0.18176280789E+01  0.58228624900E+02 -0.63092830015E+02  0.86003905312E+02  0.47000000000E+01 0.  1.
         11    1    6    6    0    0 -0.36652670684E+02  0.55158413965E+02  0.54139312011E+02  0.85539078815E+02  0.00000000000E+00 0. -1.
        -12    1    6    6    0    0 -0.76903920276E+02  0.56870934956E+02 -0.14682887526E+02  0.96768297405E+02  0.00000000000E+00 0.  1.
</event>
<event>
12    1  0.9028446E-003  0.1886018E+03  0.7818608E-02  0.1159786E+00
         21   -1    0    0  501  502  0.00000000000E+00  0.00000000000E+00  0.11311630948E+03  0.11311630948E+03  0.00000000000E+00 0.  1.
         21   -1    0    0  502  503 -0.00000000000E+00 -0.00000000000E+00 -0.32693596766E+03  0.32693596766E+03  0.00000000000E+00 0.  1.
          6    2    1    2  501    0 -0.14104994336E+02  0.74884676693E+02 -0.63148302379E+02  0.19865527770E+03  0.17224849955E+03 0.  0.
         24    2    3    3    0    0 -0.50172565917E+02  0.84152603741E+02 -0.87917022122E+02  0.15368480217E+03  0.79313734956E+02 0.  0.
         -6    2    1    2    0  503  0.14104994336E+02 -0.74884676693E+02 -0.15067135579E+03  0.24139699944E+03  0.17252242815E+03 0.  0.
        -24    2    5    5    0    0  0.57815667383E+02  0.10964587224E+01 -0.10510648451E+03  0.14249298854E+03  0.76896196783E+02 0.  0.
          5    1    3    3  501    0  0.36067571581E+02 -0.92679270481E+01  0.24768719743E+02  0.44970475528E+02  0.47000000000E+01 0. -1.
        -13    1    4    4    0    0  0.15264723076E+02 -0.32742686002E+01 -0.44440280161E+01  0.16232128341E+02  0.00000000000E+00 0.  1.
         14    1    4    4    0    0 -0.65437288994E+02  0.87426872342E+02 -0.83472994106E+02  0.13745267383E+03  0.00000000000E+00 0. -1.
         -5    1    5    5    0  503 -0.43710673047E+02 -0.75981135416E+02 -0.45564871283E+02  0.98904010901E+02  0.47000000000E+01 0.  1.
         11    1    6    6    0    0 -0.11218845952E+02 -0.53516152738E+01  0.41403145088E+01  0.13101316528E+02  0.00000000000E+00 0. -1.
        -12    1    6    6    0    0  0.69034513335E+02  0.64480739962E+01 -0.10924679902E+03  0.12939167201E+03  0.00000000000E+00 0.  1.
</event>
<event>
12    1  0.9028446E-003  0.1925214E+03  0.7818608E-02  0.1156974E+00
         21   -1    0    0  503  502  0.00000000000E+00  0.00000000000E+00  0.27903727042E+02  0.27903727042E+02  0.00000000000E+00 0.  1.
         21   -1    0    0  501  503 -0.00000000000E+00 -0.00000000000E+00 -0.16881356700E+04  0.16881356700E+04  0.00000000000E+00 0.  1.
          6    2    1    2  501    0 -0.65241193964E+02  0.51364442206E+02 -0.12332369863E+04  0.12476493925E+04  0.16988473394E+03 0.  0.
         24    2    3    3    0    0  0.19488496446E+02  0.18305758697E+02 -0.83636702028E+03  0.84046410673E+03  0.78455208814E+02 0.  0.
         -6    2    1    2    0  502  0.65241193964E+02 -0.51364442206E+02 -0.42699495670E+03  0.46839000462E+03  0.17369451364E+03 0.  0.
        -24    2    5    5    0    0  0.74005809341E+01 -0.86855614397E+02 -0.29421642638E+03  0.31920090336E+03  0.87904748489E+02 0.  0.
          5    1    3    3  501    0 -0.84729690410E+02  0.33058683509E+02 -0.39686996602E+03  0.40718528574E+03  0.47000000000E+01 0. -1.
        -13    1    4    4    0    0 -0.16772542822E+02 -0.20849603731E+02 -0.39027436418E+03  0.39119062297E+03  0.00000000000E+00 0.  1.
         14    1    4    4    0    0  0.36261039268E+02  0.39155362428E+02 -0.44609265611E+03  0.44927348376E+03  0.00000000000E+00 0. -1.
         -5    1    5    5    0  502  0.57840613029E+02  0.35491172191E+02 -0.13277853032E+03  0.14918910126E+03  0.47000000000E+01 0.  1.
         13    1    6    6    0    0  0.32314620641E+02 -0.18151126071E+01 -0.11194803819E+03  0.11653279622E+03  0.00000000000E+00 0. -1.
        -14    1    6    6    0    0 -0.24914039707E+02 -0.85040501790E+02 -0.18226838819E+03  0.20266810714E+03  0.00000000000E+00 0.  1.
</event>
<event>
12    1  0.9028446E-003  0.2575034E+03  0.7818608E-02  0.1108745E+00
         21   -1    0    0  503  502  0.00000000000E+00  0.00000000000E+00  0.90614671525E+03  0.90614671525E+03  0.00000000000E+00 0. -1.
         21   -1    0    0  501  503 -0.00000000000E+00 -0.00000000000E+00 -0.77288569214E+02  0.77288569214E+02  0.00000000000E+00 0. -1.
          6    2    1    2  501    0  0.19001353177E+03 -0.24593958464E+02  0.29911635072E+03  0.39468793901E+03  0.17204061403E+03 0.  0.
         24    2    3    3    0    0  0.11427944590E+03 -0.46273515271E+02  0.27619915089E+03  0.31251164684E+03  0.78590893161E+02 0.  0.
         -6    2    1    2    0  502 -0.19001353177E+03  0.24593958464E+02  0.52974179532E+03  0.58874734546E+03  0.17113463131E+03 0.  0.
        -24    2    5    5    0    0 -0.20612047161E+03  0.45169750203E+02  0.50428710385E+03  0.55196653478E+03  0.76391211898E+02 0.  0.
          5    1    3    3  501    0  0.75734085870E+02  0.21679556807E+02  0.22917199836E+02  0.82176292166E+02  0.47000000000E+01 0. -1.
        -13    1    4    4    0    0  0.33091384390E+02  0.20216247425E+02  0.10229373816E+03  0.10939719031E+03  0.00000000000E+00 0.  1.
         14    1    4    4    0    0  0.81188061514E+02 -0.66489762697E+02  0.17390541273E+03  0.20311445653E+03  0.00000000000E+00 0. -1.
         -5    1    5    5    0  502  0.16106939841E+02 -0.20575791739E+02  0.25454691468E+02  0.36780810682E+02  0.47000000000E+01 0.  1.
         11    1    6    6    0    0 -0.13469514187E+03 -0.19264752663E+01  0.35789754097E+03  0.38240965257E+03  0.00000000000E+00 0. -1.
        -12    1    6    6    0    0 -0.71425329749E+02  0.47096225470E+02  0.14638956288E+03  0.16955688221E+03  0.00000000000E+00 0.  1.
</event>
<event>
12    1  0.9028446E-003  0.2390582E+03  0.7818608E-02  0.1120591E+00
         21   -1    0    0  503  502  0.00000000000E+00  0.00000000000E+00  0.80998116044E+02  0.80998116044E+02  0.00000000000E+00 0. -1.
         21   -1    0    0  501  503 -0.00000000000E+00 -0.00000000000E+00 -0.70788071084E+03  0.70788071084E+03  0.00000000000E+00 0.  1.
          6    2    1    2  501    0 -0.16399111099E+03 -0.12295168689E+02 -0.34821659570E+03  0.42237854958E+03  0.17350673175E+03 0.  0.
         24    2    3    3    0    0 -0.15170969307E+03  0.76127068774E+01 -0.35751950940E+03  0.39677013418E+03  0.80824225932E+02 0.  0.
         -6    2    1    2    0  502  0.16399111099E+03  0.12295168689E+02 -0.27866599909E+03  0.36650027731E+03  0.17211466689E+03 0.  0.
        -24    2    5    5    0    0  0.12805414833E+03  0.68546898857E+02 -0.16005201646E+03  0.23031257850E+03  0.79565655854E+02 0.  0.
          5    1    3    3  501    0 -0.12281417923E+02 -0.19907875566E+02  0.93029137005E+01  0.25608415396E+02  0.47000000000E+01 0. -1.
        -11    1    4    4    0    0 -0.10028372823E+03 -0.31976527065E+02 -0.24885760811E+03  0.27020257871E+03  0.00000000000E+00 0.  1.
         12    1    4    4    0    0 -0.51425964842E+02  0.39589233942E+02 -0.10866190130E+03  0.12656755547E+03  0.00000000000E+00 0. -1.
         -5    1    5    5    0  502  0.35936962658E+02 -0.56251730169E+02 -0.11861398263E+03  0.13618769881E+03  0.47000000000E+01 0.  1.
         11    1    6    6    0    0  0.18098084475E+02  0.31187014842E+02 -0.47148515978E+01  0.36364823415E+02  0.00000000000E+00 0. -1.
        -12    1    6    6    0    0  0.10995606386E+03  0.37359884016E+02 -0.15533716486E+03  0.19394775508E+03  0.00000000000E+00 0.  1.
</event>
<event>
12    1  0.9028446E-003  0.2686080E+03  0.7818608E-02  0.1102384E+00
         21   -1    0    0  503  502  0.00000000000E+00  0.00000000000E+00  0.93660270646E+02  0.93660270646E+02  0.00000000000E+00 0.  1.
         21   -1    0    0  501  503 -0.00000000000E+00 -0.00000000000E+00 -0.83549652994E+03  0.83549652994E+03  0.00000000000E+00 0. -1.
          6    2    1    2  501    0  0.19694522207E+03  0.60834291741E+02 -0.50520123792E+03  0.57118138865E+03  0.16891316229E+03 0.  0.
         24    2    3    3    0    0  0.10737669302E+03  0.70878512914E+01 -0.40543209065E+03  0.42665743214E+03  0.77983283061E+02 0.  0.
         -6    2    1    2    0  502 -0.19694522207E+03 -0.60834291741E+02 -0.23663502137E+03  0.35797541194E+03  0.17222668395E+03 0.  0.
        -24    2    5    5    0    0 -0.21898182489E+03 -0.50773242115E+02 -0.23156987357E+03  0.33278449481E+03  0.81178518658E+02 0.  0.
          5    1    3    3  501    0  0.89568529046E+02  0.53746440449E+02 -0.99769147279E+02  0.14452395651E+03  0.47000000000E+01 0. -1.
        -13    1    4    4    0    0  0.13623075127E+02 -0.84419413266E+01 -0.77940803509E+01  0.17821398312E+02  0.00000000000E+00 0.  1.
         14    1    4    4    0    0  0.93753617894E+02  0.15529792618E+02 -0.39763801029E+03  0.40883603383E+03  0.00000000000E+00 0. -1.
         -5    1    5    5    0  502  0.22036602822E+02 -0.10061049625E+02 -0.50651478014E+01  0.25190917128E+02  0.47000000000E+01 0.  1.
         13    1    6    6    0    0 -0.21706043263E+03 -0.31184689954E+02 -0.21387855962E+03  0.30631969340E+03  0.00000000000E+00 0. -1.
        -14    1    6    6    0    0 -0.19213922562E+01 -0.19588552161E+02 -0.17691313955E+02  0.26464801405E+02  0.00000000000E+00 0.  1.
</event>
<event>
12    1  0.9028446E-003  0.1988402E+03  0.7818608E-02  0.1150888E+00
         21   -1    0    0  503  502  0.00000000000E+00  0.00000000000E+00  0.96367777948E+03  0.96367777948E+03  0.00000000000E+00 0. -1.
         21   -1    0    0  501  503 -0.00000000000E+00 -0.00000000000E+00 -0.42362937545E+02  0.42362937545E+02  0.00000000000E+00 0. -1.
          6    2    1    2  501    0  0.78526834227E+02 -0.62719842054E+02  0.36698852962E+03  0.41739432568E+03  0.17157272498E+03 0.  0.
         24    2    3    3    0    0 -0.73290467809E+00 -0.64457543432E+02  0.28634850651E+03  0.30421292640E+03  0.79967026641E+02 0.  0.
         -6    2    1    2    0  502 -0.78526834227E+02  0.62719842054E+02  0.55432631231E+03  0.58864639134E+03  0.17066537797E+03 0.  0.
        -24    2    5    5    0    0 -0.10618598025E+03  0.76719390930E+02  0.35421757697E+03  0.38609612181E+03  0.80242109240E+02 0.  0.
          5    1    3    3  501    0  0.79259738905E+02  0.17377013776E+01  0.80640023110E+02  0.11318139929E+03  0.47000000000E+01 0. -1.
        -13    1    4    4    0    0  0.91024787180E+01 -0.63556027857E+02  0.10837606599E+03  0.12596664430E+03  0.00000000000E+00 0.  1.
         14    1    4    4    0    0 -0.98353833961E+01 -0.90151557485E+00  0.17797244052E+03  0.17824628210E+03  0.00000000000E+00 0. -1.
         -5    1    5    5    0  502  0.27659146024E+02 -0.13999548876E+02  0.20010873534E+03  0.20255026953E+03  0.47000000000E+01 0.  1.
         11    1    6    6    0    0 -0.60923007619E+02  0.21126712784E+02  0.25901355004E+03  0.26691940723E+03  0.00000000000E+00 0. -1.
        -12    1    6    6    0    0 -0.45262972631E+02  0.55592678146E+02  0.95204026933E+02  0.11917671458E+03  0.00000000000E+00 0.  1.
</event>
<event>
12    1  0.9028446E-003  0.3008961E+03  0.7818608E-02  0.1084801E+00
         21   -1    0    0  501  502  0.00000000000E+00  0.00000000000E+00  0.10783057572E+03  0.10783057572E+03  0.00000000000E+00 0.  1.
         21   -1    0    0  502  503 -0.00000000000E+00 -0.00000000000E+00 -0.85473565418E+03  0.85473565418E+03  0.00000000000E+00 0. -1.
          6    2    1    2  501    0 -0.14317420275E+03 -0.20127832951E+03 -0.30908288636E+03  0.43131605087E+03  0.17172503266E+03 0.  0.
         24    2    3    3    0    0 -0.13289160392E+03 -0.22380272540E+03 -0.26269783617E+03  0.37852643893E+03  0.80772975364E+02 0.  0.
         -6    2    1    2    0  503  0.14317420275E+03  0.20127832951E+03 -0.43782219210E+03  0.53125017902E+03  0.17183324054E+03 0.  0.
        -24    2    5    5    0    0  0.10340033675E+03  0.21721082604E+03 -0.33820958529E+03  0.42271186183E+03  0.80171204094E+02 0.  0.
          5    1    3    3  501    0 -0.10282598823E+02  0.22524395890E+02 -0.46385050185E+02  0.52789611946E+02  0.47000000000E+01 0. -1.
        -13    1    4    4    0    0 -0.11667885753E+03 -0.13449965527E+03 -0.20233069202E+03  0.26952146853E+03  0.00000000000E+00 0.  1.
         14    1    4    4    0    0 -0.16212746391E+02 -0.89303070122E+02 -0.60367144154E+02  0.10900497040E+03  0.00000000000E+00 0. -1.
         -5    1    5    5    0  503  0.39773866000E+02 -0.15932496530E+02 -0.99612606819E+02  0.10853831720E+03  0.47000000000E+01 0.  1.
         11    1    6    6    0    0  0.51190793775E+02  0.50867206671E+02 -0.14819769609E+03  0.16483484828E+03  0.00000000000E+00 0. -1.
        -12    1    6    6    0    0  0.52209542971E+02  0.16634361936E+03 -0.19001188920E+03  0.25787701355E+03  0.00000000000E+00 0.  1.
</event>
<event>
12    1  0.9028446E-003  0.1893014E+03  0.7818608E-02  0.1160944E+00
         21   -1    0    0  503  502  0.00000000000E+00  0.00000000000E+00  0.92363713687E+03  0.92363713687E+03  0.00000000000E+00 0.  1.
         21   -1    0    0  501  503 -0.00000000000E+00 -0.00000000000E+00 -0.37212633238E+02  0.37212633238E+02  0.00000000000E+00 0.  1.
          6    2    1    2  501    0 -0.77346035242E+02  0.11135275647E+02  0.46721985834E+03  0.50411250415E+03  0.17241988655E+03 0.  0.
         24    2    3    3    0    0 -0.51117968020E+02 -0.57448387059E+02  0.33202187946E+03  0.35018975146E+03  0.80504470432E+02 0.  0.
         -6    2    1    2    0  502  0.77346035242E+02 -0.11135275647E+02  0.41920464530E+03  0.45673726597E+03  0.16361537811E+03 0.  0.
        -24    2    5    5    0    0  0.35379114672E+02  0.55337501626E+02  0.24565300447E+03  0.26615365026E+03  0.78603092194E+02 0.  0.
          5    1    3    3  501    0 -0.26228067223E+02  0.68583662707E+02  0.13519797888E+03  0.15392275269E+03  0.47000000000E+01 0. -1.
        -13    1    4    4    0    0 -0.57603277847E+02 -0.85631113905E+01  0.22395746265E+03  0.23140529288E+03  0.00000000000E+00 0.  1.
         14    1    4    4    0    0  0.64853098274E+01 -0.48885275669E+02  0.10806441680E+03  0.11878445858E+03  0.00000000000E+00 0. -1.
         -5    1    5    5    0  502  0.41966920570E+02 -0.66472777273E+02  0.17355164083E+03  0.19058361570E+03  0.47000000000E+01 0.  1.
         13    1    6    6    0    0  0.36908451265E+02 -0.76678918258E+01  0.11643852700E+03  0.12238856527E+03  0.00000000000E+00 0. -1.
        -14    1    6    6    0    0 -0.15293365926E+01  0.63005393451E+02  0.12921447747E+03  0.14376508499E+03  0.00000000000E+00 0.  1.
</event>
<event>
12    1  0.9028446E-003  0.2621830E+03  0.7818608E-02  0.1106033E+00
         21   -1    0    0  503  502  0.00000000000E+00  0.00000000000E+00  0.42784342940E+03  0.42784342940E+03  0.00000000000E+00 0.  1.
         21   -1    0    0  501  503 -0.00000000000E+00 -0.00000000000E+00 -0.16057760108E+03  0.16057760108E+03  0.00000000000E+00 0. -1.
          6    2    1    2  501    0 -0.15461330666E+03 -0.12476091469E+03  0.15350858586E+03  0.30381702968E+03  0.17108284882E+03 0.  0.
         24    2    3    3    0    0 -0.15495407211E+03 -0.12423750440E+03  0.17823952809E+03  0.27863569566E+03  0.80142370577E+02 0.  0.
         -6    2    1    2    0  502  0.15461330666E+03  0.12476091469E+03  0.11375724247E+03  0.28460400080E+03  0.16908035554E+03 0.  0.
        -24    2    5    5    0    0  0.48235369752E+02  0.31589562037E+02  0.78200744490E+00  0.10354417604E+03  0.86001357725E+02 0.  0.
          5    1    3    3  501    0  0.34076544702E+00 -0.52341028968E+00 -0.24730942228E+02  0.25181334017E+02  0.47000000000E+01 0. -1.
        -11    1    4    4    0    0 -0.11393909639E+03 -0.71563542798E+02  0.70527872460E+02  0.15191326189E+03  0.00000000000E+00 0.  1.
         12    1    4    4    0    0 -0.41014975723E+02 -0.52673961599E+02  0.10771165562E+03  0.12672243377E+03  0.00000000000E+00 0. -1.
         -5    1    5    5    0  502  0.10637793691E+03  0.93171352650E+02  0.11297523502E+03  0.18105982477E+03  0.47000000000E+01 0.  1.
         11    1    6    6    0    0 -0.21890633596E+01  0.29154431579E+02  0.32663312892E+02  0.43836798334E+02  0.00000000000E+00 0. -1.
        -12    1    6    6    0    0  0.50424433112E+02  0.24351304580E+01 -0.31881305447E+02  0.59707377702E+02  0.00000000000E+00 0.  1.
</event>
<event>
12    1  0.9028446E-003  0.1840992E+03  0.7818608E-02  0.1163931E+00
         21   -1    0    0  503  502  0.00000000000E+00  0.00000000000E+00  0.15103999668E+02  0.15103999668E+02  0.00000000000E+00 0.  1.
         21   -1    0    0  501  503 -0.00000000000E+00 -0.00000000000E+00 -0.25908938510E+04  0.25908938510E+04  0.00000000000E+00 0. -1.
          6    2    1    2  501    0  0.40162370977E+02  0.53202274163E+02 -0.17655597904E+04  0.17751156220E+04  0.17143686876E+03 0.  0.
         24    2    3    3    0    0  0.88201457507E+02  0.44859923540E+02 -0.10116394596E+04  0.10196056592E+04  0.79933686696E+02 0.  0.
         -6    2    1    2    0  502 -0.40162370977E+02 -0.53202274163E+02 -0.81023006090E+03  0.83088222864E+03  0.17160719175E+03 0.  0.
        -24    2    5    5    0    0 -0.66216654874E+02 -0.90294864196E+02 -0.64617832571E+03  0.66061846925E+03  0.79577166336E+02 0.  0.
          5    1    3    3  501    0 -0.48039086530E+02  0.83423506233E+01 -0.75392033082E+03  0.75550996279E+03  0.47000000000E+01 0. -1.
        -11    1    4    4    0    0  0.23408703806E+02 -0.21922569392E+02 -0.18663174782E+03  0.18936730382E+03  0.00000000000E+00 0.  1.
         12    1    4    4    0    0  0.64792753700E+02  0.66782492932E+02 -0.82500771178E+03  0.83023835540E+03  0.00000000000E+00 0. -1.
         -5    1    5    5    0  502  0.26054283898E+02  0.37092590033E+02 -0.16405173519E+03  0.17026375939E+03  0.47000000000E+01 0.  1.
         11    1    6    6    0    0 -0.84789819137E+01 -0.27328820404E+02 -0.37979509664E+03  0.38087146518E+03  0.00000000000E+00 0. -1.
        -12    1    6    6    0    0 -0.57737672960E+02 -0.62966043793E+02 -0.26638322908E+03  0.27974700407E+03  0.00000000000E+00 0.  1.
</event>
<event>
12    1  0.9028446E-003  0.1757436E+03  0.7818608E-02  0.1172349E+00
         21   -1    0    0  503  502  0.00000000000E+00  0.00000000000E+00  0.10939314079E+03  0.10939314079E+03  0.00000000000E+00 0.  1.
         21   -1    0    0  501  503 -0.00000000000E+00 -0.00000000000E+00 -0.28039780557E+03  0.28039780557E+03  0.00000000000E+00 0.  1.
          6    2    1    2  501    0  0.28467323871E+02  0.13652176277E+02 -0.92235421190E+02  0.19720226963E+03  0.17141934482E+03 0.  0.
         24    2    3    3    0    0  0.10969506291E+01  0.65987578262E+02 -0.88787566872E+02  0.13785490801E+03  0.82250713341E+02 0.  0.
         -6    2    1    2    0  502 -0.28467323871E+02 -0.13652176277E+02 -0.78769243591E+02  0.19258867672E+03  0.17288445338E+03 0.  0.
        -24    2    5    5    0    0 -0.30348393346E+02  0.55587842554E+02 -0.67220753049E+02  0.12220987122E+03  0.80034928403E+02 0.  0.
          5    1    3    3  501    0  0.27370373242E+02 -0.52335401985E+02 -0.34478543184E+01  0.59347361624E+02  0.47000000000E+01 0. -1.
        -13    1    4    4    0    0  0.35884065754E+02  0.55043282299E+02 -0.39932152858E+02  0.76889569730E+02  0.00000000000E+00 0.  1.
         14    1    4    4    0    0 -0.34787115125E+02  0.10944295962E+02 -0.48855414014E+02  0.60965338278E+02  0.00000000000E+00 0. -1.
         -5    1    5    5    0  502  0.18810694753E+01 -0.69240018830E+02 -0.11548490542E+02  0.70378805501E+02  0.47000000000E+01 0.  1.
         11    1    6    6    0    0  0.19121031942E+02 -0.86110253289E+01 -0.12389510155E+02  0.24357002722E+02  0.00000000000E+00 0. -1.
        -12    1    6    6    0    0 -0.49469425288E+02  0.64198867883E+02 -0.54831242894E+02  0.97852868497E+02  0.00000000000E+00 0.  1.
</event>
<event>
12    1  0.9028446E-003  0.2196154E+03  0.7818608E-02  0.1135887E+00
         21   -1    0    0  503  502  0.00000000000E+00  0.00000000000E+00  0.13956675474E+03  0.13956675474E+03  0.00000000000E+00 0.  1.
         21   -1    0    0  501  503 -0.00000000000E+00 -0.00000000000E+00 -0.35608166333E+03  0.35608166333E+03  0.00000000000E+00 0.  1.
          6    2    1    2  501    0  0.70337359308E+02 -0.92889271508E+02 -0.45362123165E+02  0.22425132366E+03  0.18615899943E+03 0.  0.
         24    2    3    3    0    0 -0.19267205766E+02 -0.52415799746E+01  0.95660777086E+01  0.87319613804E+02  0.84466003418E+02 0.  0.
         -6    2    1    2    0  502 -0.70337359308E+02  0.92889271508E+02 -0.17115278543E+03  0.27139709441E+03  0.17546323268E+03 0.  0.
        -24    2    5    5    0    0 -0.24948407906E+02  0.90338463760E+00 -0.12935124573E+03  0.16053222616E+03  0.91736643179E+02 0.  0.
          5    1    3    3  501    0  0.89604565075E+02 -0.87647691533E+02 -0.54928200873E+02  0.13693170986E+03  0.47000000000E+01 0. -1.
        -11    1    4    4    0    0  0.31020193010E+02 -0.15166851185E+02 -0.26352368934E+01  0.34629903591E+02  0.00000000000E+00 0.  1.
         12    1    4    4    0    0 -0.50287398776E+02  0.99252712101E+01  0.12201314602E+02  0.52689710213E+02  0.00000000000E+00 0. -1.
         -5    1    5    5    0  502 -0.45388951402E+02  0.91985886870E+02 -0.41801539693E+02  0.11086486826E+03  0.47000000000E+01 0.  1.
         13    1    6    6    0    0 -0.10649540266E+02  0.24497160121E+02  0.15485793860E+01  0.26756712429E+02  0.00000000000E+00 0. -1.
        -14    1    6    6    0    0 -0.14298867640E+02 -0.23593775484E+02 -0.13089982512E+03  0.13377551373E+03  0.00000000000E+00 0.  1.
</event>
<event>
12    1  0.9028446E-003  0.1772496E+03  0.7818608E-02  0.1170818E+00
         21   -1    0    0  501  502  0.00000000000E+00  0.00000000000E+00  0.17147207539E+03  0.17147207539E+03  0.00000000000E+00 0.  1.
         21   -1    0    0  502  503 -0.00000000000E+00 -0.00000000000E+00 -0.18504995417E+03  0.18504995417E+03  0.00000000000E+00 0.  1.
          6    2    1    2  501    0 -0.39872682164E+02 -0.87762293169E+00 -0.30155845693E+02  0.17849881064E+03  0.17135299637E+03 0.  0.
         24    2    3    3    0    0 -0.37609030804E+02  0.49653146256E+01  0.47231260167E+02  0.10071630496E+03  0.80460478494E+02 0.  0.
         -6    2    1    2    0  503  0.39872682164E+02  0.87762293169E+00  0.16577966905E+02  0.17802321892E+03  0.17270447731E+03 0.  0.
        -24    2    5    5    0    0  0.67405778267E+02  0.48473346237E+02 -0.13280017362E+02  0.11527759372E+03  0.78862922295E+02 0.  0.
          5    1    3    3  501    0 -0.22636513593E+01 -0.58429375573E+01 -0.77387105859E+02  0.77782505681E+02  0.47000000000E+01 0. -1.
        -13    1    4    4    0    0 -0.11859346364E+02 -0.37350529936E+02  0.17264090821E+02  0.42822365822E+02  0.00000000000E+00 0.  1.
         14    1    4    4    0    0 -0.25749684440E+02  0.42315844562E+02  0.29967169345E+02  0.57893939133E+02  0.00000000000E+00 0. -1.
         -5    1    5    5    0  503 -0.27533096103E+02 -0.47595723305E+02  0.29857984267E+02  0.62745625206E+02  0.47000000000E+01 0.  1.
         13    1    6    6    0    0  0.45313836964E+01  0.35647062091E+02  0.21915860568E+02  0.42089801833E+02  0.00000000000E+00 0. -1.
        -14    1    6    6    0    0  0.62874394570E+02  0.12826284146E+02 -0.35195877930E+02  0.73187791884E+02  0.00000000000E+00 0.  1.
</event>
<event>
12    1  0.9028446E-003  0.2081923E+03  0.7818608E-02  0.1143279E+00
         21   -1    0    0  501  502  0.00000000000E+00  0.00000000000E+00  0.49824521569E+02  0.49824521569E+02  0.00000000000E+00 0. -1.
         21   -1    0    0  502  503 -0.00000000000E+00 -0.00000000000E+00 -0.89171549263E+03  0.89171549263E+03  0.00000000000E+00 0. -1.
          6    2    1    2  501    0 -0.13260776154E+02  0.11497768682E+03 -0.33701318361E+03  0.39542134369E+03  0.17141889179E+03 0.  0.
         24    2    3    3    0    0 -0.68230036457E+01  0.36910207088E+01 -0.72285379618E+02  0.10814261636E+03  0.80059180317E+02 0.  0.
         -6    2    1    2    0  503  0.13260776154E+02 -0.11497768682E+03 -0.50487778745E+03  0.54611867051E+03  0.17305578687E+03 0.  0.
        -24    2    5    5    0    0 -0.57452829125E+02 -0.85518799544E+02 -0.35739726878E+03  0.37986334459E+03  0.77130150912E+02 0.  0.
          5    1    3    3  501    0 -0.64377725082E+01  0.11128666612E+03 -0.26472780399E+03  0.28727872733E+03  0.47000000000E+01 0. -1.
        -13    1    4    4    0    0  0.86732780089E+01  0.15064659153E+02 -0.83901370891E+02  0.85683194060E+02  0.00000000000E+00 0.  1.
         14    1    4    4    0    0 -0.15496281655E+02 -0.11373638444E+02  0.11615991274E+02  0.22459422295E+02  0.00000000000E+00 0. -1.
         -5    1    5    5    0  503  0.70713605279E+02 -0.29458887280E+02 -0.14748051867E+03  0.16625532592E+03  0.47000000000E+01 0.  1.
         13    1    6    6    0    0 -0.31589497924E+02 -0.49981939922E+02 -0.82648158354E+02  0.10162090718E+03  0.00000000000E+00 0. -1.
        -14    1    6    6    0    0 -0.25863331201E+02 -0.35536859622E+02 -0.27474911043E+03  0.27824243740E+03  0.00000000000E+00 0.  1.
</event>
<event>
12    1  0.9028446E-003  0.1868617E+03  0.7818608E-02  0.1161841E+00
         21   -1    0    0  501  502  0.00000000000E+00  0.00000000000E+00  0.13203677416E+03  0.13203677416E+03  0.00000000000E+00 0.  1.
         21   -1    0    0  502  503 -0.00000000000E+00 -0.00000000000E+00 -0.27920799572E+03  0.27920799572E+03  0.00000000000E+00 0.  1.
          6    2    1    2  501    0  0.45362258566E+02  0.57491670449E+02 -0.21093390378E+02  0.18582759738E+03  0.16948137997E+03 0.  0.
         24    2    3    3    0    0  0.75361386587E+02  0.17427743230E-01  0.15522879470E+02  0.11122144834E+03  0.80311343479E+02 0.  0.
         -6    2    1    2    0  503 -0.45362258566E+02 -0.57491670449E+02 -0.12607783118E+03  0.22541717250E+03  0.17191351160E+03 0.  0.
        -24    2    5    5    0    0 -0.55031604280E+02 -0.43751704143E+02 -0.15713223160E+03  0.18979767354E+03  0.79937035140E+02 0.  0.
          5    1    3    3  501    0 -0.29999128021E+02  0.57474242706E+02 -0.36616269848E+02  0.74606149038E+02  0.47000000000E+01 0. -1.
        -11    1    4    4    0    0  0.14787370561E+02  0.36612012760E+01  0.42250271130E+02  0.44912761365E+02  0.00000000000E+00 0.  1.
         12    1    4    4    0    0  0.60574016027E+02 -0.36437735328E+01 -0.26727391661E+02  0.66308686973E+02  0.00000000000E+00 0. -1.
         -5    1    5    5    0  503  0.96693457143E+01 -0.13739966306E+02  0.31054400423E+02  0.35619498961E+02  0.47000000000E+01 0.  1.
         13    1    6    6    0    0  0.80561547205E+01  0.17013279177E+02 -0.29766657395E+02  0.35219414954E+02  0.00000000000E+00 0. -1.
        -14    1    6    6    0    0 -0.63087759001E+02 -0.60764983320E+02 -0.12736557421E+03  0.15457825859E+03  0.00000000000E+00 0.  1.
</event>
<event>
12    1  0.9028446E-003  0.1729890E+03  0.7818608E-02  0.1177394E+00
         21   -1    0    0  501  502  0.00000000000E+00  0.00000000000E+00  0.12214114613E+03  0.12214114613E+03  0.00000000000E+00 0. -1.
         21   -1    0    0  502  503 -0.00000000000E+00 -0.00000000000E+00 -0.26221333154E+03  0.26221333154E+03  0.00000000000E+00 0. -1.
          6    2    1    2  501    0 -0.12475352880E+02 -0.71204174820E+01 -0.19882114870E+01  0.16301223765E+03  0.16236595044E+03 0.  0.
         24    2    3    3    0    0 -0.45550011532E+02 -0.38791746723E+02 -0.36035344409E+02  0.10575576726E+03  0.79411164821E+02 0.  0.
         -6    2    1    2    0  503  0.12475352880E+02  0.71204174820E+01 -0.13808397393E+03  0.22134224002E+03  0.17239161402E+03 0.  0.
        -24    2    5    5    0    0 -0.34352322731E+02  0.36721035555E+02 -0.13588421343E+03  0.16570091779E+03  0.80397500996E+02 0.  0.
          5    1    3    3  501    0  0.33074658653E+02  0.31671329241E+02  0.34047132922E+02  0.57256470387E+02  0.47000000000E+01 0. -1.
        -11    1    4    4    0    0  0.11619404828E+02 -0.24740959275E+02 -0.38050568642E+02  0.46850521965E+02  0.00000000000E+00 0.  1.
         12    1    4    4    0    0 -0.57169416360E+02 -0.14050787448E+02  0.20152242328E+01  0.58905245298E+02  0.00000000000E+00 0. -1.
         -5    1    5    5    0  503  0.46827675611E+02 -0.29600618073E+02 -0.21997604982E+01  0.55641322232E+02  0.47000000000E+01 0.  1.
         13    1    6    6    0    0  0.23991400206E+02 -0.20518264116E+01 -0.26479659555E+02  0.35790636284E+02  0.00000000000E+00 0. -1.
        -14    1    6    6    0    0 -0.58343722937E+02  0.38772861967E+02 -0.10940455388E+03  0.12991028151E+03  0.00000000000E+00 0.  1.
</event>
<event>
12    1  0.9028446E-003  0.1878475E+03  0.7818608E-02  0.1160494E+00
         21   -1    0    0  501  502  0.00000000000E+00  0.00000000000E+00  0.30440674912E+03  0.30440674912E+03  0.00000000000E+00 0. -1.
         21   -1    0    0  502  503 -0.00000000000E+00 -0.00000000000E+00 -0.11633731192E+03  0.11633731192E+03  0.00000000000E+00 0. -1.
          6    2    1    2  501    0  0.52323973939E+02 -0.54785124111E+02  0.10953183134E+03  0.21744866705E+03  0.17189384123E+03 0.  0.
         24    2    3    3    0    0 -0.97167729669E+01 -0.23065263305E+02 -0.40601813452E+01  0.84105353791E+02  0.80192290250E+02 0.  0.
         -6    2    1    2    0  503 -0.52323973939E+02  0.54785124111E+02  0.78537605862E+02  0.20329539399E+03  0.17152741358E+03 0.  0.
        -24    2    5    5    0    0  0.25165157380E+02  0.25039563530E+02  0.80642459031E+01  0.94309393463E+02  0.86999797389E+02 0.  0.
          5    1    3    3  501    0  0.62040746906E+02 -0.31719860807E+02  0.11359201268E+03  0.13334331326E+03  0.47000000000E+01 0. -1.
        -13    1    4    4    0    0  0.10046716010E+02 -0.26655054237E+02 -0.36286312850E+02  0.46131604342E+02  0.00000000000E+00 0.  1.
         14    1    4    4    0    0 -0.19763488977E+02  0.35897909329E+01  0.32226131504E+02  0.37973749449E+02  0.00000000000E+00 0. -1.
         -5    1    5    5    0  503 -0.77489131320E+02  0.29745560581E+02  0.70473359959E+02  0.10898600053E+03  0.47000000000E+01 0.  1.
         11    1    6    6    0    0  0.35313520109E+02  0.43178635286E+02 -0.20112888773E+02  0.59295594629E+02  0.00000000000E+00 0. -1.
        -12    1    6    6    0    0 -0.10148362728E+02 -0.18139071757E+02  0.28177134676E+02  0.35013798834E+02  0.00000000000E+00 0.  1.
</event>
<event>
12    1  0.9028446E-003  0.1758122E+03  0.7818608E-02  0.1172349E+00
         21   -1    0    0  501  502  0.00000000000E+00  0.00000000000E+00  0.24965593474E+03  0.24965593474E+03  0.00000000000E+00 0.  1.
         21   -1    0    0  502  503 -0.00000000000E+00 -0.00000000000E+00 -0.15305928611E+03  0.15305928611E+03  0.00000000000E+00 0.  1.
          6    2    1    2  501    0 -0.30165918118E+01  0.26222229691E+02  0.13792767127E+03  0.22211013692E+03  0.17208185629E+03 0.  0.
         24    2    3    3    0    0  0.16339989386E+02  0.75834825525E+01  0.16477107293E+03  0.18383823675E+03  0.79514063895E+02 0.  0.
         -6    2    1    2    0  503  0.30165918118E+01 -0.26222229691E+02 -0.41331022648E+02  0.18060508393E+03  0.17381955515E+03 0.  0.
        -24    2    5    5    0    0  0.56507817055E+02  0.19314551422E+02 -0.21853096597E+00  0.99074497124E+02  0.79053924252E+02 0.  0.
          5    1    3    3  501    0 -0.19356581198E+02  0.18638747138E+02 -0.26843401654E+02  0.38271900174E+02  0.47000000000E+01 0. -1.
        -13    1    4    4    0    0 -0.54693658030E+01  0.40535160392E+02  0.98890755111E+02  0.10701586161E+03  0.00000000000E+00 0.  1.
         14    1    4    4    0    0  0.21809355189E+02 -0.32951677839E+02  0.65880317814E+02  0.76822375136E+02  0.00000000000E+00 0. -1.
         -5    1    5    5    0  503 -0.53491225243E+02 -0.45536781113E+02 -0.41112491682E+02  0.81530586803E+02  0.47000000000E+01 0.  1.
         13    1    6    6    0    0  0.14167278671E+02  0.46418365860E+02  0.35427252749E+01  0.48661354034E+02  0.00000000000E+00 0. -1.
        -14    1    6    6    0    0  0.42340538384E+02 -0.27103814438E+02 -0.37612562409E+01  0.50413143090E+02  0.00000000000E+00 0.  1.
</event>
<event>
12    1  0.9028446E-003  0.2411445E+03  0.7818608E-02  0.1119174E+00
         21   -1    0    0  501  502  0.00000000000E+00  0.00000000000E+00  0.63356320323E+02  0.63356320323E+02  0.00000000000E+00 0.  1.
         21   -1    0    0  502  503 -0.00000000000E+00 -0.00000000000E+00 -0.91510993696E+03  0.91510993696E+03  0.00000000000E+00 0.  1.
          6    2    1    2  501    0  0.12972028838E+03 -0.10823456511E+03 -0.43676085570E+03  0.49849788181E+03  0.17087427775E+03 0.  0.
         24    2    3    3    0    0  0.56715558458E+02 -0.11659658424E+03 -0.36687791120E+03  0.39698271109E+03  0.78641294155E+02 0.  0.
         -6    2    1    2    0  503 -0.12972028838E+03  0.10823456511E+03 -0.41499276094E+03  0.47996837548E+03  0.17207142564E+03 0.  0.
        -24    2    5    5    0    0 -0.80275960607E+02  0.11281031073E+03 -0.39473107242E+03  0.42613246721E+03  0.81276466576E+02 0.  0.
          5    1    3    3  501    0  0.73004729923E+02  0.83620191341E+01 -0.69882944497E+02  0.10151517072E+03  0.47000000000E+01 0. -1.
        -13    1    4    4    0    0 -0.17798922031E+02 -0.39981752765E+02 -0.12834047501E+03  0.13559727027E+03  0.00000000000E+00 0.  1.
         14    1    4    4    0    0  0.74514480490E+02 -0.76614831479E+02 -0.23853743619E+03  0.26138544082E+03  0.00000000000E+00 0. -1.
         -5    1    5    5    0  503 -0.49444327774E+02 -0.45757456219E+01 -0.20261688525E+02  0.53835908267E+02  0.47000000000E+01 0.  1.
         11    1    6    6    0    0  0.15049975771E+02  0.76867407884E+01 -0.25716306328E+02  0.30772002954E+02  0.00000000000E+00 0. -1.
        -12    1    6    6    0    0 -0.95325936378E+02  0.10512356994E+03 -0.36901476609E+03  0.39536046425E+03  0.00000000000E+00 0.  1.
</event>
<event>
12    1  0.9028446E-003  0.1839593E+03  0.7818608E-02  0.1164236E+00
         21   -1    0    0  503  502  0.00000000000E+00  0.00000000000E+00  0.22513514153E+02  0.22513514153E+02  0.00000000000E+00 0. -1.
         21   -1    0    0  501  503 -0.00000000000E+00 -0.00000000000E+00 -0.15491957481E+04  0.15491957481E+04  0.00000000000E+00 0. -1.
          6    2    1    2  501    0 -0.27312510872E+02  0.54125994985E+02 -0.61930030176E+03  0.64604481728E+03  0.17368202437E+03 0.  0.
         24    2    3    3    0    0 -0.60289692903E+02  0.53419773630E+02 -0.59308960448E+03  0.60365279049E+03  0.78440380175E+02 0.  0.
         -6    2    1    2    0  502  0.27312510872E+02 -0.54125994985E+02 -0.90738193218E+03  0.92566444496E+03  0.17273418088E+03 0.  0.
        -24    2    5    5    0    0  0.65944640707E+02 -0.39248820413E+02 -0.35360011034E+03  0.37031755519E+03  0.78821875843E+02 0.  0.
          5    1    3    3  501    0  0.32977182032E+02  0.70622135491E+00 -0.26210697284E+02  0.42392026791E+02  0.47000000000E+01 0. -1.
        -11    1    4    4    0    0 -0.14560823080E+02 -0.18243297805E+02 -0.72412019664E+02  0.76081115103E+02  0.00000000000E+00 0.  1.
         12    1    4    4    0    0 -0.45728869823E+02  0.71663071435E+02 -0.52067758482E+03  0.52757167539E+03  0.00000000000E+00 0. -1.
         -5    1    5    5    0  502 -0.38632129835E+02 -0.14877174572E+02 -0.55378182184E+03  0.55534688977E+03  0.47000000000E+01 0.  1.
         13    1    6    6    0    0  0.60271134400E+02 -0.26871193082E+02 -0.35009184938E+03  0.35625689280E+03  0.00000000000E+00 0. -1.
        -14    1    6    6    0    0  0.56735063064E+01 -0.12377627330E+02 -0.35082609545E+01  0.14060662398E+02  0.00000000000E+00 0.  1.
</event>
<event>
12    1  0.9028446E-003  0.4882965E+03  0.7818608E-02  0.1016905E+00
         21   -1    0    0  503  502  0.00000000000E+00  0.00000000000E+00  0.55029715316E+03  0.55029715316E+03  0.00000000000E+00 0. -1.
         21   -1    0    0  501  503 -0.00000000000E+00 -0.00000000000E+00 -0.43698389788E+03  0.43698389788E+03  0.00000000000E+00 0.  1.
          6    2    1    2  501    0  0.18570877538E+03  0.41740205378E+03  0.92656829252E+01  0.48838443798E+03  0.17239861551E+03 0.  0.
         24    2    3    3    0    0  0.62097261561E+02  0.20494491284E+03  0.24714370613E+02  0.24205418195E+03  0.11009513928E+03 0.  0.
         -6    2    1    2    0  502 -0.18570877538E+03 -0.41740205378E+03  0.10404757235E+03  0.49889661306E+03  0.17134675210E+03 0.  0.
        -24    2    5    5    0    0 -0.13231713885E+03 -0.34362078238E+03  0.34852271306E+02  0.38442206328E+03  0.10479777957E+03 0.  0.
          5    1    3    3  501    0  0.12361151382E+03  0.21245714093E+03 -0.15448687688E+02  0.24633025603E+03  0.47000000000E+01 0. -1.
        -11    1    4    4    0    0  0.17132888852E+02  0.90689205503E+02 -0.43017979103E+02  0.10182639344E+03  0.00000000000E+00 0.  1.
         12    1    4    4    0    0  0.44964372709E+02  0.11425570734E+03  0.67732349716E+02  0.14022778851E+03  0.00000000000E+00 0. -1.
         -5    1    5    5    0  502 -0.53391636536E+02 -0.73781271395E+02  0.69195301043E+02  0.11447454978E+03  0.47000000000E+01 0.  1.
         13    1    6    6    0    0  0.15552328166E+02 -0.11933267462E+02  0.54223458920E-01  0.19603079449E+02  0.00000000000E+00 0. -1.
        -14    1    6    6    0    0 -0.14786946701E+03 -0.33168751492E+03  0.34798047848E+02  0.36481898383E+03  0.00000000000E+00 0.  1.
</event>
<event>
12    1  0.9028446E-003  0.1754505E+03  0.7818608E-02  0.1174155E+00
         21   -1    0    0  503  502  0.00000000000E+00  0.00000000000E+00  0.22802176797E+02  0.22802176797E+02  0.00000000000E+00 0. -1.
         21   -1    0    0  501  503 -0.00000000000E+00 -0.00000000000E+00 -0.13019847226E+04  0.13019847226E+04  0.00000000000E+00 0. -1.
          6    2    1    2  501    0 -0.34749880925E+02 -0.20945132750E+01 -0.60205331970E+03  0.62709733542E+03  0.17196199326E+03 0.  0.
         24    2    3    3    0    0  0.74612534649E+01 -0.60566345657E+02 -0.40560493765E+03  0.41777750393E+03  0.79364505997E+02 0.  0.
         -6    2    1    2    0  502  0.34749880925E+02  0.20945132750E+01 -0.67712922611E+03  0.69768956398E+03  0.16448342659E+03 0.  0.
        -24    2    5    5    0    0  0.17213456693E+02  0.61334201885E+02 -0.34398616889E+03  0.35883376359E+03  0.79856108682E+02 0.  0.
          5    1    3    3  501    0 -0.42211134390E+02  0.58471832382E+02 -0.19644838205E+03  0.20931983150E+03  0.47000000000E+01 0. -1.
        -11    1    4    4    0    0 -0.61599395615E+01 -0.66783513046E+02 -0.39151379871E+03  0.39721661225E+03  0.00000000000E+00 0.  1.
         12    1    4    4    0    0  0.13621193026E+02  0.62171673888E+01 -0.14091138942E+02  0.20560891675E+02  0.00000000000E+00 0. -1.
         -5    1    5    5    0  502  0.17536424232E+02 -0.59239688610E+02 -0.33314305722E+03  0.33885580039E+03  0.47000000000E+01 0.  1.
         13    1    6    6    0    0  0.26934185422E+02  0.14915340469E+02 -0.26441387646E+03  0.26620033019E+03  0.00000000000E+00 0. -1.
        -14    1    6    6    0    0 -0.97207287297E+01  0.46418861416E+02 -0.79572292424E+02  0.92633433402E+02  0.00000000000E+00 0.  1.
</event>
<event>
12    1  0.9028446E-003  0.1909750E+03  0.7818608E-02  0.1157612E+00
         21   -1    0    0  501  502  0.00000000000E+00  0.00000000000E+00  0.16644628560E+04  0.16644628560E+04  0.00000000000E+00 0.  1.
         21   -1    0    0  502  503 -0.00000000000E+00 -0.00000000000E+00 -0.22039580391E+02  0.22039580391E+02  0.00000000000E+00 0.  1.
          6    2    1    2  501    0  0.81678807905E+02  0.61835016369E+01  0.88854454762E+03  0.90881059997E+03  0.17238222113E+03 0.  0.
         24    2    3    3    0    0  0.30744332019E+02  0.25621557864E+02  0.79786474038E+03  0.80289990030E+03  0.80364343960E+02 0.  0.
         -6    2    1    2    0  503 -0.81678807905E+02 -0.61835016369E+01  0.75387872796E+03  0.77769183639E+03  0.17251606466E+03 0.  0.
        -24    2    5    5    0    0 -0.48074536431E+01  0.41016442053E+02  0.26895105072E+03  0.28442316523E+03  0.82803436585E+02 0.  0.
          5    1    3    3  501    0  0.50934475886E+02 -0.19438056227E+02  0.90679807234E+02  0.10591069967E+03  0.47000000000E+01 0. -1.
        -13    1    4    4    0    0  0.15392957668E+02 -0.28814702635E+02  0.33619737981E+03  0.33778085858E+03  0.00000000000E+00 0.  1.
         14    1    4    4    0    0  0.15351374351E+02  0.54436260499E+02  0.46166736057E+03  0.46511904172E+03  0.00000000000E+00 0. -1.
         -5    1    5    5    0  503 -0.76871354262E+02 -0.47199943690E+02  0.48492767724E+03  0.49326867116E+03  0.47000000000E+01 0.  1.
         13    1    6    6    0    0  0.23255633603E+02 -0.97079566126E+01  0.14995636387E+03  0.15205913317E+03  0.00000000000E+00 0. -1.
        -14    1    6    6    0    0 -0.28063087247E+02  0.50724398666E+02  0.11899468685E+03  0.13236403207E+03  0.00000000000E+00 0.  1.
</event>
<event>
12    1  0.9028446E-003  0.1848920E+03  0.7818608E-02  0.1163393E+00
         21   -1    0    0  503  502  0.00000000000E+00  0.00000000000E+00  0.48648996374E+02  0.48648996374E+02  0.00000000000E+00 0. -1.
         21   -1    0    0  501  503 -0.00000000000E+00 -0.00000000000E+00 -0.72824835952E+03  0.72824835952E+03  0.00000000000E+00 0.  1.
          6    2    1    2  501    0  0.15843150119E+02 -0.63651427403E+02 -0.41704167926E+03  0.45577185939E+03  0.17176063565E+03 0.  0.
         24    2    3    3    0    0  0.27571359727E+02  0.15422908965E+02 -0.31261630555E+03  0.32417759567E+03  0.79775391163E+02 0.  0.
         -6    2    1    2    0  502 -0.15843150119E+02  0.63651427403E+02 -0.26255768389E+03  0.32112549650E+03  0.17286566321E+03 0.  0.
        -24    2    5    5    0    0 -0.11620403392E+02 -0.25511775713E+02 -0.18249423760E+03  0.20112485562E+03  0.79756982868E+02 0.  0.
          5    1    3    3  501    0 -0.11728209608E+02 -0.79074336369E+02 -0.10442537370E+03  0.13159426373E+03  0.47000000000E+01 0. -1.
        -13    1    4    4    0    0  0.19953351942E+02 -0.20224534133E+02 -0.25087424799E+03  0.25247783337E+03  0.00000000000E+00 0.  1.
         14    1    4    4    0    0  0.76180077857E+01  0.35647443099E+02 -0.61742057560E+02  0.71699762300E+02  0.00000000000E+00 0. -1.
         -5    1    5    5    0  502 -0.42227467277E+01  0.89163203116E+02 -0.80063446290E+02  0.12000064088E+03  0.47000000000E+01 0.  1.
         13    1    6    6    0    0 -0.17004189867E+02  0.26757642979E+02 -0.76905205072E+02  0.83183679277E+02  0.00000000000E+00 0. -1.
        -14    1    6    6    0    0  0.53837864755E+01 -0.52269418692E+02 -0.10558903252E+03  0.11794117634E+03  0.00000000000E+00 0.  1.
</event>
<event>
12    1  0.9028446E-003  0.1971886E+03  0.7818608E-02  0.1152381E+00
         21   -1    0    0  503  502  0.00000000000E+00  0.00000000000E+00  0.78453254890E+02  0.78453254890E+02  0.00000000000E+00 0. -1.
         21   -1    0    0  501  503 -0.00000000000E+00 -0.00000000000E+00 -0.52333772342E+03  0.52333772342E+03  0.00000000000E+00 0. -1.
          6    2    1    2  501    0  0.45087781488E+02  0.86920377997E+02 -0.29459345241E+03  0.35385803820E+03  0.16982976431E+03 0.  0.
         24    2    3    3    0    0  0.85021480792E+02  0.95706834717E+02 -0.18510012602E+03  0.23688461949E+03  0.73917629077E+02 0.  0.
         -6    2    1    2    0  502 -0.45087781488E+02 -0.86920377997E+02 -0.15029101612E+03  0.24793294011E+03  0.17115867818E+03 0.  0.
        -24    2    5    5    0    0  0.12888852492E+02 -0.10462110030E+03 -0.79184407534E+02  0.15437629715E+03  0.80312972672E+02 0.  0.
          5    1    3    3  501    0 -0.39933699304E+02 -0.87864567198E+01 -0.10949332639E+03  0.11697341871E+03  0.47000000000E+01 0. -1.
        -11    1    4    4    0    0  0.12400979223E+02  0.14177397054E+02  0.33108697459E+01  0.19124453753E+02  0.00000000000E+00 0.  1.
         12    1    4    4    0    0  0.72620501570E+02  0.81529437664E+02 -0.18841099577E+03  0.21776016573E+03  0.00000000000E+00 0. -1.
         -5    1    5    5    0  502 -0.57976633981E+02  0.17700722298E+02 -0.71106608590E+02  0.93556642964E+02  0.47000000000E+01 0.  1.
         13    1    6    6    0    0 -0.24962026185E+02 -0.15182150769E+02 -0.40268610560E+02  0.49750994459E+02  0.00000000000E+00 0. -1.
        -14    1    6    6    0    0  0.37850878677E+02 -0.89438949526E+02 -0.38915796974E+02  0.10462530269E+03  0.00000000000E+00 0.  1.
</event>
<event>
12    1  0.9028446E-003  0.1768935E+03  0.7818608E-02  0.1171256E+00
         21   -1    0    0  503  502  0.00000000000E+00  0.00000000000E+00  0.61043891540E+03  0.61043891540E+03  0.00000000000E+00 0. -1.
         21   -1    0    0  501  503 -0.00000000000E+00 -0.00000000000E+00 -0.66386016317E+02  0.66386016317E+02  0.00000000000E+00 0. -1.
          6    2    1    2  501    0 -0.31060621235E+02 -0.39069164576E+01  0.43707437727E+03  0.47151387338E+03  0.17410139382E+03 0.  0.
         24    2    3    3    0    0  0.40791526236E+02  0.33185707488E+02  0.25035385982E+03  0.26798197051E+03  0.79825068727E+02 0.  0.
         -6    2    1    2    0  502  0.31060621235E+02  0.39069164576E+01  0.10697852181E+03  0.20531105834E+03  0.17241867753E+03 0.  0.
        -24    2    5    5    0    0  0.11954833886E+02 -0.48448740048E+02  0.11517600239E+03  0.14878288336E+03  0.79878885758E+02 0.  0.
          5    1    3    3  501    0 -0.71852147470E+02 -0.37092623946E+02  0.18672051745E+03  0.20353190286E+03  0.47000000000E+01 0. -1.
        -13    1    4    4    0    0  0.80017137401E+01 -0.24650725831E+02  0.42754013732E+02  0.49995913802E+02  0.00000000000E+00 0.  1.
         14    1    4    4    0    0  0.32789812496E+02  0.57836433320E+02  0.20759984609E+03  0.21798605671E+03  0.00000000000E+00 0. -1.
         -5    1    5    5    0  502  0.19105787348E+02  0.52355656506E+02 -0.81974805773E+01  0.56528174977E+02  0.47000000000E+01 0.  1.
         11    1    6    6    0    0 -0.13499788769E+02  0.17062395929E+02  0.15062712866E+02  0.26462331162E+02  0.00000000000E+00 0. -1.
        -12    1    6    6    0    0  0.25454622655E+02 -0.65511135978E+02  0.10011328952E+03  0.12232055220E+03  0.00000000000E+00 0.  1.
</event>
<event>
12    1  0.9028446E-003  0.1878900E+03  0.7818608E-02  0.1160542E+00
         21   -1    0    0  503  502  0.00000000000E+00  0.00000000000E+00  0.29664613978E+03  0.29664613978E+03  0.00000000000E+00 0.  1.
         21   -1    0    0  501  503 -0.00000000000E+00 -0.00000000000E+00 -0.14894448085E+03  0.14894448085E+03  0.00000000000E+00 0.  1.
          6    2    1    2  501    0 -0.46827757238E+02 -0.60800053199E+02 -0.26673609801E+02  0.18977386545E+03  0.17150263331E+03 0.  0.
         24    2    3    3    0    0 -0.31150782900E+02  0.33377923762E+02 -0.36651296995E+01  0.91454289448E+02  0.79158049576E+02 0.  0.
         -6    2    1    2    0  502  0.46827757238E+02  0.60800053199E+02  0.17437526873E+03  0.25581675518E+03  0.17072197447E+03 0.  0.
        -24    2    5    5    0    0  0.31827035424E+02 -0.38371928500E+01  0.20593868832E+02  0.88264362816E+02  0.79616619352E+02 0.  0.
          5    1    3    3  501    0 -0.15676974338E+02 -0.94177976961E+02 -0.23008480102E+02  0.98319576003E+02  0.47000000000E+01 0. -1.
        -13    1    4    4    0    0  0.19887163752E+02 -0.10150213311E+02  0.72880812550E+01  0.23487065393E+02  0.00000000000E+00 0.  1.
         14    1    4    4    0    0 -0.51037946652E+02  0.43528137073E+02 -0.10953210955E+02  0.67967224055E+02  0.00000000000E+00 0. -1.
         -5    1    5    5    0  502  0.15000721814E+02  0.64637246049E+02  0.15378139990E+03  0.16755239236E+03  0.47000000000E+01 0.  1.
         11    1    6    6    0    0 -0.24061793446E+02  0.30679386419E+01 -0.74218718907E+01  0.25366638202E+02  0.00000000000E+00 0. -1.
        -12    1    6    6    0    0  0.55888828870E+02 -0.69051314919E+01  0.28015740722E+02  0.62897724614E+02  0.00000000000E+00 0.  1.
</event>
<event>
12    1  0.9028446E-003  0.2121943E+03  0.7818608E-02  0.1141721E+00
         21   -1    0    0  501  502  0.00000000000E+00  0.00000000000E+00  0.92920540195E+02  0.92920540195E+02  0.00000000000E+00 0. -1.
         21   -1    0    0  502  503 -0.00000000000E+00 -0.00000000000E+00 -0.54818712458E+03  0.54818712458E+03  0.00000000000E+00 0. -1.
          6    2    1    2  501    0  0.10129449168E+03  0.47959875361E+02 -0.10590870937E+03  0.23715619715E+03  0.18018236162E+03 0.  0.
         24    2    3    3    0    0 -0.71545306088E+01 -0.15779478934E+02 -0.19383313385E+02  0.84405976623E+02  0.80302408359E+02 0.  0.
         -6    2    1    2    0  503 -0.10129449168E+03 -0.47959875361E+02 -0.34935787501E+03  0.40395146762E+03  0.16901224709E+03 0.  0.
        -24    2    5    5    0    0 -0.62090512485E+02  0.26653194655E+02 -0.11387039500E+03  0.15379050854E+03  0.78226780160E+02 0.  0.
          5    1    3    3  501    0  0.10844902229E+03  0.63739354295E+02 -0.86525395984E+02  0.15275022053E+03  0.47000000000E+01 0. -1.
        -13    1    4    4    0    0 -0.39691155543E+02  0.52223995713E+01 -0.21837944856E+02  0.45602161365E+02  0.00000000000E+00 0.  1.
         14    1    4    4    0    0  0.32536624934E+02 -0.21001878505E+02  0.24546314717E+01  0.38803815257E+02  0.00000000000E+00 0. -1.
         -5    1    5    5    0  503 -0.39203979199E+02 -0.74613070016E+02 -0.23548748002E+03  0.25016095908E+03  0.47000000000E+01 0.  1.
         13    1    6    6    0    0  0.47149491424E+01  0.13225010554E+02 -0.72986987700E+02  0.74325177585E+02  0.00000000000E+00 0. -1.
        -14    1    6    6    0    0 -0.66805461628E+02  0.13428184101E+02 -0.40883407297E+02  0.79465330955E+02  0.00000000000E+00 0.  1.
</event>
<event>
12    1  0.9028446E-003  0.3425703E+03  0.7818608E-02  0.1065727E+00
         21   -1    0    0  503  502  0.00000000000E+00  0.00000000000E+00  0.92414004106E+03  0.92414004106E+03  0.00000000000E+00 0.  1.
         21   -1    0    0  501  503 -0.00000000000E+00 -0.00000000000E+00 -0.18012779249E+03  0.18012779249E+03  0.00000000000E+00 0. -1.
          6    2    1    2  501    0 -0.49707762571E+02 -0.29204036914E+03  0.71833492777E+02  0.34982849753E+03  0.17164349138E+03 0.  0.
         24    2    3    3    0    0 -0.20418648053E+02 -0.46730830896E+02  0.11022543923E+02  0.95359082308E+02  0.79819586315E+02 0.  0.
         -6    2    1    2    0  502  0.49707762571E+02  0.29204036914E+03  0.67217875579E+03  0.75443933601E+03  0.17203486019E+03 0.  0.
        -24    2    5    5    0    0  0.44526663904E+02  0.58195219703E+02  0.22028364442E+03  0.24557621161E+03  0.80084232621E+02 0.  0.
          5    1    3    3  501    0 -0.29289114518E+02 -0.24530953824E+03  0.60810948854E+02  0.25446941522E+03  0.47000000000E+01 0. -1.
        -11    1    4    4    0    0  0.21896801716E+01 -0.42172875802E+02  0.40106967778E+02  0.58240149528E+02  0.00000000000E+00 0.  1.
         12    1    4    4    0    0 -0.22608328224E+02 -0.45579550943E+01 -0.29084423855E+02  0.37118932780E+02  0.00000000000E+00 0. -1.
         -5    1    5    5    0  502  0.51810986670E+01  0.23384514944E+03  0.45189511137E+03  0.50886312440E+03  0.47000000000E+01 0.  1.
         11    1    6    6    0    0  0.58986017673E+02  0.20305397375E+02  0.92977024942E+02  0.11196600650E+03  0.00000000000E+00 0. -1.
        -12    1    6    6    0    0 -0.14459353769E+02  0.37889822328E+02  0.12730661948E+03  0.13361020512E+03  0.00000000000E+00 0.  1.
</event>
<event>
12    1  0.9028446E-003  0.2146269E+03  0.7818608E-02  0.1138057E+00
         21   -1    0    0  503  502  0.00000000000E+00  0.00000000000E+00  0.29668699569E+03  0.29668699569E+03  0.00000000000E+00 0.  1.
         21   -1    0    0  501  503 -0.00000000000E+00 -0.00000000000E+00 -0.15843010669E+03  0.15843010669E+03  0.00000000000E+00 0.  1.
          6    2    1    2  501    0 -0.10639606981E+03  0.64949213443E+02  0.35123884145E+02  0.21748193375E+03  0.17471742979E+03 0.  0.
         24    2    3    3    0    0 -0.76514114245E+02 -0.29886748145E+02  0.22328516890E+02  0.11711957875E+03  0.80441318151E+02 0.  0.
         -6    2    1    2    0  502  0.10639606981E+03 -0.64949213443E+02  0.10313300486E+03  0.23763516864E+03  0.17405611936E+03 0.  0.
        -24    2    5    5    0    0 -0.81716684471E+01 -0.25126019196E+02  0.78377842402E+01  0.83314325843E+02  0.78624124943E+02 0.  0.
          5    1    3    3  501    0 -0.29881955563E+02  0.94835961588E+02  0.12795367255E+02  0.10036235500E+03  0.47000000000E+01 0. -1.
        -11    1    4    4    0    0 -0.51030936562E+02  0.21387868615E+02 -0.87509939934E+00  0.55338623124E+02  0.00000000000E+00 0.  1.
         12    1    4    4    0    0 -0.25483177683E+02 -0.51274616760E+02  0.23203616290E+02  0.61780955623E+02  0.00000000000E+00 0. -1.
         -5    1    5    5    0  502  0.11456773826E+03 -0.39823194246E+02  0.95295220616E+02  0.15432084280E+03  0.47000000000E+01 0.  1.
         11    1    6    6    0    0  0.30354128117E+02 -0.25509524648E+01 -0.14096941734E+02  0.33564925420E+02  0.00000000000E+00 0. -1.
        -12    1    6    6    0    0 -0.38525796564E+02 -0.22575066731E+02  0.21934725974E+02  0.49749400423E+02  0.00000000000E+00 0.  1.
</event>
<event>
12    1  0.9028446E-003  0.1898563E+03  0.7818608E-02  0.1158771E+00
         21   -1    0    0  501  502  0.00000000000E+00  0.00000000000E+00  0.14751470575E+03  0.14751470575E+03  0.00000000000E+00 0.  1.
         21   -1    0    0  502  503 -0.00000000000E+00 -0.00000000000E+00 -0.94508725918E+03  0.94508725918E+03  0.00000000000E+00 0.  1.
          6    2    1    2  501    0 -0.77834161385E+02 -0.10218876404E+02  0.71747489046E+02  0.20296086543E+03  0.17286650513E+03 0.  0.
         24    2    3    3    0    0 -0.10671644795E+03 -0.45586477814E+02  0.40977037067E+02  0.14769817981E+03  0.81664603902E+02 0.  0.
         -6    2    1    2    0  503  0.77834161385E+02  0.10218876404E+02 -0.86932004248E+03  0.88964109950E+03  0.17199234737E+03 0.  0.
        -24    2    5    5    0    0 -0.82066662689E+01  0.36399546664E+02 -0.28523082795E+03  0.29864976958E+03  0.80266950146E+02 0.  0.
          5    1    3    3  501    0  0.28882286561E+02  0.35367601411E+02  0.30770451979E+02  0.55262685617E+02  0.47000000000E+01 0. -1.
        -13    1    4    4    0    0 -0.11806705246E+03 -0.33991789716E+02  0.45231064722E+02  0.13092409962E+03  0.00000000000E+00 0.  1.
         14    1    4    4    0    0  0.11350604515E+02 -0.11594688099E+02 -0.42540276549E+01  0.16774080191E+02  0.00000000000E+00 0. -1.
         -5    1    5    5    0  503  0.86040827654E+02 -0.26180670260E+02 -0.58408921452E+03  0.59099132992E+03  0.47000000000E+01 0.  1.
         13    1    6    6    0    0 -0.65472112274E-01 -0.15084880178E+02 -0.18556058159E+03  0.18617273522E+03  0.00000000000E+00 0. -1.
        -14    1    6    6    0    0 -0.81411941566E+01  0.51484426842E+02 -0.99670246361E+02  0.11247703436E+03  0.00000000000E+00 0.  1.
</event>
<event>
12    1  0.9028446E-003  0.1876461E+03  0.7818608E-02  0.1161180E+00
         21   -1    0    0  503  502  0.00000000000E+00  0.00000000000E+00  0.35472810748E+02  0.35472810748E+02  0.00000000000E+00 0.  1.
         21   -1    0    0  501  503 -0.00000000000E+00 -0.00000000000E+00 -0.11159630941E+04  0.11159630941E+04  0.00000000000E+00 0.  1.
          6    2    1    2  501    0 -0.65518107775E+02  0.21625436872E+02 -0.74481765411E+03  0.76809138832E+03  0.17450146408E+03 0.  0.
         24    2    3    3    0    0 -0.52859037762E+02 -0.59258560225E+00 -0.19467751972E+03  0.21733722352E+03  0.80880795071E+02 0.  0.
         -6    2    1    2    0  502  0.65518107775E+02 -0.21625436872E+02 -0.33567262920E+03  0.38334451649E+03  0.17180402313E+03 0.  0.
        -24    2    5    5    0    0  0.98723890670E+02 -0.53271519102E+02 -0.24317908249E+03  0.27999440898E+03  0.81710106881E+02 0.  0.
          5    1    3    3  501    0 -0.12659070013E+02  0.22218022474E+02 -0.55014013439E+03  0.55075416480E+03  0.47000000000E+01 0. -1.
        -11    1    4    4    0    0 -0.32935308536E+02  0.24854405030E+02 -0.17433043923E+03  0.17914680583E+03  0.00000000000E+00 0.  1.
         12    1    4    4    0    0 -0.19923729226E+02 -0.25446990633E+02 -0.20347080490E+02  0.38190417686E+02  0.00000000000E+00 0. -1.
         -5    1    5    5    0  502 -0.33205782895E+02  0.31646082230E+02 -0.92493546718E+02  0.10335010751E+03  0.47000000000E+01 0.  1.
         11    1    6    6    0    0  0.42932577004E+02 -0.66862793274E+02 -0.16342909247E+03  0.18172206129E+03  0.00000000000E+00 0. -1.
        -12    1    6    6    0    0  0.55791313666E+02  0.13591274172E+02 -0.79749990014E+02  0.98272347695E+02  0.00000000000E+00 0.  1.
</event>
<event>
12    1  0.9028446E-003  0.2254918E+03  0.7818608E-02  0.1129900E+00
         21   -1    0    0  501  502  0.00000000000E+00  0.00000000000E+00  0.77411254774E+02  0.77411254774E+02  0.00000000000E+00 0.  1.
         21   -1    0    0  502  503 -0.00000000000E+00 -0.00000000000E+00 -0.66495368183E+03  0.66495368183E+03  0.00000000000E+00 0.  1.
          6    2    1    2  501    0 -0.12493563691E+03 -0.74287962885E+02 -0.25075832254E+03  0.33706245571E+03  0.17205739719E+03 0.  0.
         24    2    3    3    0    0 -0.12087785607E+03 -0.11229855288E+03 -0.22657787741E+03  0.29158658888E+03  0.80391437483E+02 0.  0.
         -6    2    1    2    0  503  0.12493563691E+03  0.74287962885E+02 -0.33678410452E+03  0.40530248089E+03  0.17239185933E+03 0.  0.
        -24    2    5    5    0    0  0.54138934897E+02 -0.24497193692E+02 -0.18855016522E+03  0.21355767409E+03  0.80774863590E+02 0.  0.
          5    1    3    3  501    0 -0.40577808380E+01  0.38010589990E+02 -0.24180445129E+02  0.45475866824E+02  0.47000000000E+01 0. -1.
        -13    1    4    4    0    0 -0.29479577802E+02 -0.28750150605E+02 -0.10426516904E+02  0.42477393069E+02  0.00000000000E+00 0.  1.
         14    1    4    4    0    0 -0.91398278271E+02 -0.83548402270E+02 -0.21615136050E+03  0.24910919582E+03  0.00000000000E+00 0. -1.
         -5    1    5    5    0  503  0.70796702014E+02  0.98785156576E+02 -0.14823393930E+03  0.19174480680E+03  0.47000000000E+01 0.  1.
         13    1    6    6    0    0  0.42772204516E+02 -0.23511824129E+01 -0.28197545898E+02  0.51284414129E+02  0.00000000000E+00 0. -1.
        -14    1    6    6    0    0  0.11366730381E+02 -0.22146011279E+02 -0.16035261932E+03  0.16227325996E+03  0.00000000000E+00 0.  1.
</event>
<event>
12    1  0.9028446E-003  0.1966239E+03  0.7818608E-02  0.1152691E+00
         21   -1    0    0  501  502  0.00000000000E+00  0.00000000000E+00  0.50456294626E+02  0.50456294626E+02  0.00000000000E+00 0.  1.
         21   -1    0    0  502  503 -0.00000000000E+00 -0.00000000000E+00 -0.95401429512E+03  0.95401429512E+03  0.00000000000E+00 0. -1.
          6    2    1    2  501    0  0.57532286504E+02  0.74646541943E+02 -0.22787738276E+03  0.30076237619E+03  0.17218546728E+03 0.  0.
         24    2    3    3    0    0  0.84139736411E+02  0.89905386488E+02 -0.13594961648E+03  0.20373870413E+03  0.88683073784E+02 0.  0.
         -6    2    1    2    0  503 -0.57532286504E+02 -0.74646541943E+02 -0.67568061773E+03  0.70370821356E+03  0.17256558878E+03 0.  0.
        -24    2    5    5    0    0 -0.90975823685E+02 -0.62990555668E+02 -0.63623251067E+03  0.65048626934E+03  0.78077963397E+02 0.  0.
          5    1    3    3  501    0 -0.26607449906E+02 -0.15258844545E+02 -0.91927766272E+02  0.97023672055E+02  0.47000000000E+01 0. -1.
        -11    1    4    4    0    0  0.55895698968E+02  0.78835728613E+01 -0.22135086547E+02  0.60633670024E+02  0.00000000000E+00 0.  1.
         12    1    4    4    0    0  0.28244037443E+02  0.82021813626E+02 -0.11381452994E+03  0.14310503411E+03  0.00000000000E+00 0. -1.
         -5    1    5    5    0  503  0.33443537180E+02 -0.11655986274E+02 -0.39448107060E+02  0.53221944212E+02  0.47000000000E+01 0.  1.
         11    1    6    6    0    0 -0.39041426054E+02 -0.63456262014E+00 -0.87913957386E+02  0.96195111733E+02  0.00000000000E+00 0. -1.
        -12    1    6    6    0    0 -0.51934397631E+02 -0.62355993048E+02 -0.54831855329E+03  0.55429115761E+03  0.00000000000E+00 0.  1.
</event>
<event>
12    1  0.9028446E-003  0.2411970E+03  0.7818608E-02  0.1119101E+00
         21   -1    0    0  501  502  0.00000000000E+00  0.00000000000E+00  0.18167436770E+03  0.18167436770E+03  0.00000000000E+00 0.  1.
         21   -1    0    0  502  503 -0.00000000000E+00 -0.00000000000E+00 -0.32292491276E+03  0.32292491276E+03  0.00000000000E+00 0. -1.
          6    2    1    2  501    0  0.93272803873E+02  0.14139455790E+03 -0.97082947879E+02  0.26000208882E+03  0.17170832967E+03 0.  0.
         24    2    3    3    0    0  0.12740258543E+03  0.95066616176E+02 -0.46560905321E+02  0.18328385789E+03  0.78460017668E+02 0.  0.
         -6    2    1    2    0  503 -0.93272803873E+02 -0.14139455790E+03 -0.44167597177E+02  0.24459719164E+03  0.17083551321E+03 0.  0.
        -24    2    5    5    0    0 -0.52895339916E+02 -0.15530461602E+03 -0.67986634309E+02  0.19547218943E+03  0.81668559745E+02 0.  0.
          5    1    3    3  501    0 -0.34129781558E+02  0.46327941721E+02 -0.50522042559E+02  0.76718230934E+02  0.47000000000E+01 0. -1.
        -11    1    4    4    0    0  0.13352664641E+02 -0.13827319494E+02 -0.14793777834E+01  0.19278925697E+02  0.00000000000E+00 0.  1.
         12    1    4    4    0    0  0.11404992079E+03  0.10889393567E+03 -0.45081527537E+02  0.16400493219E+03  0.00000000000E+00 0. -1.
         -5    1    5    5    0  503 -0.40377463956E+02  0.13910058127E+02  0.23819037132E+02  0.49125002214E+02  0.47000000000E+01 0.  1.
         11    1    6    6    0    0  0.11054008857E+02 -0.44607943792E+01 -0.22456434715E+02  0.25424029153E+02  0.00000000000E+00 0. -1.
        -12    1    6    6    0    0 -0.63949348773E+02 -0.15084382164E+03 -0.45530199595E+02  0.17004816027E+03  0.00000000000E+00 0.  1.
</event>
<event>
12    1  0.9028446E-003  0.2018911E+03  0.7818608E-02  0.1149071E+00
         21   -1    0    0  503  502  0.00000000000E+00  0.00000000000E+00  0.63494924466E+03  0.63494924466E+03  0.00000000000E+00 0.  1.
         21   -1    0    0  501  503 -0.00000000000E+00 -0.00000000000E+00 -0.63836276503E+02  0.63836276503E+02  0.00000000000E+00 0.  1.
          6    2    1    2  501    0 -0.42026120357E+01  0.96699230574E+02  0.32662000856E+03  0.38171009681E+03  0.17220210472E+03 0.  0.
         24    2    3    3    0    0  0.28829058120E+02  0.10732107500E+03  0.31738400336E+03  0.34549810150E+03  0.79293157429E+02 0.  0.
         -6    2    1    2    0  502  0.42026120357E+01 -0.96699230574E+02  0.24449295960E+03  0.31707542436E+03  0.17717678826E+03 0.  0.
        -24    2    5    5    0    0 -0.49749856302E+02 -0.20453837676E+02  0.17849040520E+03  0.20260859089E+03  0.79359994173E+02 0.  0.
          5    1    3    3  501    0 -0.33031670155E+02 -0.10621844430E+02  0.92360051969E+01  0.36211995310E+02  0.47000000000E+01 0. -1.
        -11    1    4    4    0    0 -0.78038162187E+01  0.96487614626E+02  0.20290932610E+03  0.22481760149E+03  0.00000000000E+00 0.  1.
         12    1    4    4    0    0  0.36632874338E+02  0.10833460378E+02  0.11447467727E+03  0.12068050000E+03  0.00000000000E+00 0. -1.
         -5    1    5    5    0  502  0.53952468337E+02 -0.76245392897E+02  0.66002554401E+02  0.11446683347E+03  0.47000000000E+01 0.  1.
         13    1    6    6    0    0  0.34256521858E+01  0.49295661798E+01 -0.62696925739E+01  0.86801359776E+01  0.00000000000E+00 0. -1.
        -14    1    6    6    0    0 -0.53175508487E+02 -0.25383403856E+02  0.18476009777E+03  0.19392845491E+03  0.00000000000E+00 0.  1.
</event>
<event>
12    1  0.9028446E-003  0.1878120E+03  0.7818608E-02  0.1160842E+00
         21   -1    0    0  503  502  0.00000000000E+00  0.00000000000E+00  0.15945345956E+04  0.15945345956E+04  0.00000000000E+00 0. -1.
         21   -1    0    0  501  503 -0.00000000000E+00 -0.00000000000E+00 -0.31652173441E+02  0.31652173441E+02  0.00000000000E+00 0. -1.
          6    2    1    2  501    0  0.58382964342E+01 -0.73644832671E+02  0.32814391596E+03  0.37724620598E+03  0.17081751450E+03 0.  0.
         24    2    3    3    0    0  0.46374836291E+02 -0.17230611137E+02  0.27282302678E+03  0.28831777276E+03  0.79039324057E+02 0.  0.
         -6    2    1    2    0  502 -0.58382964342E+01  0.73644832671E+02  0.12347385062E+04  0.12489405631E+04  0.17267224527E+03 0.  0.
        -24    2    5    5    0    0  0.28738479675E+02  0.72261596073E+02  0.11709970784E+04  0.11762595724E+04  0.79402679416E+02 0.  0.
          5    1    3    3  501    0 -0.40536539857E+02 -0.56414221534E+02  0.55320889179E+02  0.88928433216E+02  0.47000000000E+01 0. -1.
        -13    1    4    4    0    0  0.45387719725E+02 -0.45242141544E+02  0.16787024177E+03  0.17968671221E+03  0.00000000000E+00 0.  1.
         14    1    4    4    0    0  0.98711656550E+00  0.28011530407E+02  0.10495278501E+03  0.10863106055E+03  0.00000000000E+00 0. -1.
         -5    1    5    5    0  502 -0.34576776109E+02  0.13832365985E+01  0.63741427802E+02  0.72680990691E+02  0.47000000000E+01 0.  1.
         13    1    6    6    0    0 -0.73823128592E+01  0.63994021129E+02  0.48457696067E+03  0.48884001892E+03  0.00000000000E+00 0. -1.
        -14    1    6    6    0    0  0.36120792534E+02  0.82675749430E+01  0.68642011778E+03  0.68741955350E+03  0.00000000000E+00 0.  1.
</event>
<event>
12    1  0.9028446E-003  0.2156788E+03  0.7818608E-02  0.1137378E+00
         21   -1    0    0  503  502  0.00000000000E+00  0.00000000000E+00  0.25023526414E+02  0.25023526414E+02  0.00000000000E+00 0.  1.
         21   -1    0    0  501  503 -0.00000000000E+00 -0.00000000000E+00 -0.18489130757E+04  0.18489130757E+04  0.00000000000E+00 0.  1.
          6    2    1    2  501    0  0.10464832930E+03  0.74212263379E+02 -0.90121680446E+03  0.92666557278E+03  0.17337422612E+03 0.  0.
         24    2    3    3    0    0  0.27576146773E+02  0.59308547233E+02 -0.23923622724E+03  0.26003027767E+03  0.78126981484E+02 0.  0.
         -6    2    1    2    0  502 -0.10464832930E+03 -0.74212263379E+02 -0.92267274478E+03  0.94727102929E+03  0.17186819398E+03 0.  0.
        -24    2    5    5    0    0 -0.38951900376E+02 -0.36786574525E+01 -0.20919188581E+03  0.22729322653E+03  0.79813424157E+02 0.  0.
          5    1    3    3  501    0  0.77072182525E+02  0.14903716146E+02 -0.66198057722E+03  0.66663529511E+03  0.47000000000E+01 0. -1.
        -13    1    4    4    0    0 -0.22295223383E+02  0.42397263433E+02 -0.93202136077E+02  0.10479142666E+03  0.00000000000E+00 0.  1.
         14    1    4    4    0    0  0.49871370157E+02  0.16911283800E+02 -0.14603409116E+03  0.15523885101E+03  0.00000000000E+00 0. -1.
         -5    1    5    5    0  502 -0.65696428922E+02 -0.70533605927E+02 -0.71348085898E+03  0.71997780276E+03  0.47000000000E+01 0.  1.
         13    1    6    6    0    0 -0.34634804391E+02  0.29618190134E+01 -0.24727820861E+02  0.42659197971E+02  0.00000000000E+00 0. -1.
        -14    1    6    6    0    0 -0.43170959857E+01 -0.66404764659E+01 -0.18446406495E+03  0.18463402856E+03  0.00000000000E+00 0.  1.
</event>
<event>
12    1  0.9028446E-003  0.1862064E+03  0.7818608E-02  0.1162173E+00
         21   -1    0    0  503  502  0.00000000000E+00  0.00000000000E+00  0.14336084794E+03  0.14336084794E+03  0.00000000000E+00 0.  1.
         21   -1    0    0  501  503 -0.00000000000E+00 -0.00000000000E+00 -0.27842467482E+03  0.27842467482E+03  0.00000000000E+00 0.  1.
          6    2    1    2  501    0 -0.19033926879E+02  0.65629306966E+02 -0.14520953787E+03  0.23530291720E+03  0.17208183126E+03 0.  0.
         24    2    3    3    0    0  0.48414007423E+01  0.82649014137E+02 -0.16400088892E+03  0.20016167967E+03  0.79461360062E+02 0.  0.
         -6    2    1    2    0  502  0.19033926879E+02 -0.65629306966E+02  0.10145710991E+02  0.18648260556E+03  0.17321469458E+03 0.  0.
        -24    2    5    5    0    0 -0.32405179580E+02 -0.60913900536E+02  0.53608113737E+02  0.11881217491E+03  0.80510273303E+02 0.  0.
          5    1    3    3  501    0 -0.23875327621E+02 -0.17019707172E+02  0.18791351046E+02  0.35141237533E+02  0.47000000000E+01 0. -1.
        -13    1    4    4    0    0 -0.22976876812E+01  0.46597292960E+02 -0.18661788049E+02  0.50247879687E+02  0.00000000000E+00 0.  1.
         14    1    4    4    0    0  0.71390884235E+01  0.36051721178E+02 -0.14533910087E+03  0.14991379998E+03  0.00000000000E+00 0. -1.
         -5    1    5    5    0  502  0.51439106459E+02 -0.47154064295E+01 -0.43462402745E+02  0.67670430643E+02  0.47000000000E+01 0.  1.
         13    1    6    6    0    0 -0.27852273136E+02 -0.26816349312E+02  0.70562586051E+02  0.80460824377E+02  0.00000000000E+00 0. -1.
        -14    1    6    6    0    0 -0.45529064441E+01 -0.34097551224E+02 -0.16954472314E+02  0.38351350537E+02  0.00000000000E+00 0.  1.
</event>
<event>
12    1  0.9028446E-003  0.2158893E+03  0.7818608E-02  0.1137203E+00
         21   -1    0    0  501  502  0.00000000000E+00  0.00000000000E+00  0.30721942920E+03  0.30721942920E+03  0.00000000000E+00 0.  1.
         21   -1    0    0  502  503 -0.00000000000E+00 -0.00000000000E+00 -0.15321805601E+03  0.15321805601E+03  0.00000000000E+00 0.  1.
          6    2    1    2  501    0  0.92749936367E+01  0.12764845517E+03  0.48949049573E+02  0.22136888525E+03  0.17386207260E+03 0.  0.
         24    2    3    3    0    0 -0.39609328239E+02  0.30105176972E+02 -0.11937408825E+02  0.96334414550E+02  0.81624733588E+02 0.  0.
         -6    2    1    2    0  503 -0.92749936367E+01 -0.12764845517E+03  0.10505232362E+03  0.23906859996E+03  0.17244608192E+03 0.  0.
        -24    2    5    5    0    0  0.57450622966E+02 -0.43385858799E+02  0.49803887012E+02  0.11812657746E+03  0.79313014801E+02 0.  0.
          5    1    3    3  501    0  0.48884321875E+02  0.97543278200E+02  0.60886458397E+02  0.12503447070E+03  0.47000000000E+01 0. -1.
        -11    1    4    4    0    0  0.21102254334E+02  0.21371238068E+02  0.92749187416E+01  0.31433406946E+02  0.00000000000E+00 0.  1.
         12    1    4    4    0    0 -0.60711582573E+02  0.87339389036E+01 -0.21212327566E+02  0.64901007605E+02  0.00000000000E+00 0. -1.
         -5    1    5    5    0  503 -0.66725616602E+02 -0.84262596373E+02  0.55248436612E+02  0.12094202250E+03  0.47000000000E+01 0.  1.
         11    1    6    6    0    0  0.39654761088E+02  0.10940862532E+02  0.44675632095E+02  0.60729849769E+02  0.00000000000E+00 0. -1.
        -12    1    6    6    0    0  0.17795861878E+02 -0.54326721332E+02  0.51282549170E+01  0.57396727686E+02  0.00000000000E+00 0.  1.
</event>
<event>
12    1  0.9028446E-003  0.2539267E+03  0.7818608E-02  0.1110926E+00
         21   -1    0    0  501  502  0.00000000000E+00  0.00000000000E+00  0.25565745126E+03  0.25565745126E+03  0.00000000000E+00 0.  1.
         21   -1    0    0  502  503 -0.00000000000E+00 -0.00000000000E+00 -0.37206527935E+03  0.37206527935E+03  0.00000000000E+00 0. -1.
          6    2    1    2  501    0  0.17891076129E+01 -0.18639774653E+03  0.12026707619E+03  0.28096784761E+03  0.17242807474E+03 0.  0.
         24    2    3    3    0    0 -0.24620876867E+02 -0.68193419777E+02  0.11879256251E+03  0.15974897807E+03  0.78431709198E+02 0.  0.
         -6    2    1    2    0  503 -0.17891076129E+01  0.18639774653E+03 -0.23667490428E+03  0.34675488300E+03  0.17168755851E+03 0.  0.
        -24    2    5    5    0    0 -0.31675969283E+02  0.33731914142E+02 -0.55994497782E+02  0.10828563934E+03  0.80306829368E+02 0.  0.
          5    1    3    3  501    0  0.26409984479E+02 -0.11820432675E+03  0.14745136855E+01  0.12121886955E+03  0.47000000000E+01 0. -1.
        -11    1    4    4    0    0 -0.22440820179E+02  0.11614941103E+02  0.17325083934E+02  0.30637490114E+02  0.00000000000E+00 0.  1.
         12    1    4    4    0    0 -0.21800566877E+01 -0.79808360880E+02  0.10146747857E+03  0.12911148795E+03  0.00000000000E+00 0. -1.
         -5    1    5    5    0  503  0.29886861670E+02  0.15266583239E+03 -0.18068040650E+03  0.23846924366E+03  0.47000000000E+01 0.  1.
         13    1    6    6    0    0 -0.12034853741E+02 -0.26542162278E+02 -0.14828485850E+02  0.32698747309E+02  0.00000000000E+00 0. -1.
        -14    1    6    6    0    0 -0.19641115542E+02  0.60274076421E+02 -0.41166011932E+02  0.75586892028E+02  0.00000000000E+00 0.  1.
</event>
<event>
12    1  0.9028446E-003  0.1866275E+03  0.7818608E-02  0.1161554E+00
         21   -1    0    0  503  502  0.00000000000E+00  0.00000000000E+00  0.14348975080E+04  0.14348975080E+04  0.00000000000E+00 0. -1.
         21   -1    0    0  501  503 -0.00000000000E+00 -0.00000000000E+00 -0.25026944348E+02  0.25026944348E+02  0.00000000000E+00 0. -1.
          6    2    1    2  501    0  0.51487700045E+02 -0.50324320467E+02  0.57766304470E+03  0.60706212523E+03  0.17218103901E+03 0.  0.
         24    2    3    3    0    0  0.24663592861E+02  0.31107579429E+02  0.19027672732E+03  0.21027384927E+03  0.80211498041E+02 0.  0.
         -6    2    1    2    0  502 -0.51487700045E+02  0.50324320467E+02  0.83220751893E+03  0.85286232709E+03  0.17210832032E+03 0.  0.
        -24    2    5    5    0    0 -0.30340345014E+02  0.15060287453E+02  0.18878211818E+03  0.20810725810E+03  0.80762577591E+02 0.  0.
          5    1    3    3  501    0  0.26824107184E+02 -0.81431899896E+02  0.38738631738E+03  0.39678827596E+03  0.47000000000E+01 0. -1.
        -11    1    4    4    0    0  0.15321880507E+02  0.19506495610E+02  0.61630802417E+01  0.25558696197E+02  0.00000000000E+00 0.  1.
         12    1    4    4    0    0  0.93417123544E+01  0.11601083819E+02  0.18411364708E+03  0.18471515308E+03  0.00000000000E+00 0. -1.
         -5    1    5    5    0  502 -0.21147355031E+02  0.35264033014E+02  0.64342540075E+03  0.64475506899E+03  0.47000000000E+01 0.  1.
         11    1    6    6    0    0 -0.54969812156E+02  0.52266377432E+01  0.15855799997E+03  0.16789769905E+03  0.00000000000E+00 0. -1.
        -12    1    6    6    0    0  0.24629467141E+02  0.98336497099E+01  0.30224118201E+02  0.40209559054E+02  0.00000000000E+00 0.  1.
</event>
<event>
12    1  0.9028446E-003  0.1905661E+03  0.7818608E-02  0.1158678E+00
         21   -1    0    0  503  502  0.00000000000E+00  0.00000000000E+00  0.38176821711E+03  0.38176821711E+03  0.00000000000E+00 0. -1.
         21   -1    0    0  501  503 -0.00000000000E+00 -0.00000000000E+00 -0.96977000115E+02  0.96977000115E+02  0.00000000000E+00 0. -1.
          6    2    1    2  501    0  0.46815903808E+02  0.66024595141E+02  0.18868018697E+03  0.26817095365E+03  0.17252382854E+03 0.  0.
         24    2    3    3    0    0 -0.19863266453E+02  0.81202091164E+02  0.83001226695E+02  0.14220825768E+03  0.79659625630E+02 0.  0.
         -6    2    1    2    0  502 -0.46815903808E+02 -0.66024595141E+02  0.96111030029E+02  0.21057426358E+03  0.16897696403E+03 0.  0.
        -24    2    5    5    0    0 -0.86586636526E+02 -0.85557108709E+01  0.53313871992E+02  0.12848851222E+03  0.78079978300E+02 0.  0.
          5    1    3    3  501    0  0.66679170261E+02 -0.15177496023E+02  0.10567896027E+03  0.12596269597E+03  0.47000000000E+01 0. -1.
        -13    1    4    4    0    0 -0.61646640960E+01 -0.13879960492E+02  0.27094071530E+02  0.31060346082E+02  0.00000000000E+00 0.  1.
         14    1    4    4    0    0 -0.13698602357E+02  0.95082051656E+02  0.55907155165E+02  0.11114791160E+03  0.00000000000E+00 0. -1.
         -5    1    5    5    0  502  0.39770732718E+02 -0.57468884270E+02  0.42797158037E+02  0.82085751359E+02  0.47000000000E+01 0.  1.
         11    1    6    6    0    0 -0.91847133158E+02 -0.28463225878E+02  0.46415262931E+02  0.10677278553E+03  0.00000000000E+00 0. -1.
        -12    1    6    6    0    0  0.52604966320E+01  0.19907515007E+02  0.68986090611E+01  0.21715726687E+02  0.00000000000E+00 0.  1.
</event>
<event>
12    1  0.9028446E-003  0.1829481E+03  0.7818608E-02  0.1165201E+00
         21   -1    0    0  503  502  0.00000000000E+00  0.00000000000E+00  0.37183482021E+03  0.37183482021E+03  0.00000000000E+00 0.  1.
         21   -1    0    0  501  503 -0.00000000000E+00 -0.00000000000E+00 -0.10149208354E+03  0.10149208354E+03  0.00000000000E+00 0.  1.
          6    2    1    2  501    0 -0.86605771983E+01  0.60291850698E+02  0.54316922974E+02  0.19084114609E+03  0.17251058536E+03 0.  0.
         24    2    3    3    0    0  0.39843906539E+02  0.82204613908E+02  0.62474006066E+02  0.13679040938E+03  0.80395766242E+02 0.  0.
         -6    2    1    2    0  502  0.86605771983E+01 -0.60291850698E+02  0.21602581370E+03  0.28248575765E+03  0.17152532826E+03 0.  0.
        -24    2    5    5    0    0 -0.59396809414E+02 -0.72885988041E+02  0.10281058359E+03  0.14970699995E+03  0.54788881308E+02 0.  0.
          5    1    3    3  501    0 -0.48504483737E+02 -0.21912763210E+02 -0.81570830920E+01  0.54050736708E+02  0.47000000000E+01 0. -1.
        -11    1    4    4    0    0  0.35686061166E+02  0.20775595258E+02 -0.91968107677E+01  0.42304865538E+02  0.00000000000E+00 0.  1.
         12    1    4    4    0    0  0.41578453725E+01  0.61429018650E+02  0.71670816834E+02  0.94485543847E+02  0.00000000000E+00 0. -1.
         -5    1    5    5    0  502  0.68057386612E+02  0.12594137344E+02  0.11321523010E+03  0.13277875769E+03  0.47000000000E+01 0.  1.
         11    1    6    6    0    0 -0.36422560732E+01 -0.46278115951E+02  0.36278825775E+02  0.58915899763E+02  0.00000000000E+00 0. -1.
        -12    1    6    6    0    0 -0.55754553340E+02 -0.26607872090E+02  0.66531757819E+02  0.90791100191E+02  0.00000000000E+00 0.  1.
</event>
<event>
12    1  0.9028446E-003  0.1771683E+03  0.7818608E-02  0.1170807E+00
         21   -1    0    0  503  502  0.00000000000E+00  0.00000000000E+00  0.35731154467E+03  0.35731154467E+03  0.00000000000E+00 0.  1.
         21   -1    0    0  501  503 -0.00000000000E+00 -0.00000000000E+00 -0.97318701062E+02  0.97318701062E+02  0.00000000000E+00 0.  1.
          6    2    1    2  501    0 -0.28964561589E+02  0.29587412880E+02  0.20233864869E+03  0.26831707113E+03  0.17128561259E+03 0.  0.
         24    2    3    3    0    0  0.13776278854E+02 -0.12476445907E+02  0.19016491676E+03  0.20694576345E+03  0.79488400927E+02 0.  0.
         -6    2    1    2    0  502  0.28964561589E+02 -0.29587412880E+02  0.57654194922E+02  0.18631317460E+03  0.17226210265E+03 0.  0.
        -24    2    5    5    0    0  0.52753317243E+02 -0.18604258690E+02  0.97558851562E+02  0.13834437023E+03  0.80575457396E+02 0.  0.
          5    1    3    3  501    0 -0.42740840443E+02  0.42063858787E+02  0.12173731932E+02  0.61371307685E+02  0.47000000000E+01 0. -1.
        -13    1    4    4    0    0 -0.29293000815E+02 -0.22200309306E+02  0.10023591796E+03  0.10676222590E+03  0.00000000000E+00 0.  1.
         14    1    4    4    0    0  0.43069279669E+02  0.97238633993E+01  0.89928998800E+02  0.10018353755E+03  0.00000000000E+00 0. -1.
         -5    1    5    5    0  502 -0.23788755654E+02 -0.10983154190E+02 -0.39904656640E+02  0.47968804374E+02  0.47000000000E+01 0.  1.
         13    1    6    6    0    0  0.72484982608E+02 -0.25722322154E+02  0.80157754429E+02  0.11108994624E+03  0.00000000000E+00 0. -1.
        -14    1    6    6    0    0 -0.19731665365E+02  0.71180634642E+01  0.17401097132E+02  0.27254423989E+02  0.00000000000E+00 0.  1.
</event>
<event>
12    1  0.9028446E-003  0.2859053E+03  0.7818608E-02  0.1092676E+00
         21   -1    0    0  503  502  0.00000000000E+00  0.00000000000E+00  0.24991180022E+03  0.24991180022E+03  0.00000000000E+00 0. -1.
         21   -1    0    0  501  503 -0.00000000000E+00 -0.00000000000E+00 -0.33154867673E+03  0.33154867673E+03  0.00000000000E+00 0.  1.
          6    2    1    2  501    0 -0.16880337132E+03  0.15340971694E+03 -0.79561381383E+02  0.29554761215E+03  0.17026232178E+03 0.  0.
         24    2    3    3    0    0 -0.85377767765E+02  0.57051672192E+02 -0.10419419614E+03  0.16564930701E+03  0.77711040882E+02 0.  0.
         -6    2    1    2    0  502  0.16880337132E+03 -0.15340971694E+03 -0.20754951229E+01  0.28591286480E+03  0.17237383548E+03 0.  0.
        -24    2    5    5    0    0  0.10818733045E+03 -0.13335928451E+03  0.57483246557E+02  0.19847341169E+03  0.81229146720E+02 0.  0.
          5    1    3    3  501    0 -0.83425603551E+02  0.96358044748E+02  0.24632814753E+02  0.12989830514E+03  0.47000000000E+01 0. -1.
        -11    1    4    4    0    0 -0.25289920632E+02  0.55014148266E+02 -0.23339367946E+02  0.64891160346E+02  0.00000000000E+00 0.  1.
         12    1    4    4    0    0 -0.60087847133E+02  0.20375239267E+01 -0.80854828191E+02  0.10075814666E+03  0.00000000000E+00 0. -1.
         -5    1    5    5    0  502  0.60616040863E+02 -0.20050432433E+02 -0.59558741680E+02  0.87439453116E+02  0.47000000000E+01 0.  1.
         13    1    6    6    0    0  0.25408939534E+02 -0.23567251753E+02  0.49912310946E+02  0.60764038275E+02  0.00000000000E+00 0. -1.
        -14    1    6    6    0    0  0.82778390919E+02 -0.10979203275E+03  0.75709356105E+01  0.13770937341E+03  0.00000000000E+00 0.  1.
</event>
<event>
12    1  0.9028446E-003  0.2383203E+03  0.7818608E-02  0.1122802E+00
         21   -1    0    0  503  502  0.00000000000E+00  0.00000000000E+00  0.35034808350E+03  0.35034808350E+03  0.00000000000E+00 0. -1.
         21   -1    0    0  501  503 -0.00000000000E+00 -0.00000000000E+00 -0.21093525772E+03  0.21093525772E+03  0.00000000000E+00 0. -1.
          6    2    1    2  501    0 -0.97813442484E+02  0.11153915257E+03 -0.73892293001E+02  0.24951282442E+03  0.18651575402E+03 0.  0.
         24    2    3    3    0    0 -0.12623678829E+03  0.12456650020E+03 -0.91499162042E+02  0.21332318211E+03  0.75379995222E+02 0.  0.
         -6    2    1    2    0  502  0.97813442484E+02 -0.11153915257E+03  0.21330511878E+03  0.31177051680E+03  0.17231752482E+03 0.  0.
        -24    2    5    5    0    0  0.22080867398E+02 -0.77889109697E+02  0.19742234293E+03  0.22725956554E+03  0.78211575395E+02 0.  0.
          5    1    3    3  501    0  0.28423345803E+02 -0.13027347637E+02  0.17606869041E+02  0.36189642310E+02  0.47000000000E+01 0. -1.
        -11    1    4    4    0    0  0.16700950265E+01 -0.72343226219E+01  0.13171743422E+01  0.75405297853E+01  0.00000000000E+00 0.  1.
         12    1    4    4    0    0 -0.12790688331E+03  0.13180082283E+03 -0.92816336384E+02  0.20578265232E+03  0.00000000000E+00 0. -1.
         -5    1    5    5    0  502  0.75732575085E+02 -0.33650042871E+02  0.15882775849E+02  0.84510951261E+02  0.47000000000E+01 0.  1.
         13    1    6    6    0    0  0.43134791086E+02 -0.18766438771E+02  0.11006033301E+03  0.11969154660E+03  0.00000000000E+00 0. -1.
        -14    1    6    6    0    0 -0.21053923688E+02 -0.59122670926E+02  0.87362009924E+02  0.10756801894E+03  0.00000000000E+00 0.  1.
</event>
<event>
12    1  0.9028446E-003  0.1897761E+03  0.7818608E-02  0.1158703E+00
         21   -1    0    0  501  502  0.00000000000E+00  0.00000000000E+00  0.65538202429E+03  0.65538202429E+03  0.00000000000E+00 0. -1.
         21   -1    0    0  502  503 -0.00000000000E+00 -0.00000000000E+00 -0.75280112758E+02  0.75280112758E+02  0.00000000000E+00 0. -1.
          6    2    1    2  501    0  0.17416985436E+02 -0.77698958290E+02  0.10007141953E+03  0.21454433523E+03  0.17226289000E+03 0.  0.
         24    2    3    3    0    0  0.69300351733E+02 -0.14807004396E+02  0.67881188965E+02  0.12676288784E+03  0.80244549895E+02 0.  0.
         -6    2    1    2    0  503 -0.17416985436E+02  0.77698958290E+02  0.48003049200E+03  0.51611780182E+03  0.17206926686E+03 0.  0.
        -24    2    5    5    0    0  0.40301003092E+02  0.12635650980E+00  0.27538387660E+03  0.28973051873E+03  0.80518986436E+02 0.  0.
          5    1    3    3  501    0 -0.51883366297E+02 -0.62891953895E+02  0.32190230564E+02  0.87781447395E+02  0.47000000000E+01 0. -1.
        -13    1    4    4    0    0  0.41864018941E+02 -0.43904724857E+02  0.61279589888E+02  0.86228818173E+02  0.00000000000E+00 0.  1.
         14    1    4    4    0    0  0.27436332792E+02  0.29097720461E+02  0.66015990765E+01  0.40534069663E+02  0.00000000000E+00 0. -1.
         -5    1    5    5    0  503 -0.57717988528E+02  0.77572601780E+02  0.20464661540E+03  0.22638728309E+03  0.47000000000E+01 0.  1.
         13    1    6    6    0    0  0.24117072596E+01  0.37049697190E+02  0.11553759156E+03  0.12135662923E+03  0.00000000000E+00 0. -1.
        -14    1    6    6    0    0  0.37889295832E+02 -0.36923340681E+02  0.15984628504E+03  0.16837388950E+03  0.00000000000E+00 0.  1.
</event>
<event>
12    1  0.9028446E-003  0.2125859E+03  0.7818608E-02  0.1139834E+00
         21   -1    0    0  503  502  0.00000000000E+00  0.00000000000E+00  0.12239661267E+03  0.12239661267E+03  0.00000000000E+00 0.  1.
         21   -1    0    0  501  503 -0.00000000000E+00 -0.00000000000E+00 -0.63585983053E+03  0.63585983053E+03  0.00000000000E+00 0. -1.
          6    2    1    2  501    0 -0.10711805353E+03 -0.57921621445E+02 -0.50399053967E+03  0.54699105994E+03  0.17425143888E+03 0.  0.
         24    2    3    3    0    0 -0.14295301470E+03 -0.65060571056E+02 -0.44269905968E+03  0.47547991002E+03  0.73690196559E+02 0.  0.
         -6    2    1    2    0  502  0.10711805353E+03  0.57921621445E+02 -0.94726781929E+01  0.21126538326E+03  0.17237789565E+03 0.  0.
        -24    2    5    5    0    0  0.13333554365E+03  0.55590655246E+02 -0.41619596064E+02  0.16945265171E+03  0.78187737163E+02 0.  0.
          5    1    3    3  501    0  0.35834961169E+02  0.71389496103E+01 -0.61291479988E+02  0.71511149918E+02  0.47000000000E+01 0. -1.
        -11    1    4    4    0    0  0.35004490042E+01 -0.18695552441E+02 -0.35618762500E+02  0.40379116711E+02  0.00000000000E+00 0.  1.
         12    1    4    4    0    0 -0.14645346371E+03 -0.46365018614E+02 -0.40708029718E+03  0.43510079331E+03  0.00000000000E+00 0. -1.
         -5    1    5    5    0  502 -0.26217490118E+02  0.23309661993E+01  0.32146917871E+02  0.41812731556E+02  0.47000000000E+01 0.  1.
         13    1    6    6    0    0 -0.78354608207E+01 -0.31890953349E+01  0.46930162059E+01  0.96741499077E+01  0.00000000000E+00 0. -1.
        -14    1    6    6    0    0  0.14117100447E+03  0.58779750581E+02 -0.46312612270E+02  0.15977850180E+03  0.00000000000E+00 0.  1.
</event>
<event>
12    1  0.9028446E-003  0.2627679E+03  0.7818608E-02  0.1105494E+00
         21   -1    0    0  501  502  0.00000000000E+00  0.00000000000E+00  0.12364339135E+03  0.12364339135E+03  0.00000000000E+00 0. -1.
         21   -1    0    0  502  503 -0.00000000000E+00 -0.00000000000E+00 -0.55978895025E+03  0.55978895025E+03  0.00000000000E+00 0. -1.
          6    2    1    2  501    0 -0.19838799096E+03  0.12680065497E+02 -0.23509668814E+03  0.35257340841E+03  0.17181087430E+03 0.  0.
         24    2    3    3    0    0 -0.59539657170E+02  0.58602350738E+02 -0.10999839632E+03  0.16006525614E+03  0.80882833411E+02 0.  0.
         -6    2    1    2    0  503  0.19838799096E+03 -0.12680065497E+02 -0.20104887076E+03  0.33085893319E+03  0.17183831418E+03 0.  0.
        -24    2    5    5    0    0  0.21650559623E+03  0.99040948584E+01 -0.16296782899E+03  0.28279077677E+03  0.80245534737E+02 0.  0.
          5    1    3    3  501    0 -0.13884833379E+03 -0.45922285241E+02 -0.12509829181E+03  0.19250815228E+03  0.47000000000E+01 0. -1.
        -13    1    4    4    0    0 -0.24244336348E+01  0.17873061448E+02  0.10327177159E+02  0.20784003273E+02  0.00000000000E+00 0.  1.
         14    1    4    4    0    0 -0.57115223535E+02  0.40729289289E+02 -0.12032557348E+03  0.13928125286E+03  0.00000000000E+00 0. -1.
         -5    1    5    5    0  503 -0.18117605270E+02 -0.22584160355E+02 -0.38081041767E+02  0.48068156421E+02  0.47000000000E+01 0.  1.
         13    1    6    6    0    0  0.14826268818E+02 -0.22327845767E+02 -0.21169906949E+02  0.34154295541E+02  0.00000000000E+00 0. -1.
        -14    1    6    6    0    0  0.20167932741E+03  0.32231940625E+02 -0.14179792204E+03  0.24863648123E+03  0.00000000000E+00 0.  1.
</event>
<event>
12    1  0.9028446E-003  0.1910818E+03  0.7818608E-02  0.1159624E+00
         21   -1    0    0  503  502  0.00000000000E+00  0.00000000000E+00  0.50900047630E+02  0.50900047630E+02  0.00000000000E+00 0.  1.
         21   -1    0    0  501  503 -0.00000000000E+00 -0.00000000000E+00 -0.68780458935E+03  0.68780458935E+03  0.00000000000E+00 0.  1.
          6    2    1    2  501    0 -0.48376117687E+02  0.21873136863E+02 -0.34177524092E+03  0.38711743633E+03  0.17387038658E+03 0.  0.
         24    2    3    3    0    0 -0.80540331576E+02 -0.20936202879E+02 -0.29212667939E+03  0.31394472362E+03  0.79361344969E+02 0.  0.
         -6    2    1    2    0  502  0.48376117687E+02 -0.21873136863E+02 -0.29512930080E+03  0.35158720065E+03  0.18355809050E+03 0.  0.
        -24    2    5    5    0    0  0.56282475516E+02 -0.35049036448E+02 -0.77038775008E+02  0.13290550899E+03  0.85631474702E+02 0.  0.
          5    1    3    3  501    0  0.32164213888E+02  0.42809339742E+02 -0.49648561530E+02  0.73172712716E+02  0.47000000000E+01 0. -1.
        -13    1    4    4    0    0 -0.39381028670E+02 -0.23055362050E+02 -0.47492398875E+02  0.65863063163E+02  0.00000000000E+00 0.  1.
         14    1    4    4    0    0 -0.41159302906E+02  0.21191591710E+01 -0.24463428051E+03  0.24808166046E+03  0.00000000000E+00 0. -1.
         -5    1    5    5    0  502 -0.79063578284E+01  0.13175899585E+02 -0.21809052579E+03  0.21868169166E+03  0.47000000000E+01 0.  1.
         13    1    6    6    0    0 -0.19825777809E+02 -0.20550918701E+02 -0.33553157542E+02  0.44059234063E+02  0.00000000000E+00 0. -1.
        -14    1    6    6    0    0  0.76108253325E+02 -0.14498117747E+02 -0.43485617465E+02  0.88846274929E+02  0.00000000000E+00 0.  1.
</event>
<event>
12    1  0.9028446E-003  0.1758540E+03  0.7818608E-02  0.1173344E+00
         21   -1    0    0  503  502  0.00000000000E+00  0.00000000000E+00  0.12485968618E+04  0.12485968618E+04  0.00000000000E+00 0. -1.
         21   -1    0    0  501  503 -0.00000000000E+00 -0.00000000000E+00 -0.32316765337E+02  0.32316765337E+02  0.00000000000E+00 0. -1.
          6    2    1    2  501    0 -0.79604874815E+01  0.25611580804E+02  0.29003156889E+03  0.33917979304E+03  0.17379671636E+03 0.  0.
         24    2    3    3    0    0  0.31596647331E+02 -0.37076395255E+02  0.10930615051E+03  0.14378707027E+03  0.79711227765E+02 0.  0.
         -6    2    1    2    0  502  0.79604874815E+01 -0.25611580804E+02  0.92624852758E+03  0.94173383411E+03  0.16794926923E+03 0.  0.
        -24    2    5    5    0    0 -0.67172987418E+02 -0.45270975385E+01  0.48405182039E+03  0.49267970338E+03  0.62405291774E+02 0.  0.
          5    1    3    3  501    0 -0.39557134812E+02  0.62687976059E+02  0.18072541839E+03  0.19539272276E+03  0.47000000000E+01 0. -1.
        -13    1    4    4    0    0 -0.39284750313E+01 -0.12322801748E+02  0.98251953730E+02  0.99099600255E+02  0.00000000000E+00 0.  1.
         14    1    4    4    0    0  0.35525122362E+02 -0.24753593507E+02  0.11054196777E+02  0.44687470019E+02  0.00000000000E+00 0. -1.
         -5    1    5    5    0  502  0.75133474899E+02 -0.21084483265E+02  0.44219670718E+03  0.44905413073E+03  0.47000000000E+01 0.  1.
         13    1    6    6    0    0 -0.28327854365E+02 -0.30179362449E+02  0.29953817546E+03  0.30238449003E+03  0.00000000000E+00 0. -1.
        -14    1    6    6    0    0 -0.38845133053E+02  0.25652264911E+02  0.18451364493E+03  0.19029521335E+03  0.00000000000E+00 0.  1.
</event>
<event>
12    1  0.9028446E-003  0.2024406E+03  0.7818608E-02  0.1150909E+00
         21   -1    0    0  501  502  0.00000000000E+00  0.00000000000E+00  0.14982632575E+03  0.14982632575E+03  0.00000000000E+00 0. -1.
         21   -1    0    0  502  503 -0.00000000000E+00 -0.00000000000E+00 -0.25551219505E+03  0.25551219505E+03  0.00000000000E+00 0. -1.
          6    2    1    2  501    0 -0.82551654479E+02 -0.27573082774E+02 -0.38383873215E+02  0.20604738870E+03  0.18277624056E+03 0.  0.
         24    2    3    3    0    0 -0.69214350929E+02 -0.62191346533E+01 -0.95940159446E+02  0.14304984231E+03  0.80183783766E+02 0.  0.
         -6    2    1    2    0  503  0.82551654479E+02  0.27573082774E+02 -0.67301996085E+02  0.19929113210E+03  0.16616963051E+03 0.  0.
        -24    2    5    5    0    0  0.82732488861E+02 -0.38863992547E+02 -0.48681123032E+02  0.13013374210E+03  0.78802693246E+02 0.  0.
          5    1    3    3  501    0 -0.13337303549E+02 -0.21353948121E+02  0.57556286231E+02  0.62997546389E+02  0.47000000000E+01 0. -1.
        -11    1    4    4    0    0 -0.60969890491E+02 -0.34727534568E+02 -0.42814838438E+02  0.82197564405E+02  0.00000000000E+00 0.  1.
         12    1    4    4    0    0 -0.82444604379E+01  0.28508399914E+02 -0.53125321008E+02  0.60852277901E+02  0.00000000000E+00 0. -1.
         -5    1    5    5    0  503 -0.18083438250E+00  0.66437075321E+02 -0.18620873053E+02  0.69157390000E+02  0.47000000000E+01 0.  1.
         11    1    6    6    0    0  0.97862371946E+02 -0.29975113825E+02 -0.36052824452E+02  0.10851431907E+03  0.00000000000E+00 0. -1.
        -12    1    6    6    0    0 -0.15129883085E+02 -0.88888787219E+01 -0.12628298580E+02  0.21619423030E+02  0.00000000000E+00 0.  1.
</event>
<event>
12    1  0.9028446E-003  0.2018884E+03  0.7818608E-02  0.1148744E+00
         21   -1    0    0  501  502  0.00000000000E+00  0.00000000000E+00  0.34047428069E+03  0.34047428069E+03  0.00000000000E+00 0. -1.
         21   -1    0    0  502  503 -0.00000000000E+00 -0.00000000000E+00 -0.13010180713E+03  0.13010180713E+03  0.00000000000E+00 0. -1.
          6    2    1    2  501    0 -0.39529224342E+02 -0.96305710011E+02  0.17611140714E+03  0.26580117758E+03  0.16969881827E+03 0.  0.
         24    2    3    3    0    0 -0.51886660687E+02 -0.11805297285E+03  0.18463943891E+03  0.23895966124E+03  0.79882835096E+02 0.  0.
         -6    2    1    2    0  503  0.39529224342E+02  0.96305710011E+02  0.34261066422E+02  0.20477491024E+03  0.17297859357E+03 0.  0.
        -24    2    5    5    0    0  0.47426526380E+02  0.11717944260E+03  0.71271212252E+02  0.16130168876E+03  0.70415565942E+02 0.  0.
          5    1    3    3  501    0  0.12357436345E+02  0.21747262836E+02 -0.85280317692E+01  0.26841516345E+02  0.47000000000E+01 0. -1.
        -13    1    4    4    0    0  0.19784383255E+02 -0.26802449633E+02  0.60297371885E+02  0.68888069964E+02  0.00000000000E+00 0.  1.
         14    1    4    4    0    0 -0.71671043942E+02 -0.91250523214E+02  0.12434206702E+03  0.17007159127E+03  0.00000000000E+00 0. -1.
         -5    1    5    5    0  503 -0.78973020378E+01 -0.20873732591E+02 -0.37010145830E+02  0.43473221483E+02  0.47000000000E+01 0.  1.
         11    1    6    6    0    0 -0.52440816230E+00  0.69362533665E+02  0.61843581797E+02  0.92930429300E+02  0.00000000000E+00 0. -1.
        -12    1    6    6    0    0  0.47950934542E+02  0.47816908938E+02  0.94276304545E+01  0.68371259457E+02  0.00000000000E+00 0.  1.
</event>
<event>
12    1  0.9028446E-003  0.1901558E+03  0.7818608E-02  0.1158574E+00
         21   -1    0    0  501  502  0.00000000000E+00  0.00000000000E+00  0.59773688936E+02  0.59773688936E+02  0.00000000000E+00 0. -1.
         21   -1    0    0  502  503 -0.00000000000E+00 -0.00000000000E+00 -0.77691268404E+03  0.77691268404E+03  0.00000000000E+00 0. -1.
          6    2    1    2  501    0 -0.77518018310E+02  0.20338360256E+01 -0.15889907921E+03  0.24694827386E+03  0.17239881942E+03 0.  0.
         24    2    3    3    0    0 -0.66341619496E+02  0.61834260860E+02 -0.12934011912E+03  0.17914838579E+03  0.84502020242E+02 0.  0.
         -6    2    1    2    0  503  0.77518018310E+02 -0.20338360256E+01 -0.55823991589E+03  0.58973809911E+03  0.17362615643E+03 0.  0.
        -24    2    5    5    0    0  0.95616165981E+02 -0.44498336199E+02 -0.30910801780E+03  0.33632229579E+03  0.80264356094E+02 0.  0.
          5    1    3    3  501    0 -0.11176398814E+02 -0.59800424834E+02 -0.29558960096E+02  0.67799888073E+02  0.47000000000E+01 0. -1.
        -11    1    4    4    0    0  0.20467667006E+02  0.10141299916E+02 -0.21409785061E+02  0.31307351421E+02  0.00000000000E+00 0.  1.
         12    1    4    4    0    0 -0.86809286502E+02  0.51692960944E+02 -0.10793033405E+03  0.14784103437E+03  0.00000000000E+00 0. -1.
         -5    1    5    5    0  503 -0.18098147671E+02  0.42464500173E+02 -0.24913189809E+03  0.25341580332E+03  0.47000000000E+01 0.  1.
         13    1    6    6    0    0  0.42258163567E+02 -0.22017550682E+02 -0.43642171107E+02  0.64615509168E+02  0.00000000000E+00 0. -1.
        -14    1    6    6    0    0  0.53358002414E+02 -0.22480785517E+02 -0.26546584669E+03  0.27170678662E+03  0.00000000000E+00 0.  1.
</event>
<event>
12    1  0.9028446E-003  0.1824716E+03  0.7818608E-02  0.1165887E+00
         21   -1    0    0  501  502  0.00000000000E+00  0.00000000000E+00  0.11161324479E+04  0.11161324479E+04  0.00000000000E+00 0.  1.
         21   -1    0    0  502  503 -0.00000000000E+00 -0.00000000000E+00 -0.29522182106E+02  0.29522182106E+02  0.00000000000E+00 0.  1.
          6    2    1    2  501    0 -0.14980918240E+02  0.59172944946E+02  0.54355352733E+03  0.57336404305E+03  0.17195936575E+03 0.  0.
         24    2    3    3    0    0  0.45947615176E+02  0.22720915449E+02  0.42165219641E+03  0.43221496896E+03  0.79948616699E+02 0.  0.
         -6    2    1    2    0  503  0.14980918240E+02 -0.59172944946E+02  0.54305673841E+03  0.57229058690E+03  0.16994125278E+03 0.  0.
        -24    2    5    5    0    0 -0.95836305959E+01  0.20207674034E+02  0.38742189090E+03  0.39579980672E+03  0.77856081236E+02 0.  0.
          5    1    3    3  501    0 -0.60928533415E+02  0.36452029497E+02  0.12190133092E+03  0.14114907410E+03  0.47000000000E+01 0. -1.
        -11    1    4    4    0    0 -0.12067002558E+02  0.27725678889E+02  0.22803295236E+03  0.23002902683E+03  0.00000000000E+00 0.  1.
         12    1    4    4    0    0  0.58014617734E+02 -0.50047634405E+01  0.19361924405E+03  0.20218594213E+03  0.00000000000E+00 0. -1.
         -5    1    5    5    0  503  0.24564548836E+02 -0.79380618980E+02  0.15563484751E+03  0.17649078018E+03  0.47000000000E+01 0.  1.
         11    1    6    6    0    0 -0.39043915732E+02  0.28343882453E+02  0.27950070302E+03  0.28363435268E+03  0.00000000000E+00 0. -1.
        -12    1    6    6    0    0  0.29460285136E+02 -0.81362084191E+01  0.10792118788E+03  0.11216545404E+03  0.00000000000E+00 0.  1.
</event>
<event>
12    1  0.9028446E-003  0.2121995E+03  0.7818608E-02  0.1140688E+00
         21   -1    0    0  501  502  0.00000000000E+00  0.00000000000E+00  0.91218500573E+02  0.91218500573E+02  0.00000000000E+00 0.  1.
         21   -1    0    0  502  503 -0.00000000000E+00 -0.00000000000E+00 -0.66025800185E+03  0.66025800185E+03  0.00000000000E+00 0.  1.
          6    2    1    2  501    0  0.11135458212E+03  0.58877979409E+02 -0.88058603581E+02  0.22576626289E+03  0.16537723053E+03 0.  0.
         24    2    3    3    0    0  0.60825515454E+02 -0.34958221650E+01  0.82289890277E+01  0.10031879105E+03  0.79272816745E+02 0.  0.
         -6    2    1    2    0  503 -0.11135458212E+03 -0.58877979409E+02 -0.48098089769E+03  0.52571023953E+03  0.17076935493E+03 0.  0.
        -24    2    5    5    0    0 -0.13997113604E+03 -0.46780383634E+02 -0.31673487545E+03  0.35848552604E+03  0.80066021700E+02 0.  0.
          5    1    3    3  501    0  0.50529066664E+02  0.62373801574E+02 -0.96287592609E+02  0.12544747184E+03  0.47000000000E+01 0. -1.
        -13    1    4    4    0    0  0.47309305825E+02  0.50743503456E+01 -0.31786504881E+02  0.57221511179E+02  0.00000000000E+00 0.  1.
         14    1    4    4    0    0  0.13516209630E+02 -0.85701725107E+01  0.40015493909E+02  0.43097279872E+02  0.00000000000E+00 0. -1.
         -5    1    5    5    0  503  0.28616553921E+02 -0.12097595775E+02 -0.16424602224E+03  0.16722471349E+03  0.47000000000E+01 0.  1.
         11    1    6    6    0    0 -0.96324813438E+02  0.61708939922E+01 -0.21615780575E+03  0.23672926858E+03  0.00000000000E+00 0. -1.
        -12    1    6    6    0    0 -0.43646322601E+02 -0.52951277626E+02 -0.10057706970E+03  0.12175625745E+03  0.00000000000E+00 0.  1.
</event>
<event>
12    1  0.9028446E-003  0.1806925E+03  0.7818608E-02  0.1167219E+00
         21   -1    0    0  501  502  0.00000000000E+00  0.00000000000E+00  0.55660023439E+03  0.55660023439E+03  0.00000000000E+00 0.  1.
         21   -1    0    0  502  503 -0.00000000000E+00 -0.00000000000E+00 -0.61137795541E+02  0.61137795541E+02  0.00000000000E+00 0.  1.
          6    2    1    2  501    0  0.46506103566E+02 -0.29692466648E+02  0.31157081655E+03  0.36017519118E+03  0.17206200734E+03 0.  0.
         24    2    3    3    0    0  0.13392323243E+02 -0.73008592931E+02  0.27080943435E+03  0.29193744853E+03  0.79875623027E+02 0.  0.
         -6    2    1    2    0  503 -0.46506103566E+02  0.29692466648E+02  0.18389162229E+03  0.25756283875E+03  0.17169166232E+03 0.  0.
        -24    2    5    5    0    0 -0.50468821242E+02  0.43693690655E+02  0.38628602961E+02  0.11149719532E+03  0.80518414519E+02 0.  0.
          5    1    3    3  501    0  0.33113780323E+02  0.43316126283E+02  0.40761382201E+02  0.68237742653E+02  0.47000000000E+01 0. -1.
        -11    1    4    4    0    0 -0.23436222345E+02 -0.61743324261E+02  0.20827644380E+03  0.21849615935E+03  0.00000000000E+00 0.  1.
         12    1    4    4    0    0  0.36828545588E+02 -0.11265268669E+02  0.62532990550E+02  0.73441289173E+02  0.00000000000E+00 0. -1.
         -5    1    5    5    0  503  0.39627176765E+01 -0.14001224008E+02  0.14526301933E+03  0.14606564343E+03  0.47000000000E+01 0.  1.
         11    1    6    6    0    0  0.30522702622E+01  0.26005644779E+02 -0.17860061081E+02  0.31695294540E+02  0.00000000000E+00 0. -1.
        -12    1    6    6    0    0 -0.53521091505E+02  0.17688045876E+02  0.56488664043E+02  0.79801900780E+02  0.00000000000E+00 0.  1.
</event>
<event>
12    1  0.9028446E-003  0.3105281E+03  0.7818608E-02  0.1080170E+00
         21   -1    0    0  503  502  0.00000000000E+00  0.00000000000E+00  0.31308922855E+03  0.31308922855E+03  0.00000000000E+00 0. -1.
         21   -1    0    0  501  503 -0.00000000000E+00 -0.00000000000E+00 -0.33558363980E+03  0.33558363980E+03  0.00000000000E+00 0.  1.
          6    2    1    2  501    0 -0.25737247945E+03  0.22611863109E+02 -0.10533774539E+03  0.32790813178E+03  0.17226669078E+03 0.  0.
         24    2    3    3    0    0 -0.11669842636E+03 -0.85336740750E+01  0.11395159402E+02  0.14241448024E+03  0.80378406414E+02 0.  0.
         -6    2    1    2    0  502  0.25737247945E+03 -0.22611863109E+02  0.82843334145E+02  0.32076473657E+03  0.17109970393E+03 0.  0.
        -24    2    5    5    0    0  0.23737540122E+03 -0.72830386001E+02  0.67842939843E+02  0.26447188615E+03  0.60756628017E+02 0.  0.
          5    1    3    3  501    0 -0.14067405309E+03  0.31145537184E+02 -0.11673290479E+03  0.18549365153E+03  0.47000000000E+01 0. -1.
        -13    1    4    4    0    0 -0.84342170745E+02 -0.18686582861E+02 -0.27644390434E+02  0.90702825025E+02  0.00000000000E+00 0.  1.
         14    1    4    4    0    0 -0.32356255614E+02  0.10152908786E+02  0.39039549835E+02  0.51711655219E+02  0.00000000000E+00 0. -1.
         -5    1    5    5    0  502  0.19997078227E+02  0.50218522892E+02  0.15000394301E+02  0.56292850419E+02  0.47000000000E+01 0.  1.
         13    1    6    6    0    0  0.19908471216E+03 -0.80195099343E+02  0.45051861752E+02  0.21930719738E+03  0.00000000000E+00 0. -1.
        -14    1    6    6    0    0  0.38290689054E+02  0.73647133423E+01  0.22791078091E+02  0.45164688767E+02  0.00000000000E+00 0.  1.
</event>
<event>
12    1  0.9028446E-003  0.1951411E+03  0.7818608E-02  0.1155961E+00
         21   -1    0    0  503  502  0.00000000000E+00  0.00000000000E+00  0.57678006946E+02  0.57678006946E+02  0.00000000000E+00 0. -1.
         21   -1    0    0  501  503 -0.00000000000E+00 -0.00000000000E+00 -0.70337971661E+03  0.70337971661E+03  0.00000000000E+00 0. -1.
          6    2    1    2  501    0 -0.69290464753E+02  0.22258863461E+01 -0.43920476853E+03  0.47694327742E+03  0.17253387522E+03 0.  0.
         24    2    3    3    0    0 -0.63815550668E+02  0.44786604107E+02 -0.15894712566E+03  0.19338054050E+03  0.77804757406E+02 0.  0.
         -6    2    1    2    0  502  0.69290464753E+02 -0.22258863461E+01 -0.20649694113E+03  0.28411444613E+03  0.18241137226E+03 0.  0.
        -24    2    5    5    0    0  0.59219215743E+02 -0.57617805857E+02 -0.68560710612E+02  0.13505677779E+03  0.81933113704E+02 0.  0.
          5    1    3    3  501    0 -0.54749140851E+01 -0.42560717761E+02 -0.28025764287E+03  0.28356273692E+03  0.47000000000E+01 0.  1.
        -13    1    4    4    0    0  0.17108510672E+01  0.40934921709E+02 -0.38564669193E+02  0.56265695913E+02  0.00000000000E+00 0.  1.
         14    1    4    4    0    0 -0.65526401735E+02  0.38516823980E+01 -0.12038245647E+03  0.13711484459E+03  0.00000000000E+00 0. -1.
         -5    1    5    5    0  502  0.10071249010E+02  0.55391919511E+02 -0.13793623052E+03  0.14905766835E+03  0.47000000000E+01 0.  1.
         11    1    6    6    0    0  0.63105605939E+02 -0.40332802383E+02 -0.83295007021E+02  0.11201388594E+03  0.00000000000E+00 0. -1.
        -12    1    6    6    0    0 -0.38863901964E+01 -0.17285003475E+02  0.14734296409E+02  0.23042891845E+02  0.00000000000E+00 0.  1.
</event>
<event>
12    1  0.9028446E-003  0.2750971E+03  0.7818608E-02  0.1098570E+00
         21   -1    0    0  501  502  0.00000000000E+00  0.00000000000E+00  0.29781731096E+03  0.29781731096E+03  0.00000000000E+00 0. -1.
         21   -1    0    0  502  503 -0.00000000000E+00 -0.00000000000E+00 -0.62000115144E+03  0.62000115144E+03  0.00000000000E+00 0. -1.
          6    2    1    2  501    0  0.13445555470E+03 -0.16745033067E+03  0.19184568465E+03  0.33538513747E+03  0.17193171403E+03 0.  0.
         24    2    3    3    0    0  0.82123233893E+02 -0.12464893060E+03  0.46414250962E+02  0.17493881139E+03  0.78534855918E+02 0.  0.
         -6    2    1    2    0  503 -0.13445555470E+03  0.16745033067E+03 -0.51402952512E+03  0.58243332493E+03  0.16995386392E+03 0.  0.
        -24    2    5    5    0    0 -0.13156848047E+02  0.11340555060E+03 -0.25969551505E+03  0.29548020477E+03  0.82661171777E+02 0.  0.
          5    1    3    3  501    0  0.52332320804E+02 -0.42801400070E+02  0.14543143368E+03  0.16044632608E+03  0.47000000000E+01 0. -1.
        -13    1    4    4    0    0  0.87194784720E+02 -0.13291133264E+03  0.44272352428E+02  0.16501028458E+03  0.00000000000E+00 0.  1.
         14    1    4    4    0    0 -0.50715508276E+01  0.82624020435E+01  0.21418985343E+01  0.99285268120E+01  0.00000000000E+00 0. -1.
         -5    1    5    5    0  503 -0.12129870665E+03  0.54044780073E+02 -0.25433401008E+03  0.28695312016E+03  0.47000000000E+01 0.  1.
         11    1    6    6    0    0 -0.39820535436E+02  0.32069270139E+02 -0.13386347877E+03  0.14329530375E+03  0.00000000000E+00 0. -1.
        -12    1    6    6    0    0  0.26663687389E+02  0.81336280459E+02 -0.12583203628E+03  0.15218490102E+03  0.00000000000E+00 0.  1.
</event>
<event>
12    1  0.9028446E-003  0.1747835E+03  0.7818608E-02  0.1173375E+00
         21   -1    0    0  503  502  0.00000000000E+00  0.00000000000E+00  0.13317015995E+03  0.13317015995E+03  0.00000000000E+00 0.  1.
         21   -1    0    0  501  503 -0.00000000000E+00 -0.00000000000E+00 -0.33777718180E+03  0.33777718180E+03  0.00000000000E+00 0.  1.
          6    2    1    2  501    0 -0.91217421627E+01 -0.91680144202E+01 -0.23670089656E+03  0.29324169560E+03  0.17261552346E+03 0.  0.
         24    2    3    3    0    0 -0.30002015178E+02  0.53624618337E+02 -0.17820547649E+03  0.20479564030E+03  0.80052119440E+02 0.  0.
         -6    2    1    2    0  502  0.91217421627E+01  0.91680144202E+01  0.32093874716E+02  0.17770564614E+03  0.17430439240E+03 0.  0.
        -24    2    5    5    0    0  0.73016554101E+02  0.23953154096E+01  0.35483411057E+02  0.11319211732E+03  0.78843060917E+02 0.  0.
          5    1    3    3  501    0  0.20880273015E+02 -0.62792632758E+02 -0.58495420073E+02  0.88446055307E+02  0.47000000000E+01 0. -1.
        -13    1    4    4    0    0  0.11097406190E+02  0.51758996398E+02 -0.13561042395E+03  0.14557586756E+03  0.00000000000E+00 0.  1.
         14    1    4    4    0    0 -0.41099421368E+02  0.18656219390E+01 -0.42595052543E+02  0.59219772738E+02  0.00000000000E+00 0. -1.
         -5    1    5    5    0  502 -0.63894811938E+02  0.67726990106E+01 -0.33895363411E+01  0.64513528822E+02  0.47000000000E+01 0.  1.
         13    1    6    6    0    0  0.25612650525E+02 -0.35837438007E+02  0.29533131550E+01  0.44148067776E+02  0.00000000000E+00 0. -1.
        -14    1    6    6    0    0  0.47403903576E+02  0.38232753416E+02  0.32530097902E+02  0.69044049545E+02  0.00000000000E+00 0.  1.
</event>
<event>
12    1  0.9028446E-003  0.1780109E+03  0.7818608E-02  0.1169932E+00
         21   -1    0    0  501  502  0.00000000000E+00  0.00000000000E+00  0.38764662326E+03  0.38764662326E+03  0.00000000000E+00 0.  1.
         21   -1    0    0  502  503 -0.00000000000E+00 -0.00000000000E+00 -0.13927593882E+03  0.13927593882E+03  0.00000000000E+00 0.  1.
          6    2    1    2  501    0  0.25541497622E+02  0.36258958386E+02  0.29387744887E+03  0.34318700258E+03  0.17159919471E+03 0.  0.
         24    2    3    3    0    0  0.70790804660E+02  0.46021052780E+02  0.12374843456E+03  0.16681021901E+03  0.73366877987E+02 0.  0.
         -6    2    1    2    0  503 -0.25541497622E+02 -0.36258958386E+02 -0.45506764434E+02  0.18373555949E+03  0.17239724490E+03 0.  0.
        -24    2    5    5    0    0  0.34502687716E+02  0.17105624055E+02 -0.51397670998E+02  0.10305175919E+03  0.80590983697E+02 0.  0.
          5    1    3    3  501    0 -0.45249307038E+02 -0.97620943942E+01  0.17012901431E+03  0.17637678358E+03  0.47000000000E+01 0. -1.
        -11    1    4    4    0    0  0.12073558094E+02  0.44038937278E+02  0.25407786766E+02  0.52256620920E+02  0.00000000000E+00 0.  1.
         12    1    4    4    0    0  0.58717246566E+02  0.19821155023E+01  0.98340647793E+02  0.11455359809E+03  0.00000000000E+00 0. -1.
         -5    1    5    5    0  503 -0.60044185338E+02 -0.53364582441E+02  0.58909065638E+01  0.80683800308E+02  0.47000000000E+01 0.  1.
         13    1    6    6    0    0  0.50403780043E+02 -0.15758182515E+02 -0.30642022245E+02  0.61055670384E+02  0.00000000000E+00 0. -1.
        -14    1    6    6    0    0 -0.15901092327E+02  0.32863806570E+02 -0.20755648752E+02  0.41996088801E+02  0.00000000000E+00 0.  1.
</event>
<event>
12    1  0.9028446E-003  0.1953741E+03  0.7818608E-02  0.1153827E+00
         21   -1    0    0  503  502  0.00000000000E+00  0.00000000000E+00  0.25525650302E+03  0.25525650302E+03  0.00000000000E+00 0.  1.
         21   -1    0    0  501  503 -0.00000000000E+00 -0.00000000000E+00 -0.16568060494E+03  0.16568060494E+03  0.00000000000E+00 0.  1.
          6    2    1    2  501    0  0.90524584305E+02 -0.84301560542E+01 -0.21737088550E+02  0.19657964129E+03  0.17293145016E+03 0.  0.
         24    2    3    3    0    0  0.11503313701E+03 -0.14181020265E+02 -0.48762973762E+02  0.15934753060E+03  0.97877903286E+02 0.  0.
         -6    2    1    2    0  502 -0.90524584305E+02  0.84301560542E+01  0.11131298664E+03  0.22435746667E+03  0.17227862306E+03 0.  0.
        -24    2    5    5    0    0 -0.27066461024E+02 -0.57085393614E+02  0.80895609431E+02  0.12809466235E+03  0.76634244446E+02 0.  0.
          5    1    3    3  501    0 -0.24508552704E+02  0.57508642104E+01  0.27025885212E+02  0.37232110688E+02  0.47000000000E+01 0. -1.
        -11    1    4    4    0    0 -0.52919015036E+01  0.99375737700E+01 -0.33913954349E+02  0.35733959948E+02  0.00000000000E+00 0.  1.
         12    1    4    4    0    0  0.12032503851E+03 -0.24118594035E+02 -0.14849019413E+02  0.12361357065E+03  0.00000000000E+00 0. -1.
         -5    1    5    5    0  502 -0.63458123282E+02  0.65515549669E+02  0.30417377205E+02  0.96262804316E+02  0.47000000000E+01 0.  1.
         11    1    6    6    0    0 -0.66187665160E+01 -0.31815632054E+00 -0.14086991774E+02  0.15567679046E+02  0.00000000000E+00 0. -1.
        -12    1    6    6    0    0 -0.20447694508E+02 -0.56767237294E+02  0.94982601205E+02  0.11252698331E+03  0.00000000000E+00 0.  1.
</event>
<event>
12    1  0.9028446E-003  0.1948950E+03  0.7818608E-02  0.1154348E+00
         21   -1    0    0  503  502  0.00000000000E+00  0.00000000000E+00  0.52851421951E+03  0.52851421951E+03  0.00000000000E+00 0. -1.
         21   -1    0    0  501  503 -0.00000000000E+00 -0.00000000000E+00 -0.77723789348E+02  0.77723789348E+02  0.00000000000E+00 0. -1.
          6    2    1    2  501    0  0.52161919791E+02 -0.75526829296E+02  0.14006773179E+03  0.24000627417E+03  0.17192694475E+03 0.  0.
         24    2    3    3    0    0  0.13568215524E+02  0.16663853304E+02  0.10802046125E+03  0.13494575106E+03  0.77975349960E+02 0.  0.
         -6    2    1    2    0  502 -0.52161919791E+02  0.75526829296E+02  0.31072269837E+03  0.36623173469E+03  0.17073933463E+03 0.  0.
        -24    2    5    5    0    0 -0.70985804279E+02 -0.77598517561E+01  0.19406433671E+03  0.22158639873E+03  0.79626412781E+02 0.  0.
          5    1    3    3  501    0  0.38593704268E+02 -0.92190682600E+02  0.32047270544E+02  0.10506052311E+03  0.47000000000E+01 0. -1.
        -11    1    4    4    0    0 -0.24347660790E+02  0.30279603885E+02  0.39151200987E+02  0.55158675982E+02  0.00000000000E+00 0.  1.
         12    1    4    4    0    0  0.37915876313E+02 -0.13615750581E+02  0.68869260259E+02  0.79787075075E+02  0.00000000000E+00 0. -1.
         -5    1    5    5    0  502  0.18823884488E+02  0.83286681052E+02  0.11665836167E+03  0.14464533596E+03  0.47000000000E+01 0.  1.
         11    1    6    6    0    0  0.14580489436E+02  0.11636822102E+02  0.26017049824E+02  0.32013952933E+02  0.00000000000E+00 0. -1.
        -12    1    6    6    0    0 -0.85566293716E+02 -0.19396673858E+02  0.16804728688E+03  0.18957244580E+03  0.00000000000E+00 0.  1.
</event>
<event>
12    1  0.9028446E-003  0.1741384E+03  0.7818608E-02  0.1175031E+00
         21   -1    0    0  501  502  0.00000000000E+00  0.00000000000E+00  0.44813438770E+03  0.44813438770E+03  0.00000000000E+00 0. -1.
         21   -1    0    0  502  503 -0.00000000000E+00 -0.00000000000E+00 -0.13897630918E+03  0.13897630918E+03  0.00000000000E+00 0. -1.
          6    2    1    2  501    0  0.25218262975E+02 -0.38118222775E+01  0.36679950563E+03  0.40368030690E+03  0.16662959543E+03 0.  0.
         24    2    3    3    0    0  0.82583214109E+01  0.37009051874E+02  0.99558476206E+02  0.13276732974E+03  0.79230069226E+02 0.  0.
         -6    2    1    2    0  503 -0.25218262975E+02  0.38118222775E+01 -0.57641427120E+02  0.18343038997E+03  0.17226050931E+03 0.  0.
        -24    2    5    5    0    0 -0.28005252677E+02  0.53280642245E+02 -0.80604950844E+02  0.12861848541E+03  0.80140100276E+02 0.  0.
          5    1    3    3  501    0  0.16959941564E+02 -0.40820874152E+02  0.26724102943E+03  0.27091297716E+03  0.47000000000E+01 0. -1.
        -13    1    4    4    0    0  0.22809757413E+02  0.45643408054E+02  0.10349970449E+03  0.11539408374E+03  0.00000000000E+00 0.  1.
         14    1    4    4    0    0 -0.14551436002E+02 -0.86343561800E+01 -0.39412282848E+01  0.17373246005E+02  0.00000000000E+00 0. -1.
         -5    1    5    5    0  503  0.27869897021E+01 -0.49468819967E+02  0.22963523724E+02  0.54811904568E+02  0.47000000000E+01 0.  1.
         11    1    6    6    0    0  0.73546680627E+00 -0.16733616871E+02 -0.38558570113E+02  0.42039483515E+02  0.00000000000E+00 0. -1.
        -12    1    6    6    0    0 -0.28740719483E+02  0.70014259116E+02 -0.42046380731E+02  0.86579001892E+02  0.00000000000E+00 0.  1.
</event>
<event>
12    1  0.9028446E-003  0.1728941E+03  0.7818608E-02  0.1175156E+00
         21   -1    0    0  503  502  0.00000000000E+00  0.00000000000E+00  0.81884124879E+02  0.81884124879E+02  0.00000000000E+00 0. -1.
         21   -1    0    0  501  503 -0.00000000000E+00 -0.00000000000E+00 -0.46826015382E+03  0.46826015382E+03  0.00000000000E+00 0. -1.
          6    2    1    2  501    0 -0.12616854820E+02 -0.13455032576E+02 -0.32432533572E+03  0.36753135107E+03  0.17190738118E+03 0.  0.
         24    2    3    3    0    0 -0.31356214182E+02  0.51249788379E+02 -0.14954679796E+03  0.18016138361E+03  0.80524073345E+02 0.  0.
         -6    2    1    2    0  502  0.12616854820E+02  0.13455032576E+02 -0.62050693220E+02  0.18261292763E+03  0.17075412112E+03 0.  0.
        -24    2    5    5    0    0  0.44712177711E+02 -0.11593512553E+02  0.81934918763E+00  0.10756446597E+03  0.97138327336E+02 0.  0.
          5    1    3    3  501    0  0.18739359362E+02 -0.64704820955E+02 -0.17477853776E+03  0.18736996746E+03  0.47000000000E+01 0. -1.
        -11    1    4    4    0    0 -0.14380019330E+02  0.20701237060E+01  0.63180040696E+01  0.15842586389E+02  0.00000000000E+00 0.  1.
         12    1    4    4    0    0 -0.16976194853E+02  0.49179664673E+02 -0.15586480203E+03  0.16431879722E+03  0.00000000000E+00 0. -1.
         -5    1    5    5    0  502 -0.32095322891E+02  0.25048545128E+02 -0.62870042407E+02  0.75048461656E+02  0.47000000000E+01 0.  1.
         13    1    6    6    0    0  0.15878281917E+02  0.35455978961E+02  0.26166533743E+02  0.46839446718E+02  0.00000000000E+00 0. -1.
        -14    1    6    6    0    0  0.28833895794E+02 -0.47049491514E+02 -0.25347184555E+02  0.60725019253E+02  0.00000000000E+00 0.  1.
</event>
<event>
12    1  0.9028446E-003  0.2319994E+03  0.7818608E-02  0.1125457E+00
         21   -1    0    0  503  502  0.00000000000E+00  0.00000000000E+00  0.57671827651E+03  0.57671827651E+03  0.00000000000E+00 0.  1.
         21   -1    0    0  501  503 -0.00000000000E+00 -0.00000000000E+00 -0.10971185143E+03  0.10971185143E+03  0.00000000000E+00 0.  1.
          6    2    1    2  501    0 -0.10087556554E+03 -0.11996377061E+03  0.99397977619E+02  0.25239590999E+03  0.17104546601E+03 0.  0.
         24    2    3    3    0    0 -0.85706776603E+02 -0.52628423328E+02 -0.26064051708E+01  0.12914362701E+03  0.80968392301E+02 0.  0.
         -6    2    1    2    0  502  0.10087556554E+03  0.11996377061E+03  0.36760844746E+03  0.43403421795E+03  0.16935922096E+03 0.  0.
        -24    2    5    5    0    0 -0.85100150797E+01  0.81909795081E+02  0.20347333018E+03  0.23309707100E+03  0.78429672477E+02 0.  0.
          5    1    3    3  501    0 -0.15168788939E+02 -0.67335347279E+02  0.10200438279E+03  0.12325228298E+03  0.47000000000E+01 0. -1.
        -11    1    4    4    0    0 -0.85634101855E+02 -0.97739665630E+01 -0.37815892375E+01  0.86272998326E+02  0.00000000000E+00 0.  1.
         12    1    4    4    0    0 -0.72674747833E-01 -0.42854456765E+02  0.11751840667E+01  0.42870628685E+02  0.00000000000E+00 0. -1.
         -5    1    5    5    0  502  0.10938558062E+03  0.38053975526E+02  0.16413511728E+03  0.20093714695E+03  0.47000000000E+01 0.  1.
         11    1    6    6    0    0  0.14132905016E+02  0.43311522101E+02  0.31478782946E+02  0.55376355303E+02  0.00000000000E+00 0. -1.
        -12    1    6    6    0    0 -0.22642920096E+02  0.38598272980E+02  0.17199454724E+03  0.17772071569E+03  0.00000000000E+00 0.  1.
</event>
<event>
12    1  0.9028446E-003  0.2427217E+03  0.7818608E-02  0.1118419E+00
         21   -1    0    0  501  502  0.00000000000E+00  0.00000000000E+00  0.29398255538E+03  0.29398255538E+03  0.00000000000E+00 0. -1.
         21   -1    0    0  502  503 -0.00000000000E+00 -0.00000000000E+00 -0.22133655218E+03  0.22133655218E+03  0.00000000000E+00 0. -1.
          6    2    1    2  501    0 -0.12353940044E+03 -0.11486488509E+03  0.11932330224E+03  0.26814993241E+03  0.17091053363E+03 0.  0.
         24    2    3    3    0    0 -0.14827464228E+03 -0.57719395159E+02  0.87649463182E+02  0.19813021169E+03  0.79096487084E+02 0.  0.
         -6    2    1    2    0  503  0.12353940044E+03  0.11486488509E+03 -0.46677299041E+02  0.24716917515E+03  0.17452193446E+03 0.  0.
        -24    2    5    5    0    0  0.13658551989E+03  0.62432639385E+02  0.80112048574E+01  0.17014798273E+03  0.79578375958E+02 0.  0.
          5    1    3    3  501    0  0.24735241839E+02 -0.57145489934E+02  0.31673839055E+02  0.70019720716E+02  0.47000000000E+01 0. -1.
        -11    1    4    4    0    0 -0.62855902598E+02  0.12323183139E+02  0.50569314328E+02  0.81608705942E+02  0.00000000000E+00 0.  1.
         12    1    4    4    0    0 -0.85418739682E+02 -0.70042578298E+02  0.37080148854E+02  0.11652150575E+03  0.00000000000E+00 0. -1.
         -5    1    5    5    0  503 -0.13046119448E+02  0.52432245707E+02 -0.54688503899E+02  0.77021192416E+02  0.47000000000E+01 0.  1.
         13    1    6    6    0    0  0.91475448079E+02  0.66737305076E+02  0.33593144341E+02  0.11811064659E+03  0.00000000000E+00 0. -1.
        -14    1    6    6    0    0  0.45110071810E+02 -0.43046656904E+01 -0.25581939484E+02  0.52037336145E+02  0.00000000000E+00 0.  1.
</event>
<event>
12    1  0.9028446E-003  0.5416738E+03  0.7818608E-02  0.1003455E+00
         21   -1    0    0  501  502  0.00000000000E+00  0.00000000000E+00  0.11606466584E+04  0.11606466584E+04  0.00000000000E+00 0.  1.
         21   -1    0    0  502  503 -0.00000000000E+00 -0.00000000000E+00 -0.28245899972E+03  0.28245899972E+03  0.00000000000E+00 0. -1.
          6    2    1    2  501    0  0.51333313020E+03  0.10747264535E+02  0.67349032882E+03  0.86429143061E+03  0.17258055443E+03 0.  0.
         24    2    3    3    0    0  0.49938395188E+03 -0.10025894009E+02  0.58990207248E+03  0.77691185469E+03  0.78247842701E+02 0.  0.
         -6    2    1    2    0  503 -0.51333313020E+03 -0.10747264535E+02  0.20469732984E+03  0.57881422748E+03  0.17175129358E+03 0.  0.
        -24    2    5    5    0    0 -0.35417638841E+03 -0.42850097749E+02  0.80638972382E+02  0.37442727484E+03  0.80100532424E+02 0.  0.
          5    1    3    3  501    0  0.13949178314E+02  0.20773158544E+02  0.83588256334E+02  0.87379575923E+02  0.47000000000E+01 0. -1.
        -11    1    4    4    0    0  0.31227060422E+03 -0.44137403235E+02  0.36961247226E+03  0.48587490188E+03  0.00000000000E+00 0.  1.
         12    1    4    4    0    0  0.18711334766E+03  0.34111509226E+02  0.22028960023E+03  0.29103695281E+03  0.00000000000E+00 0. -1.
         -5    1    5    5    0  503 -0.15915674179E+03  0.32102833214E+02  0.12405835746E+03  0.20438695265E+03  0.47000000000E+01 0.  1.
         13    1    6    6    0    0 -0.22100481077E+03  0.65652415798E+01  0.27664199759E+02  0.22282624784E+03  0.00000000000E+00 0. -1.
        -14    1    6    6    0    0 -0.13317157764E+03 -0.49415339329E+02  0.52974772622E+02  0.15160102700E+03  0.00000000000E+00 0.  1.
</event>
<event>
12    1  0.9028446E-003  0.1816829E+03  0.7818608E-02  0.1166728E+00
         21   -1    0    0  503  502  0.00000000000E+00  0.00000000000E+00  0.96578291967E+03  0.96578291967E+03  0.00000000000E+00 0.  1.
         21   -1    0    0  501  503 -0.00000000000E+00 -0.00000000000E+00 -0.62121286346E+02  0.62121286346E+02  0.00000000000E+00 0.  1.
          6    2    1    2  501    0 -0.30242529171E+02  0.46173855560E+02  0.10299346801E+03  0.20688155470E+03  0.17072108163E+03 0.  0.
         24    2    3    3    0    0  0.10697778861E+02 -0.25693909273E+02  0.17507090664E+02  0.87839145635E+02  0.81453040681E+02 0.  0.
         -6    2    1    2    0  502  0.30242529171E+02 -0.46173855560E+02  0.80066816532E+03  0.82102265132E+03  0.17309548671E+03 0.  0.
        -24    2    5    5    0    0  0.42288116893E+02 -0.23134809884E+02  0.20780316253E+03  0.22756928724E+03  0.79259837736E+02 0.  0.
          5    1    3    3  501    0 -0.40940308032E+02  0.71867764833E+02  0.85486377344E+02  0.11904240906E+03  0.47000000000E+01 0. -1.
        -13    1    4    4    0    0 -0.81455462500E+01  0.17292523760E+02 -0.20068951247E+02  0.27715412785E+02  0.00000000000E+00 0.  1.
         14    1    4    4    0    0  0.18843325111E+02 -0.42986433032E+02  0.37576041911E+02  0.60123732850E+02  0.00000000000E+00 0. -1.
         -5    1    5    5    0  502 -0.12045587721E+02 -0.23039045676E+02  0.59286500279E+03  0.59345336408E+03  0.47000000000E+01 0.  1.
         13    1    6    6    0    0  0.31650461890E+02 -0.51238516810E+02  0.11202450212E+03  0.12718736737E+03  0.00000000000E+00 0. -1.
        -14    1    6    6    0    0  0.10637655002E+02  0.28103706926E+02  0.95778660410E+02  0.10038191987E+03  0.00000000000E+00 0.  1.
</event>
<event>
12    1  0.9028446E-003  0.2124483E+03  0.7818608E-02  0.1139958E+00
         21   -1    0    0  503  502  0.00000000000E+00  0.00000000000E+00  0.27276635452E+03  0.27276635452E+03  0.00000000000E+00 0. -1.
         21   -1    0    0  501  503 -0.00000000000E+00 -0.00000000000E+00 -0.17075227059E+03  0.17075227059E+03  0.00000000000E+00 0. -1.
          6    2    1    2  501    0 -0.95801805318E+02  0.76196162943E+02  0.74286613510E+01  0.21096609830E+03  0.17166149386E+03 0.  0.
         24    2    3    3    0    0 -0.11623997756E+03  0.56310894184E+02  0.48230920942E+02  0.16096552644E+03  0.83072436951E+02 0.  0.
         -6    2    1    2    0  502  0.95801805318E+02 -0.76196162943E+02  0.94585422580E+02  0.23255252681E+03  0.17363880445E+03 0.  0.
        -24    2    5    5    0    0  0.11042876913E+03 -0.11078396694E+03  0.10061343280E+03  0.19422902015E+03  0.55984364114E+02 0.  0.
          5    1    3    3  501    0  0.20438172245E+02  0.19885268759E+02 -0.40802259591E+02  0.50000571857E+02  0.47000000000E+01 0. -1.
        -11    1    4    4    0    0 -0.86659970252E+02 -0.10483055614E+01  0.13609868592E+02  0.87728432744E+02  0.00000000000E+00 0.  1.
         12    1    4    4    0    0 -0.29580007312E+02  0.57359199745E+02  0.34621052350E+02  0.73237093701E+02  0.00000000000E+00 0. -1.
         -5    1    5    5    0  502 -0.14626963814E+02  0.34587803995E+02 -0.60280102171E+01  0.38323506661E+02  0.47000000000E+01 0.  1.
         11    1    6    6    0    0  0.25679491543E+02 -0.51903809956E+02  0.14183626883E+02  0.59620609234E+02  0.00000000000E+00 0. -1.
        -12    1    6    6    0    0  0.84749277588E+02 -0.58880156982E+02  0.86429805914E+02  0.13460841091E+03  0.00000000000E+00 0.  1.
</event>
<event>
12    1  0.9028446E-003  0.2538797E+03  0.7818608E-02  0.1110956E+00
         21   -1    0    0  503  502  0.00000000000E+00  0.00000000000E+00  0.10771807152E+03  0.10771807152E+03  0.00000000000E+00 0.  1.
         21   -1    0    0  501  503 -0.00000000000E+00 -0.00000000000E+00 -0.11162194805E+04  0.11162194805E+04  0.00000000000E+00 0. -1.
          6    2    1    2  501    0 -0.18625979204E+03  0.36720249841E+01 -0.92129132737E+03  0.95549664702E+03  0.17172634826E+03 0.  0.
         24    2    3    3    0    0 -0.20609010826E+03  0.24536671331E+02 -0.78761513807E+03  0.81867563806E+03  0.82565208600E+02 0.  0.
         -6    2    1    2    0  502  0.18625979204E+03 -0.36720249841E+01 -0.87210081572E+02  0.26844090495E+03  0.17247819349E+03 0.  0.
        -24    2    5    5    0    0  0.19614265912E+03  0.29544017347E+02 -0.93288935407E+02  0.23294415871E+03  0.78837579359E+02 0.  0.
          5    1    3    3  501    0  0.19830316220E+02 -0.20864646346E+02 -0.13367618929E+03  0.13682100896E+03  0.47000000000E+01 0. -1.
        -11    1    4    4    0    0 -0.25367901088E+02  0.69361211594E+01 -0.31361634940E+02  0.40929113458E+02  0.00000000000E+00 0.  1.
         12    1    4    4    0    0 -0.18072220717E+03  0.17600550171E+02 -0.75625350313E+03  0.77774652460E+03  0.00000000000E+00 0. -1.
         -5    1    5    5    0  502 -0.98828670869E+01 -0.33216042331E+02  0.60788538350E+01  0.35496746245E+02  0.47000000000E+01 0.  1.
         13    1    6    6    0    0 -0.30555519424E+01  0.13167911760E+02 -0.72820837698E+01  0.15354446972E+02  0.00000000000E+00 0. -1.
        -14    1    6    6    0    0  0.19919821106E+03  0.16376105587E+02 -0.86006851637E+02  0.21758971174E+03  0.00000000000E+00 0.  1.
</event>
<event>
12    1  0.9028446E-003  0.3114907E+03  0.7818608E-02  0.1079687E+00
         21   -1    0    0  503  502  0.00000000000E+00  0.00000000000E+00  0.12145436200E+04  0.12145436200E+04  0.00000000000E+00 0. -1.
         21   -1    0    0  501  503 -0.00000000000E+00 -0.00000000000E+00 -0.82211515468E+02  0.82211515468E+02  0.00000000000E+00 0.  1.
          6    2    1    2  501    0  0.19918894742E+03  0.16669588634E+03  0.67746276454E+03  0.74545435043E+03  0.17112169921E+03 0.  0.
         24    2    3    3    0    0  0.58428310758E+02  0.11610361138E+03  0.25088660003E+03  0.29338969880E+03  0.78990589430E+02 0.  0.
         -6    2    1    2    0  502 -0.19918894742E+03 -0.16669588634E+03  0.45486933994E+03  0.55130078499E+03  0.17193802316E+03 0.  0.
        -24    2    5    5    0    0 -0.91962261020E+02 -0.60345888127E+02  0.10939039990E+03  0.17422563013E+03  0.79307168264E+02 0.  0.
          5    1    3    3  501    0  0.14076063666E+03  0.50592274965E+02  0.42657616451E+03  0.45206465163E+03  0.47000000000E+01 0. -1.
        -13    1    4    4    0    0 -0.10741831379E+02  0.60507875431E+02  0.12595299537E+03  0.14014544935E+03  0.00000000000E+00 0.  1.
         14    1    4    4    0    0  0.69170142137E+02  0.55595735945E+02  0.12493360466E+03  0.15324424946E+03  0.00000000000E+00 0. -1.
         -5    1    5    5    0  502 -0.10722668640E+03 -0.10634999821E+03  0.34547894005E+03  0.37707515486E+03  0.47000000000E+01 0.  1.
         11    1    6    6    0    0  0.55325297569E+01 -0.32567078888E+02  0.17406805106E+02  0.37339260529E+02  0.00000000000E+00 0. -1.
        -12    1    6    6    0    0 -0.97494790777E+02 -0.27778809239E+02  0.91983594792E+02  0.13688636960E+03  0.00000000000E+00 0.  1.
</event>
<event>
12    1  0.9028446E-003  0.1930348E+03  0.7818608E-02  0.1156014E+00
         21   -1    0    0  501  502  0.00000000000E+00  0.00000000000E+00  0.31811466039E+03  0.31811466039E+03  0.00000000000E+00 0. -1.
         21   -1    0    0  502  503 -0.00000000000E+00 -0.00000000000E+00 -0.11649819121E+03  0.11649819121E+03  0.00000000000E+00 0. -1.
          6    2    1    2  501    0  0.78785593791E+02  0.35564245244E+02  0.94862956515E+02  0.21402556391E+03  0.17127748294E+03 0.  0.
         24    2    3    3    0    0  0.44683947759E+02 -0.40930285420E+02  0.65368117071E+02  0.12510778708E+03  0.87789658879E+02 0.  0.
         -6    2    1    2    0  503 -0.78785593791E+02 -0.35564245244E+02  0.10675351266E+03  0.22058728768E+03  0.17259911266E+03 0.  0.
        -24    2    5    5    0    0 -0.66870399614E+02 -0.75872744512E+02  0.27360957321E+02  0.13063166079E+03  0.78023618922E+02 0.  0.
          5    1    3    3  501    0  0.34101646032E+02  0.76494530664E+02  0.29494839444E+02  0.88917776836E+02  0.47000000000E+01 0. -1.
        -11    1    4    4    0    0  0.20566933465E+02  0.78921064464E+01  0.67102523054E+02  0.70626005809E+02  0.00000000000E+00 0.  1.
         12    1    4    4    0    0  0.24117014294E+02 -0.48822391866E+02 -0.17344059833E+01  0.54481781268E+02  0.00000000000E+00 0. -1.
         -5    1    5    5    0  503 -0.11915194177E+02  0.40308499268E+02  0.79392555344E+02  0.89955626892E+02  0.47000000000E+01 0.  1.
         13    1    6    6    0    0 -0.53980727464E+02 -0.12090863871E+02  0.34461054571E+02  0.65174168263E+02  0.00000000000E+00 0. -1.
        -14    1    6    6    0    0 -0.12889672150E+02 -0.63781880642E+02 -0.71000972509E+01  0.65457492522E+02  0.00000000000E+00 0.  1.
</event>
<event>
12    1  0.9028446E-003  0.1772248E+03  0.7818608E-02  0.1170806E+00
         21   -1    0    0  501  502  0.00000000000E+00  0.00000000000E+00  0.10193825403E+03  0.10193825403E+03  0.00000000000E+00 0.  1.
         21   -1    0    0  502  503 -0.00000000000E+00 -0.00000000000E+00 -0.31740919396E+03  0.31740919396E+03  0.00000000000E+00 0.  1.
          6    2    1    2  501    0 -0.57571741249E+01  0.35981641301E+02 -0.67786652737E+02  0.18865437473E+03  0.17224290770E+03 0.  0.
         24    2    3    3    0    0  0.43874856286E+02  0.52988052892E+02 -0.21857983868E+01  0.10452281960E+03  0.78660697546E+02 0.  0.
         -6    2    1    2    0  503  0.57571741249E+01 -0.35981641301E+02 -0.14768428720E+03  0.23069307326E+03  0.17343823627E+03 0.  0.
        -24    2    5    5    0    0  0.20169950496E+02  0.30348494751E+02 -0.13624177873E+03  0.16169715982E+03  0.79096720457E+02 0.  0.
          5    1    3    3  501    0 -0.49632030411E+02 -0.17006411591E+02 -0.65600854350E+02  0.84131555135E+02  0.47000000000E+01 0. -1.
        -13    1    4    4    0    0  0.37970324469E+02  0.66069323027E+02 -0.22676758252E+02  0.79505574335E+02  0.00000000000E+00 0.  1.
         14    1    4    4    0    0  0.59045318178E+01 -0.13081270134E+02  0.20490959865E+02  0.25017245262E+02  0.00000000000E+00 0. -1.
         -5    1    5    5    0  503 -0.14412776371E+02 -0.66330136053E+02 -0.11442508470E+02  0.68995913441E+02  0.47000000000E+01 0.  1.
         13    1    6    6    0    0 -0.25333508375E+02  0.30807438158E+02 -0.79652513126E+02  0.89080905584E+02  0.00000000000E+00 0. -1.
        -14    1    6    6    0    0  0.45503458870E+02 -0.45894340612E+00 -0.56589265602E+02  0.72616254238E+02  0.00000000000E+00 0.  1.
</event>
<event>
12    1  0.9028446E-003  0.1854764E+03  0.7818608E-02  0.1162962E+00
         21   -1    0    0  501  502  0.00000000000E+00  0.00000000000E+00  0.20433988670E+03  0.20433988670E+03  0.00000000000E+00 0.  1.
         21   -1    0    0  502  503 -0.00000000000E+00 -0.00000000000E+00 -0.17548153432E+03  0.17548153432E+03  0.00000000000E+00 0.  1.
          6    2    1    2  501    0 -0.77838614720E+00  0.64377833798E+02 -0.27327440626E+02  0.18747879337E+03  0.17394366209E+03 0.  0.
         24    2    3    3    0    0 -0.19804541574E+02 -0.15175739148E+02  0.27427951289E+02  0.88934343992E+02  0.80836267254E+02 0.  0.
         -6    2    1    2    0  503  0.77838614720E+00 -0.64377833798E+02  0.56185793009E+02  0.19234262765E+03  0.17231869227E+03 0.  0.
        -24    2    5    5    0    0  0.64716389805E+02 -0.60033770561E+02  0.44821273732E+02  0.12708788456E+03  0.79687634585E+02 0.  0.
          5    1    3    3  501    0  0.19026155427E+02  0.79553572946E+02 -0.54755391915E+02  0.98544449375E+02  0.47000000000E+01 0. -1.
        -13    1    4    4    0    0  0.35898104433E+01 -0.39114985967E+02 -0.81176582905E+01  0.40109415881E+02  0.00000000000E+00 0.  1.
         14    1    4    4    0    0 -0.23394352018E+02  0.23939246819E+02  0.35545609580E+02  0.48824928110E+02  0.00000000000E+00 0. -1.
         -5    1    5    5    0  503 -0.63938003658E+02 -0.43440632369E+01  0.11364519277E+02  0.65254743088E+02  0.47000000000E+01 0.  1.
         13    1    6    6    0    0  0.38072094792E+02 -0.42371190833E+01 -0.14919819822E+02  0.41110079099E+02  0.00000000000E+00 0. -1.
        -14    1    6    6    0    0  0.26644295012E+02 -0.55796651477E+02  0.59741093554E+02  0.85977805461E+02  0.00000000000E+00 0.  1.
</event>
<event>
12    1  0.9028446E-003  0.1804166E+03  0.7818608E-02  0.1168644E+00
         21   -1    0    0  501  502  0.00000000000E+00  0.00000000000E+00  0.50158917292E+02  0.50158917292E+02  0.00000000000E+00 0. -1.
         21   -1    0    0  502  503 -0.00000000000E+00 -0.00000000000E+00 -0.67176501228E+03  0.67176501228E+03  0.00000000000E+00 0. -1.
          6    2    1    2  501    0  0.37971725907E+02  0.83211222862E+01 -0.39575337033E+03  0.43285713559E+03  0.17097800051E+03 0.  0.
         24    2    3    3    0    0  0.23245457761E+02 -0.34568663395E+02 -0.36908818089E+03  0.38004123820E+03  0.80435773539E+02 0.  0.
         -6    2    1    2    0  503 -0.37971725907E+02 -0.83211222862E+01 -0.22585272465E+03  0.28906679398E+03  0.17617907112E+03 0.  0.
        -24    2    5    5    0    0 -0.75237521483E+02 -0.51700392270E+02 -0.16792106954E+03  0.20752743386E+03  0.80848840492E+02 0.  0.
          5    1    3    3  501    0  0.14726268147E+02  0.42889785681E+02 -0.26665189442E+02  0.52815897392E+02  0.47000000000E+01 0. -1.
        -11    1    4    4    0    0  0.50321786708E+02 -0.93363832156E+01 -0.25549186057E+03  0.26056772841E+03  0.00000000000E+00 0.  1.
         12    1    4    4    0    0 -0.27076328948E+02 -0.25232280180E+02 -0.11359632031E+03  0.11947350979E+03  0.00000000000E+00 0. -1.
         -5    1    5    5    0  503  0.37265795576E+02  0.43379269984E+02 -0.57931655116E+02  0.81539360119E+02  0.47000000000E+01 0.  1.
         11    1    6    6    0    0 -0.20879963419E+02 -0.52654748989E+02 -0.12832493860E+03  0.14027040076E+03  0.00000000000E+00 0. -1.
        -12    1    6    6    0    0 -0.54357558065E+02  0.95435671845E+00 -0.39596130939E+02  0.67257033095E+02  0.00000000000E+00 0.  1.
</event>
<event>
12    1  0.9028446E-003  0.1875095E+03  0.7818608E-02  0.1161104E+00
         21   -1    0    0  503  502  0.00000000000E+00  0.00000000000E+00  0.10096105619E+04  0.10096105619E+04  0.00000000000E+00 0. -1.
         21   -1    0    0  501  503 -0.00000000000E+00 -0.00000000000E+00 -0.34533103568E+02  0.34533103568E+02  0.00000000000E+00 0. -1.
          6    2    1    2  501    0 -0.70235105872E+02 -0.31061437128E+02  0.49908050022E+03  0.53314270441E+03  0.17106143514E+03 0.  0.
         24    2    3    3    0    0  0.58813316803E+01 -0.48122254632E+02  0.37612394500E+03  0.38745403624E+03  0.79379258932E+02 0.  0.
         -6    2    1    2    0  502  0.70235105872E+02  0.31061437128E+02  0.47599695806E+03  0.51100096101E+03  0.16926634366E+03 0.  0.
        -24    2    5    5    0    0  0.92562011096E+02 -0.22282825084E+02  0.28374985875E+03  0.31018976062E+03  0.81482851332E+02 0.  0.
          5    1    3    3  501    0 -0.76116437553E+02  0.17060817504E+02  0.12295655523E+03  0.14568866817E+03  0.47000000000E+01 0. -1.
        -11    1    4    4    0    0 -0.32719386424E+02 -0.35629730150E+02  0.14668658607E+03  0.15445708287E+03  0.00000000000E+00 0.  1.
         12    1    4    4    0    0  0.38600718104E+02 -0.12492524481E+02  0.22943735893E+03  0.23299695337E+03  0.00000000000E+00 0. -1.
         -5    1    5    5    0  502 -0.22326905224E+02  0.53344262211E+02  0.19224709932E+03  0.20081120039E+03  0.47000000000E+01 0.  1.
         13    1    6    6    0    0  0.53587099168E+02 -0.41958088073E+01  0.24955049100E+03  0.25527363665E+03  0.00000000000E+00 0. -1.
        -14    1    6    6    0    0  0.38974911928E+02 -0.18087016276E+02  0.34199367746E+02  0.54916123969E+02  0.00000000000E+00 0.  1.
</event>
<event>
12    1  0.9028446E-003  0.1850902E+03  0.7818608E-02  0.1163149E+00
         21   -1    0    0  503  502  0.00000000000E+00  0.00000000000E+00  0.13282233419E+04  0.13282233419E+04  0.00000000000E+00 0. -1.
         21   -1    0    0  501  503 -0.00000000000E+00 -0.00000000000E+00 -0.32486854705E+02  0.32486854705E+02  0.00000000000E+00 0. -1.
          6    2    1    2  501    0 -0.33158406506E+02  0.57593401340E+02  0.33543964109E+03  0.38273862298E+03  0.17190875749E+03 0.  0.
         24    2    3    3    0    0 -0.74747914014E+02  0.75797168900E+01  0.26102496239E+03  0.28379070650E+03  0.82209679186E+02 0.  0.
         -6    2    1    2    0  502  0.33158406506E+02 -0.57593401340E+02  0.96029684612E+03  0.97797157365E+03  0.17274804310E+03 0.  0.
        -24    2    5    5    0    0 -0.81273135876E+01  0.14062792359E+02  0.70514915907E+03  0.70971506770E+03  0.78716741687E+02 0.  0.
          5    1    3    3  501    0  0.41589507508E+02  0.50013684450E+02  0.74414678708E+02  0.98947916472E+02  0.47000000000E+01 0. -1.
        -13    1    4    4    0    0 -0.76143211008E+02 -0.71830608133E+01  0.12209358209E+03  0.14407021807E+03  0.00000000000E+00 0.  1.
         14    1    4    4    0    0  0.13952969943E+01  0.14762777703E+02  0.13893138029E+03  0.13972048844E+03  0.00000000000E+00 0. -1.
         -5    1    5    5    0  502  0.41285720093E+02 -0.71656193698E+02  0.25514768705E+03  0.26825650595E+03  0.47000000000E+01 0.  1.
         13    1    6    6    0    0  0.10264696366E+01  0.75328948217E+01  0.42189823196E+01  0.86947085129E+01  0.00000000000E+00 0. -1.
        -14    1    6    6    0    0 -0.91537832242E+01  0.65298975369E+01  0.70093017675E+03  0.70102035919E+03  0.00000000000E+00 0.  1.
</event>
<event>
12    1  0.9028446E-003  0.2302772E+03  0.7818608E-02  0.1126490E+00
         21   -1    0    0  501  502  0.00000000000E+00  0.00000000000E+00  0.20083084342E+04  0.20083084342E+04  0.00000000000E+00 0. -1.
         21   -1    0    0  502  503 -0.00000000000E+00 -0.00000000000E+00 -0.27110212393E+02  0.27110212393E+02  0.00000000000E+00 0.  1.
          6    2    1    2  501    0  0.15383938791E+03 -0.44643093837E+01  0.82347253302E+03  0.85506410318E+03  0.17129250006E+03 0.  0.
         24    2    3    3    0    0  0.17751900886E+03 -0.22381067293E+02  0.63115136254E+03  0.66040733532E+03  0.75972991352E+02 0.  0.
         -6    2    1    2    0  503 -0.15383938791E+03  0.44643093837E+01  0.11577256888E+04  0.11803545434E+04  0.17094323721E+03 0.  0.
        -24    2    5    5    0    0 -0.23068455722E+02  0.41294669354E+02  0.40243641740E+03  0.41292931214E+03  0.79486749894E+02 0.  0.
          5    1    3    3  501    0 -0.23679620950E+02  0.17916757909E+02  0.19232117048E+03  0.19465676787E+03  0.47000000000E+01 0. -1.
        -11    1    4    4    0    0  0.11769807516E+03 -0.36288830819E+02  0.31258674623E+03  0.33597647248E+03  0.00000000000E+00 0.  1.
         12    1    4    4    0    0  0.59820933707E+02  0.13907763526E+02  0.31856461631E+03  0.32443086284E+03  0.00000000000E+00 0. -1.
         -5    1    5    5    0  503 -0.13077093219E+03 -0.36830359970E+02  0.75528927138E+03  0.76742523127E+03  0.47000000000E+01 0.  1.
         11    1    6    6    0    0 -0.31206370199E+02 -0.37764261909E+01  0.28735304988E+03  0.28906724860E+03  0.00000000000E+00 0. -1.
        -12    1    6    6    0    0  0.81379144770E+01  0.45071095545E+02  0.11508336752E+03  0.12386206354E+03  0.00000000000E+00 0.  1.
</event>
<event>
12    1  0.9028446E-003  0.1940697E+03  0.7818608E-02  0.1154929E+00
         21   -1    0    0  503  502  0.00000000000E+00  0.00000000000E+00  0.35843590230E+03  0.35843590230E+03  0.00000000000E+00 0. -1.
         21   -1    0    0  501  503 -0.00000000000E+00 -0.00000000000E+00 -0.15091935467E+03  0.15091935467E+03  0.00000000000E+00 0. -1.
          6    2    1    2  501    0 -0.54314483553E+02 -0.69732846505E+02 -0.37011808397E+02  0.19717396583E+03  0.17232227319E+03 0.  0.
         24    2    3    3    0    0 -0.68297455788E+02 -0.77733609963E+02  0.24933219879E+02  0.13299599254E+03  0.79744667482E+02 0.  0.
         -6    2    1    2    0  502  0.54314483553E+02  0.69732846505E+02  0.24452835602E+03  0.31218129114E+03  0.17277241860E+03 0.  0.
        -24    2    5    5    0    0  0.71318969046E+02  0.81998763213E+02  0.25476895554E+03  0.28837866275E+03  0.80279760251E+02 0.  0.
          5    1    3    3  501    0  0.13982972235E+02  0.80007634580E+01 -0.61945028276E+02  0.64177973297E+02  0.47000000000E+01 0. -1.
        -11    1    4    4    0    0 -0.71526049207E+02 -0.41650181105E+02 -0.91278216907E+01  0.83270825804E+02  0.00000000000E+00 0.  1.
         12    1    4    4    0    0  0.32285934191E+01 -0.36083428858E+02  0.34061041570E+02  0.49725166731E+02  0.00000000000E+00 0. -1.
         -5    1    5    5    0  502 -0.17004485493E+02 -0.12265916708E+02 -0.10240599520E+02  0.23802628387E+02  0.47000000000E+01 0.  1.
         11    1    6    6    0    0  0.73492161195E+02  0.92398942913E+02  0.19722150315E+03  0.22985861679E+03  0.00000000000E+00 0. -1.
        -12    1    6    6    0    0 -0.21731921487E+01 -0.10400179700E+02  0.57547452394E+02  0.58520045959E+02  0.00000000000E+00 0.  1.
</event>
<event>
12    1  0.9028446E-003  0.3051744E+03  0.7818608E-02  0.1083468E+00
         21   -1    0    0  503  502  0.00000000000E+00  0.00000000000E+00  0.17401109901E+03  0.17401109901E+03  0.00000000000E+00 0.  1.
         21   -1    0    0  501  503 -0.00000000000E+00 -0.00000000000E+00 -0.52548836457E+03  0.52548836457E+03  0.00000000000E+00 0.  1.
          6    2    1    2  501    0  0.25073492601E+03  0.19262673108E+02 -0.19173073400E+03  0.35504280123E+03  0.16141766522E+03 0.  0.
         24    2    3    3    0    0  0.66598997177E+02  0.30494471705E+02 -0.10087155947E+03  0.14934964825E+03  0.82249052827E+02 0.  0.
         -6    2    1    2    0  502 -0.25073492601E+03 -0.19262673108E+02 -0.15974653156E+03  0.34445666235E+03  0.17289414159E+03 0.  0.
        -24    2    5    5    0    0 -0.26342227521E+03 -0.42598435757E+02 -0.14823715944E+03  0.31512950268E+03  0.78271490409E+02 0.  0.
          5    1    3    3  501    0  0.18413592884E+03 -0.11231798597E+02 -0.90859174528E+02  0.20569315298E+03  0.47000000000E+01 0. -1.
        -13    1    4    4    0    0  0.86184682807E+02  0.24648909590E+02 -0.83989920659E+02  0.12284003853E+03  0.00000000000E+00 0.  1.
         14    1    4    4    0    0 -0.19585685630E+02  0.58455621147E+01 -0.16881638815E+02  0.26509609713E+02  0.00000000000E+00 0. -1.
         -5    1    5    5    0  502  0.12687349200E+02  0.23335762649E+02 -0.11509372121E+02  0.29327159677E+02  0.47000000000E+01 0.  1.
         11    1    6    6    0    0 -0.29841006125E+02 -0.26395778289E+02 -0.42390765471E+02  0.58173875196E+02  0.00000000000E+00 0. -1.
        -12    1    6    6    0    0 -0.23358126909E+03 -0.16202657467E+02 -0.10584639397E+03  0.25695562748E+03  0.00000000000E+00 0.  1.
</event>
<event>
12    1  0.9028446E-003  0.2119971E+03  0.7818608E-02  0.1140025E+00
         21   -1    0    0  501  502  0.00000000000E+00  0.00000000000E+00  0.40063622956E+03  0.40063622956E+03  0.00000000000E+00 0.  1.
         21   -1    0    0  502  503 -0.00000000000E+00 -0.00000000000E+00 -0.16020537512E+03  0.16020537512E+03  0.00000000000E+00 0. -1.
          6    2    1    2  501    0  0.74511357186E+02  0.96926768454E+02  0.27391670296E+03  0.34637136375E+03  0.17319359305E+03 0.  0.
         24    2    3    3    0    0  0.46382601557E+02  0.13125890031E+03  0.24289857128E+03  0.29201939356E+03  0.83038338416E+02 0.  0.
         -6    2    1    2    0  503 -0.74511357186E+02 -0.96926768454E+02 -0.33485848514E+02  0.21447024093E+03  0.17300127572E+03 0.  0.
        -24    2    5    5    0    0 -0.55943860076E+02 -0.70217437265E+02 -0.89388446836E+02  0.14962171881E+03  0.79600002108E+02 0.  0.
          5    1    3    3  501    0  0.28128755629E+02 -0.34332131853E+02  0.31018131681E+02  0.54351970193E+02  0.47000000000E+01 0. -1.
        -13    1    4    4    0    0  0.27364988962E+01  0.92263117413E+02  0.19730196345E+03  0.21782570106E+03  0.00000000000E+00 0.  1.
         14    1    4    4    0    0  0.43646102660E+02  0.38995782894E+02  0.45596607832E+02  0.74193692500E+02  0.00000000000E+00 0. -1.
         -5    1    5    5    0  503 -0.18567497110E+02 -0.26709331190E+02  0.55902598322E+02  0.64848522117E+02  0.47000000000E+01 0.  1.
         13    1    6    6    0    0 -0.40940059492E+02 -0.40253195594E+02 -0.36075622670E+01  0.57527582361E+02  0.00000000000E+00 0. -1.
        -14    1    6    6    0    0 -0.15003800584E+02 -0.29964241671E+02 -0.85780884569E+02  0.92094136449E+02  0.00000000000E+00 0.  1.
</event>
<event>
12    1  0.9028446E-003  0.2116334E+03  0.7818608E-02  0.1141028E+00
         21   -1    0    0  503  502  0.00000000000E+00  0.00000000000E+00  0.11811876158E+04  0.11811876158E+04  0.00000000000E+00 0. -1.
         21   -1    0    0  501  503 -0.00000000000E+00 -0.00000000000E+00 -0.80639328349E+02  0.80639328349E+02  0.00000000000E+00 0. -1.
          6    2    1    2  501    0 -0.34068642463E+02  0.11696231157E+03  0.85160042816E+02  0.22461818893E+03  0.16840499748E+03 0.  0.
         24    2    3    3    0    0 -0.53808338612E+02  0.12348583713E+03  0.11057999321E+03  0.19144476782E+03  0.79240614290E+02 0.  0.
         -6    2    1    2    0  502  0.34068642463E+02 -0.11696231157E+03  0.10153882446E+04  0.10372087552E+04  0.17305449961E+03 0.  0.
        -24    2    5    5    0    0  0.12004285186E+02 -0.14000666608E+02  0.48762974637E+03  0.49902750445E+03  0.10442968505E+03 0.  0.
          5    1    3    3  501    0  0.19739696148E+02 -0.65235255506E+01 -0.25419950396E+02  0.33173421105E+02  0.47000000000E+01 0. -1.
        -13    1    4    4    0    0 -0.54155322979E+02  0.42389274317E+02  0.24060627305E+02  0.72859888625E+02  0.00000000000E+00 0.  1.
         14    1    4    4    0    0  0.34698436695E+00  0.81096562808E+02  0.86519365907E+02  0.11858487920E+03  0.00000000000E+00 0. -1.
         -5    1    5    5    0  502  0.22064357277E+02 -0.10296164497E+03  0.52775849822E+03  0.53818125074E+03  0.47000000000E+01 0.  1.
         11    1    6    6    0    0  0.28144961465E+02 -0.52754809424E+02  0.35222541928E+03  0.35726454451E+03  0.00000000000E+00 0. -1.
        -12    1    6    6    0    0 -0.16140676279E+02  0.38754142817E+02  0.13540432709E+03  0.14176295994E+03  0.00000000000E+00 0.  1.
</event>
<event>
12    1  0.9028446E-003  0.2121856E+03  0.7818608E-02  0.1139934E+00
         21   -1    0    0  501  502  0.00000000000E+00  0.00000000000E+00  0.82261177840E+03  0.82261177840E+03  0.00000000000E+00 0. -1.
         21   -1    0    0  502  503 -0.00000000000E+00 -0.00000000000E+00 -0.92993941913E+02  0.92993941913E+02  0.00000000000E+00 0. -1.
          6    2    1    2  501    0 -0.12377029920E+03 -0.32624021798E+00  0.65912757015E+03  0.69243906759E+03  0.17234707773E+03 0.  0.
         24    2    3    3    0    0 -0.92195441655E+02 -0.15129079493E+01  0.19362707361E+03  0.22584375891E+03  0.70793159628E+02 0.  0.
         -6    2    1    2    0  503  0.12377029920E+03  0.32624021798E+00  0.70490266338E+02  0.22316665272E+03  0.17180012760E+03 0.  0.
        -24    2    5    5    0    0  0.65433401048E+02  0.30989801659E+02  0.10307262889E+03  0.14949747304E+03  0.80520990051E+02 0.  0.
          5    1    3    3  501    0 -0.31574857544E+02  0.11866677313E+01  0.46550049653E+03  0.46659530868E+03  0.47000000000E+01 0. -1.
        -13    1    4    4    0    0 -0.66248938332E+01 -0.12840873396E+02  0.89190832950E+02  0.90353649236E+02  0.00000000000E+00 0.  1.
         14    1    4    4    0    0 -0.85570547822E+02  0.11327965447E+02  0.10443624066E+03  0.13549010967E+03  0.00000000000E+00 0. -1.
         -5    1    5    5    0  503  0.58336898150E+02 -0.30663561441E+02 -0.32582362551E+02  0.73669179685E+02  0.47000000000E+01 0.  1.
         13    1    6    6    0    0  0.21674082814E+01  0.33615048568E+02  0.69521256055E+01  0.34394784478E+02  0.00000000000E+00 0. -1.
        -14    1    6    6    0    0  0.63265992767E+02 -0.26252469087E+01  0.96120503284E+02  0.11510268856E+03  0.00000000000E+00 0.  1.
</event>
<event>
12    1  0.9028446E-003  0.1973447E+03  0.7818608E-02  0.1152170E+00
         21   -1    0    0  503  502  0.00000000000E+00  0.00000000000E+00  0.41596998241E+03  0.41596998241E+03  0.00000000000E+00 0.  1.
         21   -1    0    0  501  503 -0.00000000000E+00 -0.00000000000E+00 -0.98104617378E+02  0.98104617378E+02  0.00000000000E+00 0.  1.
          6    2    1    2  501    0  0.19818141559E+01 -0.98119833400E+02  0.10204485516E+03  0.22216675704E+03  0.17121181669E+03 0.  0.
         24    2    3    3    0    0  0.58853356254E+02 -0.94914970114E+02  0.53638482059E+02  0.14726742189E+03  0.79611793712E+02 0.  0.
         -6    2    1    2    0  502 -0.19818141559E+01  0.98119833400E+02  0.21582050987E+03  0.29190784275E+03  0.17029464725E+03 0.  0.
        -24    2    5    5    0    0  0.52280919774E+01  0.13285629885E+03  0.14096705490E+03  0.20893956870E+03  0.78140282246E+02 0.  0.
          5    1    3    3  501    0 -0.56871542098E+02 -0.32048632859E+01  0.48406373103E+02  0.74899335153E+02  0.47000000000E+01 0. -1.
        -13    1    4    4    0    0  0.67429050337E+02 -0.34087481257E+02  0.33194051578E+02  0.82525621888E+02  0.00000000000E+00 0.  1.
         14    1    4    4    0    0 -0.85756940828E+01 -0.60827488858E+02  0.20444430481E+02  0.64741800001E+02  0.00000000000E+00 0. -1.
         -5    1    5    5    0  502 -0.72099061333E+01 -0.34736465450E+02  0.74853454968E+02  0.82968274051E+02  0.47000000000E+01 0.  1.
         13    1    6    6    0    0 -0.85057824500E+01  0.78298180486E+02  0.29542716043E+02  0.84117331589E+02  0.00000000000E+00 0. -1.
        -14    1    6    6    0    0  0.13733874427E+02  0.54558118364E+02  0.11142433886E+03  0.12482223711E+03  0.00000000000E+00 0.  1.
</event>
<event>
12    1  0.9028446E-003  0.1776911E+03  0.7818608E-02  0.1170131E+00
         21   -1    0    0  501  502  0.00000000000E+00  0.00000000000E+00  0.10973287569E+03  0.10973287569E+03  0.00000000000E+00 0.  1.
         21   -1    0    0  502  503 -0.00000000000E+00 -0.00000000000E+00 -0.29018124406E+03  0.29018124406E+03  0.00000000000E+00 0.  1.
          6    2    1    2  501    0 -0.18974648192E+02  0.38504261224E+02 -0.70199845750E+02  0.19105532793E+03  0.17242825923E+03 0.  0.
         24    2    3    3    0    0 -0.57975285331E+02  0.58812332982E+02 -0.86375481142E+02  0.14396808278E+03  0.80287364495E+02 0.  0.
         -6    2    1    2    0  503  0.18974648192E+02 -0.38504261224E+02 -0.11024852262E+03  0.20885879181E+03  0.17211810704E+03 0.  0.
        -24    2    5    5    0    0  0.69684633225E+02  0.40613349080E+01 -0.44373256598E+02  0.11534423022E+03  0.80391933648E+02 0.  0.
          5    1    3    3  501    0  0.39000637139E+02 -0.20308071758E+02  0.16175635391E+02  0.47087245153E+02  0.47000000000E+01 0. -1.
        -11    1    4    4    0    0  0.19532708190E+02  0.21515487917E+02 -0.24514266041E+02  0.38018313338E+02  0.00000000000E+00 0.  1.
         12    1    4    4    0    0 -0.77507993521E+02  0.37296845065E+02 -0.61861215100E+02  0.10594976944E+03  0.00000000000E+00 0. -1.
         -5    1    5    5    0  503 -0.50709985033E+02 -0.42565596132E+02 -0.65875266023E+02  0.93514561592E+02  0.47000000000E+01 0.  1.
         13    1    6    6    0    0 -0.12757847606E+01  0.30209147425E+02 -0.18343259502E+02  0.35365171908E+02  0.00000000000E+00 0. -1.
        -14    1    6    6    0    0  0.70960417986E+02 -0.26147812517E+02 -0.26029997097E+02  0.79979058316E+02  0.00000000000E+00 0.  1.
</event>
<event>
12    1  0.9028446E-003  0.1882334E+03  0.7818608E-02  0.1160348E+00
         21   -1    0    0  501  502  0.00000000000E+00  0.00000000000E+00  0.30665946130E+03  0.30665946130E+03  0.00000000000E+00 0. -1.
         21   -1    0    0  502  503 -0.00000000000E+00 -0.00000000000E+00 -0.18254293958E+03  0.18254293958E+03  0.00000000000E+00 0. -1.
          6    2    1    2  501    0  0.29810279931E+02 -0.71019585558E+02  0.21095525461E+03  0.28190366107E+03  0.17039694938E+03 0.  0.
         24    2    3    3    0    0  0.68789059567E+02 -0.16802169636E+02  0.67084459650E+02  0.12322231657E+03  0.75293870630E+02 0.  0.
         -6    2    1    2    0  503 -0.29810279931E+02  0.71019585558E+02 -0.86838732888E+02  0.20729873980E+03  0.17175379958E+03 0.  0.
        -24    2    5    5    0    0  0.46919853721E+02  0.17673917372E+02 -0.49354905767E+02  0.10649992523E+03  0.79953031971E+02 0.  0.
          5    1    3    3  501    0 -0.38978779636E+02 -0.54217415923E+02  0.14387079496E+03  0.15868134450E+03  0.47000000000E+01 0. -1.
        -13    1    4    4    0    0  0.59851449419E+02  0.84480421224E+01  0.11511562446E+02  0.61531142385E+02  0.00000000000E+00 0.  1.
         14    1    4    4    0    0  0.89376101480E+01 -0.25250211758E+02  0.55572897205E+02  0.61691174188E+02  0.00000000000E+00 0. -1.
         -5    1    5    5    0  503 -0.76730133652E+02  0.53345668186E+02 -0.37483827121E+02  0.10079881458E+03  0.47000000000E+01 0.  1.
         11    1    6    6    0    0 -0.21702671272E+01  0.40267966944E+02 -0.21726262507E+02  0.45806655671E+02  0.00000000000E+00 0. -1.
        -12    1    6    6    0    0  0.49090120848E+02 -0.22594049572E+02 -0.27628643260E+02  0.60693269555E+02  0.00000000000E+00 0.  1.
</event>
<event>
12    1  0.9028446E-003  0.1803475E+03  0.7818608E-02  0.1167554E+00
         21   -1    0    0  501  502  0.00000000000E+00  0.00000000000E+00  0.12555278245E+02  0.12555278245E+02  0.00000000000E+00 0.  1.
         21   -1    0    0  502  503 -0.00000000000E+00 -0.00000000000E+00 -0.27683085141E+04  0.27683085141E+04  0.00000000000E+00 0.  1.
          6    2    1    2  501    0 -0.43925572678E+00  0.54813550925E+02 -0.10191582886E+04  0.10349293021E+04  0.17143606629E+03 0.  0.
         24    2    3    3    0    0  0.41402302176E+02  0.38428318492E+02 -0.31006859841E+03  0.32440170198E+03  0.76831258214E+02 0.  0.
         -6    2    1    2    0  503  0.43925572678E+00 -0.54813550925E+02 -0.17365949472E+04  0.17459344902E+04  0.17181535166E+03 0.  0.
        -24    2    5    5    0    0 -0.42606210624E+02 -0.87211808572E+02 -0.10693303473E+04  0.10764819560E+04  0.76972859875E+02 0.  0.
          5    1    3    3  501    0 -0.41841557903E+02  0.16385232432E+02 -0.70908969018E+03  0.71052760012E+03  0.47000000000E+01 0. -1.
        -11    1    4    4    0    0 -0.86340257960E+01  0.13885295249E+02 -0.99239798662E+01  0.19126766637E+02  0.00000000000E+00 0.  1.
         12    1    4    4    0    0  0.50036327972E+02  0.24543023244E+02 -0.30014461855E+03  0.30527493535E+03  0.00000000000E+00 0. -1.
         -5    1    5    5    0  503  0.43045466351E+02  0.32398257647E+02 -0.66726459996E+03  0.66945253427E+03  0.47000000000E+01 0.  1.
         13    1    6    6    0    0 -0.15925163099E+02  0.51318027093E+00 -0.39717800886E+02  0.42794601072E+02  0.00000000000E+00 0. -1.
        -14    1    6    6    0    0 -0.26681047525E+02 -0.87724988843E+02 -0.10296125464E+04  0.10336873549E+04  0.00000000000E+00 0.  1.
</event>
<event>
12    1  0.9028446E-003  0.1979086E+03  0.7818608E-02  0.1151673E+00
         21   -1    0    0  501  502  0.00000000000E+00  0.00000000000E+00  0.35163331304E+03  0.35163331304E+03  0.00000000000E+00 0.  1.
         21   -1    0    0  502  503 -0.00000000000E+00 -0.00000000000E+00 -0.11173468399E+03  0.11173468399E+03  0.00000000000E+00 0. -1.
          6    2    1    2  501    0  0.78882123989E+02 -0.51502903891E+02  0.10062909429E+03  0.22136834686E+03  0.17321313974E+03 0.  0.
         24    2    3    3    0    0 -0.24179930369E+02 -0.10571417213E+02  0.58644194766E+02  0.10270076308E+03  0.80074223467E+02 0.  0.
         -6    2    1    2    0  503 -0.78882123989E+02  0.51502903891E+02  0.13926953475E+03  0.24199965018E+03  0.17404852421E+03 0.  0.
        -24    2    5    5    0    0 -0.70761190696E+02 -0.23627831710E+02  0.12264057571E+03  0.16448068947E+03  0.80297981671E+02 0.  0.
          5    1    3    3  501    0  0.10306205436E+03 -0.40931486678E+02  0.41984899524E+02  0.11866758377E+03  0.47000000000E+01 0. -1.
        -11    1    4    4    0    0  0.61507803415E+01 -0.12820348059E+02  0.69093734028E+02  0.70541742998E+02  0.00000000000E+00 0.  1.
         12    1    4    4    0    0 -0.30330710710E+02  0.22489308461E+01 -0.10449539262E+02  0.32159020086E+02  0.00000000000E+00 0. -1.
         -5    1    5    5    0  503 -0.81209332926E+01  0.75130735601E+02  0.16628959047E+02  0.77518960703E+02  0.47000000000E+01 0.  1.
         13    1    6    6    0    0 -0.41636156222E+02  0.28006969384E+02  0.60417002705E+02  0.78537723770E+02  0.00000000000E+00 0. -1.
        -14    1    6    6    0    0 -0.29125034474E+02 -0.51634801094E+02  0.62223573001E+02  0.85942965705E+02  0.00000000000E+00 0.  1.
</event>
<event>
12    1  0.9028446E-003  0.2054377E+03  0.7818608E-02  0.1145521E+00
         21   -1    0    0  503  502  0.00000000000E+00  0.00000000000E+00  0.10595248981E+03  0.10595248981E+03  0.00000000000E+00 0.  1.
         21   -1    0    0  501  503 -0.00000000000E+00 -0.00000000000E+00 -0.43255222403E+03  0.43255222403E+03  0.00000000000E+00 0.  1.
          6    2    1    2  501    0  0.23130281029E+02  0.98226837877E+02 -0.24252901097E+03  0.31784422760E+03  0.17894443348E+03 0.  0.
         24    2    3    3    0    0 -0.51534306909E+02  0.84705275412E+02 -0.17117016844E+03  0.21357626631E+03  0.80528420423E+02 0.  0.
         -6    2    1    2    0  502 -0.23130281029E+02 -0.98226837877E+02 -0.84070723259E+02  0.22066048625E+03  0.17731227284E+03 0.  0.
        -24    2    5    5    0    0 -0.52385725236E+02 -0.75194044689E+02 -0.11850471711E+03  0.16972738787E+03  0.79784770788E+02 0.  0.
          5    1    3    3  501    0  0.74664587939E+02  0.13521562465E+02 -0.71358842532E+02  0.10426796129E+03  0.47000000000E+01 0. -1.
        -13    1    4    4    0    0 -0.13082164811E+02  0.68819201070E+02 -0.51684967712E+02  0.87054932999E+02  0.00000000000E+00 0.  1.
         14    1    4    4    0    0 -0.38452142098E+02  0.15886074342E+02 -0.11948520072E+03  0.12652133331E+03  0.00000000000E+00 0. -1.
         -5    1    5    5    0  502  0.29255444207E+02 -0.23032793188E+02  0.34433993852E+02  0.50933098378E+02  0.47000000000E+01 0.  1.
         11    1    6    6    0    0  0.67907565457E+00  0.12722958720E+02 -0.35398619033E+02  0.37621763007E+02  0.00000000000E+00 0. -1.
        -12    1    6    6    0    0 -0.53064800891E+02 -0.87917003409E+02 -0.83106098078E+02  0.13210562486E+03  0.00000000000E+00 0.  1.
</event>
<event>
12    1  0.9028446E-003  0.2439878E+03  0.7818608E-02  0.1117260E+00
         21   -1    0    0  503  502  0.00000000000E+00  0.00000000000E+00  0.86656541985E+02  0.86656541985E+02  0.00000000000E+00 0. -1.
         21   -1    0    0  501  503 -0.00000000000E+00 -0.00000000000E+00 -0.11149288320E+04  0.11149288320E+04  0.00000000000E+00 0.  1.
          6    2    1    2  501    0  0.13462648649E+03  0.10647870562E+03 -0.88745296445E+03  0.92038188006E+03  0.17340137085E+03 0.  0.
         24    2    3    3    0    0  0.81215973911E+02  0.94489740990E+00 -0.29059653241E+03  0.31190036185E+03  0.78984579673E+02 0.  0.
         -6    2    1    2    0  502 -0.13462648649E+03 -0.10647870562E+03 -0.14081932553E+03  0.28120349389E+03  0.17257843700E+03 0.  0.
        -24    2    5    5    0    0 -0.78485265059E+02 -0.13072705728E+03 -0.65313721044E+02  0.18392551277E+03  0.79455721972E+02 0.  0.
          5    1    3    3  501    0  0.53410512582E+02  0.10553380821E+03 -0.59685643204E+03  0.60848151820E+03  0.47000000000E+01 0. -1.
        -13    1    4    4    0    0 -0.42476615062E+01  0.42544215480E+01 -0.12835413523E+03  0.12849485111E+03  0.00000000000E+00 0.  1.
         14    1    4    4    0    0  0.85463635417E+02 -0.33095241381E+01 -0.16224239718E+03  0.18340551075E+03  0.00000000000E+00 0. -1.
         -5    1    5    5    0  502 -0.56141221434E+02  0.24248351664E+02 -0.75505604483E+02  0.97277981120E+02  0.47000000000E+01 0.  1.
         11    1    6    6    0    0 -0.84768311597E+02 -0.10035278525E+03 -0.26106017445E+02  0.13393234227E+03  0.00000000000E+00 0. -1.
        -12    1    6    6    0    0  0.62830465382E+01 -0.30374272026E+02 -0.39207703599E+02  0.49993170498E+02  0.00000000000E+00 0.  1.
</event>
<event>
12    1  0.9028446E-003  0.1985892E+03  0.7818608E-02  0.1150949E+00
         21   -1    0    0  503  502  0.00000000000E+00  0.00000000000E+00  0.64255159335E+03  0.64255159335E+03  0.00000000000E+00 0.  1.
         21   -1    0    0  501  503 -0.00000000000E+00 -0.00000000000E+00 -0.63052264551E+02  0.63052264551E+02  0.00000000000E+00 0.  1.
          6    2    1    2  501    0 -0.84053194780E+02 -0.48593510582E+02  0.23194048539E+03  0.30534251440E+03  0.17323796787E+03 0.  0.
         24    2    3    3    0    0 -0.34368270222E+02 -0.91390686551E+02  0.18701362722E+03  0.22571398569E+03  0.80245068284E+02 0.  0.
         -6    2    1    2    0  502  0.84053194780E+02  0.48593510582E+02  0.34755884340E+03  0.40026134349E+03  0.17316386646E+03 0.  0.
        -24    2    5    5    0    0  0.68120938586E+02  0.42943836231E+02  0.36073539740E+03  0.37831898302E+03  0.80688231068E+02 0.  0.
          5    1    3    3  501    0 -0.49684924558E+02  0.42797175969E+02  0.44926858170E+02  0.79628528708E+02  0.47000000000E+01 0. -1.
        -13    1    4    4    0    0 -0.57554808674E+02 -0.61925542151E+02  0.15435452555E+03  0.17599047795E+03  0.00000000000E+00 0.  1.
         14    1    4    4    0    0  0.23186538452E+02 -0.29465144401E+02  0.32659101673E+02  0.49723507740E+02  0.00000000000E+00 0. -1.
         -5    1    5    5    0  502  0.15932256194E+02  0.56496743512E+01 -0.13176554002E+02  0.21942360471E+02  0.47000000000E+01 0.  1.
         11    1    6    6    0    0  0.14935615916E+02  0.41491723510E+02  0.26630379023E+03  0.26993025846E+03  0.00000000000E+00 0. -1.
        -12    1    6    6    0    0  0.53185322670E+02  0.14521127207E+01  0.94431607174E+02  0.10838872456E+03  0.00000000000E+00 0.  1.
</event>
<event>
12    1  0.9028446E-003  0.1923309E+03  0.7818608E-02  0.1156631E+00
         21   -1    0    0  501  502  0.00000000000E+00  0.00000000000E+00  0.92565984275E+03  0.92565984275E+03  0.00000000000E+00 0.  1.
         21   -1    0    0  502  503 -0.00000000000E+00 -0.00000000000E+00 -0.39724965607E+02  0.39724965607E+02  0.00000000000E+00 0.  1.
          6    2    1    2  501    0  0.74116863778E+02 -0.47338519519E+02  0.44229934121E+03  0.48230682031E+03  0.17104653389E+03 0.  0.
         24    2    3    3    0    0  0.11052668648E+03 -0.61915798000E+02  0.31840830436E+03  0.35227124345E+03  0.81617805724E+02 0.  0.
         -6    2    1    2    0  503 -0.74116863778E+02  0.47338519519E+02  0.44363553594E+03  0.48307798805E+03  0.16975750018E+03 0.  0.
        -24    2    5    5    0    0 -0.74485108338E+02  0.14508168421E+02  0.14141865535E+03  0.17904657443E+03  0.79372044315E+02 0.  0.
          5    1    3    3  501    0 -0.36409822701E+02  0.14577278481E+02  0.12389103685E+03  0.13003557686E+03  0.47000000000E+01 0. -1.
        -13    1    4    4    0    0  0.88389217438E+02 -0.92479376462E+01  0.23435347910E+03  0.25063864682E+03  0.00000000000E+00 0.  1.
         14    1    4    4    0    0  0.22137469040E+02 -0.52667860354E+02  0.84054825254E+02  0.10163259663E+03  0.00000000000E+00 0. -1.
         -5    1    5    5    0  503  0.36824456025E+00  0.32830351098E+02  0.30221688059E+03  0.30403141362E+03  0.47000000000E+01 0.  1.
         13    1    6    6    0    0 -0.22583214848E+02 -0.26189794915E+02  0.17707554055E+02  0.38851826485E+02  0.00000000000E+00 0. -1.
        -14    1    6    6    0    0 -0.51901893490E+02  0.40697963337E+02  0.12371110129E+03  0.14019474794E+03  0.00000000000E+00 0.  1.
</event>
<event>
12    1  0.9028446E-003  0.2002659E+03  0.7818608E-02  0.1150206E+00
         21   -1    0    0  501  502  0.00000000000E+00  0.00000000000E+00  0.12564872602E+03  0.12564872602E+03  0.00000000000E+00 0.  1.
         21   -1    0    0  502  503 -0.00000000000E+00 -0.00000000000E+00 -0.55373203034E+03  0.55373203034E+03  0.00000000000E+00 0. -1.
          6    2    1    2  501    0 -0.75938797821E+02 -0.57029201141E+02  0.10444430350E+02  0.19728842010E+03  0.17261113458E+03 0.  0.
         24    2    3    3    0    0 -0.10444069540E+03 -0.19851965630E+02 -0.30324777566E+02  0.13500902286E+03  0.77497643361E+02 0.  0.
         -6    2    1    2    0  503  0.75938797821E+02  0.57029201141E+02 -0.43852773467E+03  0.48209233627E+03  0.17631623809E+03 0.  0.
        -24    2    5    5    0    0  0.94137189340E+02  0.10265067221E+02 -0.17811251940E+03  0.21684482917E+03  0.79563989030E+02 0.  0.
          5    1    3    3  501    0  0.28501897574E+02 -0.37177235511E+02  0.40769207915E+02  0.62279397232E+02  0.47000000000E+01 0. -1.
        -13    1    4    4    0    0 -0.88620309113E+02 -0.40316848124E+02 -0.42726380967E+02  0.10632286236E+03  0.00000000000E+00 0.  1.
         14    1    4    4    0    0 -0.15820386282E+02  0.20464882493E+02  0.12401603401E+02  0.28686160505E+02  0.00000000000E+00 0. -1.
         -5    1    5    5    0  503 -0.18198391519E+02  0.46764133920E+02 -0.26041521527E+03  0.26524750709E+03  0.47000000000E+01 0.  1.
         11    1    6    6    0    0  0.29628451380E+02 -0.89575356285E+01 -0.13119074130E+03  0.13479277866E+03  0.00000000000E+00 0. -1.
        -12    1    6    6    0    0  0.64508737960E+02  0.19222602850E+02 -0.46921778098E+02  0.82052050513E+02  0.00000000000E+00 0.  1.
</event>
<event>
12    1  0.9028446E-003  0.1963222E+03  0.7818608E-02  0.1152975E+00
         21   -1    0    0  503  502  0.00000000000E+00  0.00000000000E+00  0.25907443235E+02  0.25907443235E+02  0.00000000000E+00 0.  1.
         21   -1    0    0  501  503 -0.00000000000E+00 -0.00000000000E+00 -0.14846387860E+04  0.14846387860E+04  0.00000000000E+00 0. -1.
          6    2    1    2  501    0 -0.66244080096E+02  0.67720923587E+02 -0.71801474761E+03  0.74425418708E+03  0.17144887160E+03 0.  0.
         24    2    3    3    0    0 -0.28745858122E+02 -0.28936973668E+02 -0.39840533052E+03  0.40821678553E+03  0.79059874757E+02 0.  0.
         -6    2    1    2    0  502  0.66244080096E+02 -0.67720923587E+02 -0.74071659520E+03  0.76629204219E+03  0.17195353409E+03 0.  0.
        -24    2    5    5    0    0  0.57481238633E+02 -0.94939967508E+02 -0.71357837733E+03  0.72659019574E+03  0.80134397914E+02 0.  0.
          5    1    3    3  501    0 -0.37498221974E+02  0.96657897255E+02 -0.31960941708E+03  0.33603740155E+03  0.47000000000E+01 0. -1.
        -13    1    4    4    0    0  0.19338416122E+02  0.13852933282E+02 -0.84759841827E+02  0.88034702733E+02  0.00000000000E+00 0.  1.
         14    1    4    4    0    0 -0.48084274244E+02 -0.42789906950E+02 -0.31364548870E+03  0.32018208280E+03  0.00000000000E+00 0. -1.
         -5    1    5    5    0  502  0.87628414630E+01  0.27219043922E+02 -0.27138217868E+02  0.39701846450E+02  0.47000000000E+01 0.  1.
         11    1    6    6    0    0  0.61112979775E+02 -0.47873006217E+02 -0.57443563274E+03  0.57965758615E+03  0.00000000000E+00 0. -1.
        -12    1    6    6    0    0 -0.36317411421E+01 -0.47066961291E+02 -0.13914274459E+03  0.14693260959E+03  0.00000000000E+00 0.  1.
</event>
<event>
12    1  0.9028446E-003  0.1820689E+03  0.7818608E-02  0.1165919E+00
         21   -1    0    0  503  502  0.00000000000E+00  0.00000000000E+00  0.28402430464E+03  0.28402430464E+03  0.00000000000E+00 0.  1.
         21   -1    0    0  501  503 -0.00000000000E+00 -0.00000000000E+00 -0.17142658555E+03  0.17142658555E+03  0.00000000000E+00 0. -1.
          6    2    1    2  501    0  0.45425637810E+02  0.39485659018E+02 -0.72725892641E+02  0.19565495659E+03  0.17137444600E+03 0.  0.
         24    2    3    3    0    0  0.91630602377E+02  0.54874382587E+01 -0.52234155622E+02  0.13455848328E+03  0.83374451352E+02 0.  0.
         -6    2    1    2    0  502 -0.45425637810E+02 -0.39485659018E+02  0.18532361173E+03  0.25979593360E+03  0.17183270996E+03 0.  0.
        -24    2    5    5    0    0 -0.43213116161E+02  0.23189411234E+02  0.16931803374E+03  0.19490118643E+03  0.83142971560E+02 0.  0.
          5    1    3    3  501    0 -0.46204964566E+02  0.33998220760E+02 -0.20491737018E+02  0.61096473314E+02  0.47000000000E+01 0. -1.
        -13    1    4    4    0    0  0.56447578571E+02 -0.13106469784E+01  0.14956082929E+02  0.58410027723E+02  0.00000000000E+00 0.  1.
         14    1    4    4    0    0  0.35183023805E+02  0.67980852371E+01 -0.67190238551E+02  0.76148455556E+02  0.00000000000E+00 0. -1.
         -5    1    5    5    0  502 -0.22125216490E+01 -0.62675070253E+02  0.16005577987E+02  0.64894747167E+02  0.47000000000E+01 0.  1.
         13    1    6    6    0    0 -0.35454291376E+02  0.51187716382E+02  0.82566242223E+02  0.10341360375E+03  0.00000000000E+00 0. -1.
        -14    1    6    6    0    0 -0.77588247852E+01 -0.27998305148E+02  0.86751791520E+02  0.91487582683E+02  0.00000000000E+00 0.  1.
</event>
<event>
12    1  0.9028446E-003  0.2269679E+03  0.7818608E-02  0.1129304E+00
         21   -1    0    0  501  502  0.00000000000E+00  0.00000000000E+00  0.58262697573E+02  0.58262697573E+02  0.00000000000E+00 0.  1.
         21   -1    0    0  502  503 -0.00000000000E+00 -0.00000000000E+00 -0.96702615066E+03  0.96702615066E+03  0.00000000000E+00 0.  1.
          6    2    1    2  501    0 -0.61211432404E+02 -0.13268752050E+03 -0.29208484140E+03  0.36816867932E+03  0.16994647481E+03 0.  0.
         24    2    3    3    0    0  0.24923614927E+01 -0.11992819743E+02 -0.11158500585E+03  0.14183338648E+03  0.86691732015E+02 0.  0.
         -6    2    1    2    0  503  0.61211432404E+02  0.13268752050E+03 -0.61667861169E+03  0.65712016892E+03  0.17367092079E+03 0.  0.
        -24    2    5    5    0    0  0.23537303536E+02  0.82175317265E+02 -0.17066124713E+03  0.20664885779E+03  0.79194076342E+02 0.  0.
          5    1    3    3  501    0 -0.63703793897E+02 -0.12069470076E+03 -0.18049983555E+03  0.22633529284E+03  0.47000000000E+01 0. -1.
        -11    1    4    4    0    0 -0.36145802991E+02  0.55203699181E+01 -0.21900616355E+02  0.42621949212E+02  0.00000000000E+00 0.  1.
         12    1    4    4    0    0  0.38638164483E+02 -0.17513189661E+02 -0.89684389490E+02  0.99211437269E+02  0.00000000000E+00 0. -1.
         -5    1    5    5    0  503  0.37674128868E+02  0.50512203238E+02 -0.44601736456E+03  0.45047131113E+03  0.47000000000E+01 0.  1.
         11    1    6    6    0    0 -0.73674203102E+01  0.13562396921E+02 -0.10692357127E+03  0.10803178970E+03  0.00000000000E+00 0. -1.
        -12    1    6    6    0    0  0.30904723846E+02  0.68612920345E+02 -0.63737675853E+02  0.98617068083E+02  0.00000000000E+00 0.  1.
</event>
<event>
12    1  0.9028446E-003  0.4147422E+03  0.7818608E-02  0.1038844E+00
         21   -1    0    0  501  502  0.00000000000E+00  0.00000000000E+00  0.22712896519E+03  0.22712896519E+03  0.00000000000E+00 0. -1.
         21   -1    0    0  502  503 -0.00000000000E+00 -0.00000000000E+00 -0.77152193351E+03  0.77152193351E+03  0.00000000000E+00 0.  1.
          6    2    1    2  501    0 -0.37290102422E+03  0.57756914175E+02 -0.20152882042E+03  0.46053668560E+03  0.17055538199E+03 0.  0.
         24    2    3    3    0    0 -0.19094026407E+03 -0.15273762280E+02 -0.53056835987E+02  0.21455047034E+03  0.80779974131E+02 0.  0.
         -6    2    1    2    0  503  0.37290102422E+03 -0.57756914175E+02 -0.34286414790E+03  0.53811421310E+03  0.17210475713E+03 0.  0.
        -24    2    5    5    0    0  0.10316380831E+03 -0.49587337617E+01 -0.16530243060E+03  0.21085885875E+03  0.80431364307E+02 0.  0.
          5    1    3    3  501    0 -0.18196076016E+03  0.73030676455E+02 -0.14847198443E+03  0.24598621527E+03  0.47000000000E+01 0. -1.
        -11    1    4    4    0    0 -0.70641047246E+02 -0.45029491564E+02 -0.16913614584E+02  0.85462758116E+02  0.00000000000E+00 0.  1.
         12    1    4    4    0    0 -0.12029921682E+03  0.29755729284E+02 -0.36143221403E+02  0.12908771222E+03  0.00000000000E+00 0. -1.
         -5    1    5    5    0  503  0.26973721591E+03 -0.52798180413E+02 -0.17756171730E+03  0.32725535436E+03  0.47000000000E+01 0.  1.
         13    1    6    6    0    0  0.41856064719E+02  0.24535751990E+02 -0.24214394255E+02  0.54224258119E+02  0.00000000000E+00 0. -1.
        -14    1    6    6    0    0  0.61307743589E+02 -0.29494485751E+02 -0.14108803635E+03  0.15663460063E+03  0.00000000000E+00 0.  1.
</event>
<event>
12    1  0.9028446E-003  0.2074381E+03  0.7818608E-02  0.1144104E+00
         21   -1    0    0  503  502  0.00000000000E+00  0.00000000000E+00  0.68443260597E+02  0.68443260597E+02  0.00000000000E+00 0. -1.
         21   -1    0    0  501  503 -0.00000000000E+00 -0.00000000000E+00 -0.64099431692E+03  0.64099431692E+03  0.00000000000E+00 0.  1.
          6    2    1    2  501    0 -0.96729658331E+02 -0.63193424345E+02 -0.22252251655E+03  0.30255853655E+03  0.16933801104E+03 0.  0.
         24    2    3    3    0    0 -0.39336034792E+02  0.30392956114E+02 -0.10986894604E+03  0.14518841365E+03  0.80854404582E+02 0.  0.
         -6    2    1    2    0  502  0.96729658331E+02  0.63193424345E+02 -0.35002853977E+03  0.40687904097E+03  0.17228040993E+03 0.  0.
        -24    2    5    5    0    0  0.28878375915E+02 -0.96344798874E+01 -0.25409992413E+03  0.26856024450E+03  0.81431257396E+02 0.  0.
          5    1    3    3  501    0 -0.57393623539E+02 -0.93586380460E+02 -0.11265357052E+03  0.15737012290E+03  0.47000000000E+01 0. -1.
        -13    1    4    4    0    0 -0.56706254460E+02  0.12707088478E+02 -0.10487753491E+03  0.11990148757E+03  0.00000000000E+00 0.  1.
         14    1    4    4    0    0  0.17370219669E+02  0.17685867636E+02 -0.49914111217E+01  0.25286926076E+02  0.00000000000E+00 0. -1.
         -5    1    5    5    0  502  0.67851282416E+02  0.72827904233E+02 -0.95928615634E+02  0.13831879647E+03  0.47000000000E+01 0.  1.
         13    1    6    6    0    0  0.46169491186E+02 -0.30699835888E+02 -0.12706440180E+03  0.13863428164E+03  0.00000000000E+00 0. -1.
        -14    1    6    6    0    0 -0.17291115270E+02  0.21065356000E+02 -0.12703552233E+03  0.12992596286E+03  0.00000000000E+00 0.  1.
</event>
<event>
12    1  0.9028446E-003  0.1979565E+03  0.7818608E-02  0.1151762E+00
         21   -1    0    0  501  502  0.00000000000E+00  0.00000000000E+00  0.61590670292E+02  0.61590670292E+02  0.00000000000E+00 0.  1.
         21   -1    0    0  502  503 -0.00000000000E+00 -0.00000000000E+00 -0.64834376327E+03  0.64834376327E+03  0.00000000000E+00 0.  1.
          6    2    1    2  501    0 -0.40662593457E+02 -0.89229258789E+02 -0.23789146659E+03  0.30948205698E+03  0.17196361994E+03 0.  0.
         24    2    3    3    0    0 -0.73616697920E+02 -0.11004900621E+03 -0.21241082649E+03  0.26267620367E+03  0.79688310202E+02 0.  0.
         -6    2    1    2    0  503  0.40662593457E+02  0.89229258789E+02 -0.34886162639E+03  0.40045237659E+03  0.17041820448E+03 0.  0.
        -24    2    5    5    0    0  0.40820001623E+02 -0.35108185164E+01 -0.10775216195E+03  0.14207936995E+03  0.83050710906E+02 0.  0.
          5    1    3    3  501    0  0.32954104464E+02  0.20819747424E+02 -0.25480640104E+02  0.46805853308E+02  0.47000000000E+01 0. -1.
        -11    1    4    4    0    0 -0.92429784214E+01 -0.89754627036E+01  0.54850982873E+01  0.14002781297E+02  0.00000000000E+00 0.  1.
         12    1    4    4    0    0 -0.64373719499E+02 -0.10107354351E+03 -0.21789592478E+03  0.24867342237E+03  0.00000000000E+00 0. -1.
         -5    1    5    5    0  503 -0.15740816627E+00  0.92740077305E+02 -0.24110946444E+03  0.25837300663E+03  0.47000000000E+01 0.  1.
         13    1    6    6    0    0  0.54265663128E+02 -0.17839526506E+02 -0.35619620850E+02  0.67318409742E+02  0.00000000000E+00 0. -1.
        -14    1    6    6    0    0 -0.13445661505E+02  0.14328707990E+02 -0.72132541101E+02  0.74760960211E+02  0.00000000000E+00 0.  1.
</event>
<event>
12    1  0.9028446E-003  0.2373583E+03  0.7818608E-02  0.1121580E+00
         21   -1    0    0  501  502  0.00000000000E+00  0.00000000000E+00  0.81460323958E+03  0.81460323958E+03  0.00000000000E+00 0.  1.
         21   -1    0    0  502  503 -0.00000000000E+00 -0.00000000000E+00 -0.87673237647E+02  0.87673237647E+02  0.00000000000E+00 0.  1.
          6    2    1    2  501    0  0.16312506993E+03  0.62313721390E+01  0.57096363212E+03  0.61833522026E+03  0.17230889987E+03 0.  0.
         24    2    3    3    0    0  0.18790375686E+03  0.24941571844E+02  0.51239016018E+03  0.55187473190E+03  0.78052159540E+02 0.  0.
         -6    2    1    2    0  503 -0.16312506993E+03 -0.62313721390E+01  0.15596636982E+03  0.28394125697E+03  0.17218742828E+03 0.  0.
        -24    2    5    5    0    0 -0.10098913749E+03 -0.64304544643E+02  0.13123115820E+03  0.19524352217E+03  0.81021822455E+02 0.  0.
          5    1    3    3  501    0 -0.24778686927E+02 -0.18710199705E+02  0.58573471936E+02  0.66460488363E+02  0.47000000000E+01 0. -1.
        -11    1    4    4    0    0  0.39449121404E+02  0.39342216158E+02  0.13083431648E+03  0.14220288858E+03  0.00000000000E+00 0.  1.
         12    1    4    4    0    0  0.14845463545E+03 -0.14400644314E+02  0.38155584370E+03  0.40967184332E+03  0.00000000000E+00 0. -1.
         -5    1    5    5    0  503 -0.62135932442E+02  0.58073172504E+02  0.24735211619E+02  0.88697734802E+02  0.47000000000E+01 0.  1.
         11    1    6    6    0    0 -0.57000607083E+02 -0.56275365103E+02  0.31727921537E+02  0.86154784721E+02  0.00000000000E+00 0. -1.
        -12    1    6    6    0    0 -0.43988530406E+02 -0.80291795392E+01  0.99503236665E+02  0.10908873745E+03  0.00000000000E+00 0.  1.
</event>
<event>
12    1  0.9028446E-003  0.1951834E+03  0.7818608E-02  0.1154003E+00
         21   -1    0    0  501  502  0.00000000000E+00  0.00000000000E+00  0.41080997159E+03  0.41080997159E+03  0.00000000000E+00 0. -1.
         21   -1    0    0  502  503 -0.00000000000E+00 -0.00000000000E+00 -0.97694695288E+02  0.97694695288E+02  0.00000000000E+00 0. -1.
          6    2    1    2  501    0  0.47656333380E+02 -0.76150786987E+02  0.97826994732E+02  0.21832704232E+03  0.17328158598E+03 0.  0.
         24    2    3    3    0    0  0.14654386634E+02  0.54946531863E+01  0.10087777293E+03  0.13008587484E+03  0.80629197566E+02 0.  0.
         -6    2    1    2    0  503 -0.47656333380E+02  0.76150786987E+02  0.21528828157E+03  0.29017762456E+03  0.17258024552E+03 0.  0.
        -24    2    5    5    0    0  0.36084524882E+02 -0.28346550968E+01  0.87115229129E+02  0.11783595004E+03  0.70612461864E+02 0.  0.
          5    1    3    3  501    0  0.33001946746E+02 -0.81645440174E+02 -0.30507781996E+01  0.88241167478E+02  0.47000000000E+01 0. -1.
        -13    1    4    4    0    0  0.10740908487E+02 -0.42239748523E+01 -0.12042704521E+02  0.16680402000E+02  0.00000000000E+00 0.  1.
         14    1    4    4    0    0  0.39134781471E+01  0.97186280386E+01  0.11292047745E+03  0.11340547284E+03  0.00000000000E+00 0. -1.
         -5    1    5    5    0  503 -0.83740858262E+02  0.78985442084E+02  0.12817305244E+03  0.17234167452E+03  0.47000000000E+01 0.  1.
         13    1    6    6    0    0  0.34461358480E+01  0.30225761966E+02  0.49315011884E+02  0.57943446013E+02  0.00000000000E+00 0. -1.
        -14    1    6    6    0    0  0.32638389034E+02 -0.33060417063E+02  0.37800217245E+02  0.59892504028E+02  0.00000000000E+00 0.  1.
</event>
<event>
12    1  0.9028446E-003  0.2153715E+03  0.7818608E-02  0.1137588E+00
         21   -1    0    0  501  502  0.00000000000E+00  0.00000000000E+00  0.19208462742E+03  0.19208462742E+03  0.00000000000E+00 0. -1.
         21   -1    0    0  502  503 -0.00000000000E+00 -0.00000000000E+00 -0.47299755684E+03  0.47299755684E+03  0.00000000000E+00 0.  1.
          6    2    1    2  501    0 -0.12481047615E+03 -0.35708273180E+02  0.92621294233E+02  0.23444315588E+03  0.17184921723E+03 0.  0.
         24    2    3    3    0    0 -0.10122487073E+03 -0.43112787065E+02 -0.33345505892E+01  0.13524274376E+03  0.78576673707E+02 0.  0.
         -6    2    1    2    0  503  0.12481047615E+03  0.35708273180E+02 -0.37353422365E+03  0.43063902838E+03  0.17049756830E+03 0.  0.
        -24    2    5    5    0    0  0.14813373843E+03  0.36796887158E+02 -0.24280511688E+03  0.29775807038E+03  0.80049536690E+02 0.  0.
          5    1    3    3  501    0 -0.23585605427E+02  0.74045138851E+01  0.95955844823E+02  0.99200412120E+02  0.47000000000E+01 0. -1.
        -11    1    4    4    0    0 -0.73177608845E+02 -0.53044279640E+02  0.25396975656E+02  0.93881118502E+02  0.00000000000E+00 0.  1.
         12    1    4    4    0    0 -0.28047261881E+02  0.99314925747E+01 -0.28731526245E+02  0.41361625260E+02  0.00000000000E+00 0. -1.
         -5    1    5    5    0  503 -0.23323262277E+02 -0.10886139786E+01 -0.13072910676E+03  0.13288095800E+03  0.47000000000E+01 0.  1.
         13    1    6    6    0    0  0.58158972696E+01  0.22698370584E+02 -0.12229066785E+02  0.26430867611E+02  0.00000000000E+00 0. -1.
        -14    1    6    6    0    0  0.14231784116E+03  0.14098516574E+02 -0.23057605010E+03  0.27132720277E+03  0.00000000000E+00 0.  1.
</event>
<event>
12    1  0.9028446E-003  0.1799555E+03  0.7818608E-02  0.1167934E+00
         21   -1    0    0  503  502  0.00000000000E+00  0.00000000000E+00  0.64051788807E+03  0.64051788807E+03  0.00000000000E+00 0. -1.
         21   -1    0    0  501  503 -0.00000000000E+00 -0.00000000000E+00 -0.71742431755E+02  0.71742431755E+02  0.00000000000E+00 0. -1.
          6    2    1    2  501    0  0.28609314768E+02  0.42862618218E+02  0.90607502556E+02  0.20147874748E+03  0.17241887726E+03 0.  0.
         24    2    3    3    0    0  0.28721558759E+02  0.93598962497E+02  0.80721411032E+02  0.14957485519E+03  0.79189629294E+02 0.  0.
         -6    2    1    2    0  502 -0.28609314768E+02 -0.42862618218E+02  0.47816795376E+03  0.51078157235E+03  0.17203931444E+03 0.  0.
        -24    2    5    5    0    0 -0.37191347574E+02 -0.45210627610E+01  0.45809568141E+03  0.46641139904E+03  0.79273598910E+02 0.  0.
          5    1    3    3  501    0 -0.11224399102E+00 -0.50736344279E+02  0.98860915241E+01  0.51903892292E+02  0.47000000000E+01 0. -1.
        -11    1    4    4    0    0 -0.45203340521E+00  0.70043191983E+02  0.86855463618E+02  0.11158012654E+03  0.00000000000E+00 0.  1.
         12    1    4    4    0    0  0.29173592165E+02  0.23555770514E+02 -0.61340525863E+01  0.37994728653E+02  0.00000000000E+00 0. -1.
         -5    1    5    5    0  502  0.85820328059E+01 -0.38341555457E+02  0.20072272352E+02  0.44370173307E+02  0.47000000000E+01 0.  1.
         11    1    6    6    0    0 -0.42150726887E+02 -0.92855150400E+00  0.10343106420E+03  0.11169391670E+03  0.00000000000E+00 0. -1.
        -12    1    6    6    0    0  0.49593793131E+01 -0.35925112570E+01  0.35466461721E+03  0.35471748234E+03  0.00000000000E+00 0.  1.
</event>
<event>
12    1  0.9028446E-003  0.2425972E+03  0.7818608E-02  0.1118368E+00
         21   -1    0    0  501  502  0.00000000000E+00  0.00000000000E+00  0.84244340612E+03  0.84244340612E+03  0.00000000000E+00 0.  1.
         21   -1    0    0  502  503 -0.00000000000E+00 -0.00000000000E+00 -0.72729473242E+02  0.72729473242E+02  0.00000000000E+00 0.  1.
          6    2    1    2  501    0 -0.15659119762E+01  0.16912415216E+03  0.48487009048E+03  0.54217377338E+03  0.17391942092E+03 0.  0.
         24    2    3    3    0    0 -0.61561535334E+02  0.14234711880E+03  0.38451348817E+03  0.42213202245E+03  0.79323999730E+02 0.  0.
         -6    2    1    2    0  503  0.15659119762E+01 -0.16912415216E+03  0.28484384240E+03  0.37299910598E+03  0.17142604117E+03 0.  0.
        -24    2    5    5    0    0 -0.42744924834E+02 -0.90708742407E+02  0.24056966772E+03  0.27252662573E+03  0.79635370010E+02 0.  0.
          5    1    3    3  501    0  0.59995623358E+02  0.26777033359E+02  0.10035660231E+03  0.12004175092E+03  0.47000000000E+01 0. -1.
        -13    1    4    4    0    0  0.36382683568E+01  0.79413356627E+02  0.22560549480E+03  0.23920191783E+03  0.00000000000E+00 0.  1.
         14    1    4    4    0    0 -0.65199803691E+02  0.62933762170E+02  0.15890799337E+03  0.18293010463E+03  0.00000000000E+00 0. -1.
         -5    1    5    5    0  503  0.44310836810E+02 -0.78415409749E+02  0.44274174674E+02  0.10047248025E+03  0.47000000000E+01 0.  1.
         13    1    6    6    0    0  0.23186907089E+02 -0.16305759500E+02  0.46028141074E+02  0.54056454045E+02  0.00000000000E+00 0. -1.
        -14    1    6    6    0    0 -0.65931831923E+02 -0.74402982907E+02  0.19454152665E+03  0.21847017169E+03  0.00000000000E+00 0.  1.
</event>
<event>
12    1  0.9028446E-003  0.1971211E+03  0.7818608E-02  0.1152213E+00
         21   -1    0    0  503  502  0.00000000000E+00  0.00000000000E+00  0.18111831994E+03  0.18111831994E+03  0.00000000000E+00 0.  1.
         21   -1    0    0  501  503 -0.00000000000E+00 -0.00000000000E+00 -0.21576662136E+03  0.21576662136E+03  0.00000000000E+00 0.  1.
          6    2    1    2  501    0 -0.38462788247E+02  0.88114254443E+02 -0.32953503746E+02  0.19975654780E+03  0.17196870954E+03 0.  0.
         24    2    3    3    0    0 -0.63306575765E+02  0.22342715840E+02 -0.64157329753E+02  0.12269243276E+03  0.80189466951E+02 0.  0.
         -6    2    1    2    0  502  0.38462788247E+02 -0.88114254443E+02 -0.16947976735E+01  0.19712839351E+03  0.17208493041E+03 0.  0.
        -24    2    5    5    0    0  0.44191863022E+02  0.14430993337E+02  0.14920191641E+02  0.92981871681E+02  0.79131801550E+02 0.  0.
          5    1    3    3  501    0  0.24843787518E+02  0.65771538603E+02  0.31203826007E+02  0.77064115033E+02  0.47000000000E+01 0. -1.
        -11    1    4    4    0    0  0.16571069173E+02  0.16901531723E+02 -0.83525935160E+01  0.25100357100E+02  0.00000000000E+00 0.  1.
         12    1    4    4    0    0 -0.79877644938E+02  0.54411841177E+01 -0.55804736237E+02  0.97592075662E+02  0.00000000000E+00 0. -1.
         -5    1    5    5    0  502 -0.57290747754E+01 -0.10254524778E+03 -0.16614989315E+02  0.10414652183E+03  0.47000000000E+01 0.  1.
         13    1    6    6    0    0 -0.18877896388E+02  0.19664886161E+02 -0.24086150732E+01  0.27365747685E+02  0.00000000000E+00 0. -1.
        -14    1    6    6    0    0  0.63069759410E+02 -0.52338928244E+01  0.17328806715E+02  0.65616123996E+02  0.00000000000E+00 0.  1.
</event>
<event>
12    1  0.9028446E-003  0.1875626E+03  0.7818608E-02  0.1161020E+00
         21   -1    0    0  503  502  0.00000000000E+00  0.00000000000E+00  0.40033505255E+02  0.40033505255E+02  0.00000000000E+00 0.  1.
         21   -1    0    0  501  503 -0.00000000000E+00 -0.00000000000E+00 -0.89642727877E+03  0.89642727877E+03  0.00000000000E+00 0.  1.
          6    2    1    2  501    0  0.45291189926E+02 -0.60158687670E+02 -0.34894698028E+03  0.39545988023E+03  0.17015922612E+03 0.  0.
         24    2    3    3    0    0 -0.14537597784E+02 -0.87684546755E+02 -0.26216068272E+03  0.28641352219E+03  0.73515716938E+02 0.  0.
         -6    2    1    2    0  502 -0.45291189926E+02  0.60158687670E+02 -0.50744679323E+03  0.54100090379E+03  0.17178291639E+03 0.  0.
        -24    2    5    5    0    0  0.12578824049E+01  0.52957854140E+02 -0.13135748786E+03  0.16194428039E+03  0.78517792568E+02 0.  0.
          5    1    3    3  501    0  0.59828787710E+02  0.27525859085E+02 -0.86786297563E+02  0.10904635804E+03  0.47000000000E+01 0. -1.
        -13    1    4    4    0    0  0.25732550922E+02 -0.10347904246E+02 -0.74176780625E+02  0.79192411778E+02  0.00000000000E+00 0.  1.
         14    1    4    4    0    0 -0.40270148707E+02 -0.77336642509E+02 -0.18798390210E+03  0.20722111041E+03  0.00000000000E+00 0. -1.
         -5    1    5    5    0  502 -0.46549072331E+02  0.72008335302E+01 -0.37608930536E+03  0.37905662340E+03  0.47000000000E+01 0.  1.
         13    1    6    6    0    0 -0.12813102527E+02  0.70750352965E+02 -0.96123705158E+02  0.12003980479E+03  0.00000000000E+00 0. -1.
        -14    1    6    6    0    0  0.14070984932E+02 -0.17792498825E+02 -0.35233782707E+02  0.41904475599E+02  0.00000000000E+00 0.  1.
</event>
<event>
12    1  0.9028446E-003  0.2245469E+03  0.7818608E-02  0.1131142E+00
         21   -1    0    0  503  502  0.00000000000E+00  0.00000000000E+00  0.26057106512E+04  0.26057106512E+04  0.00000000000E+00 0. -1.
         21   -1    0    0  501  503 -0.00000000000E+00 -0.00000000000E+00 -0.20286710456E+02  0.20286710456E+02  0.00000000000E+00 0.  1.
          6    2    1    2  501    0  0.11863451395E+03  0.81897228157E+02  0.16237106890E+04  0.16391637209E+04  0.17216270913E+03 0.  0.
         24    2    3    3    0    0  0.99767485422E+02  0.29209045308E+02  0.14638156497E+04  0.14696924166E+04  0.80204885672E+02 0.  0.
         -6    2    1    2    0  502 -0.11863451395E+03 -0.81897228157E+02  0.96171325172E+03  0.98683364074E+03  0.16783012868E+03 0.  0.
        -24    2    5    5    0    0 -0.71256508937E+02  0.92000031000E+00  0.70380492393E+03  0.71180243482E+03  0.79012649621E+02 0.  0.
          5    1    3    3  501    0  0.18867028530E+02  0.52688182848E+02  0.15989503932E+03  0.16947130429E+03  0.47000000000E+01 0. -1.
        -11    1    4    4    0    0  0.16744850754E+02 -0.20929754639E+02  0.15604993908E+03  0.15833517658E+03  0.00000000000E+00 0.  1.
         12    1    4    4    0    0  0.83022634668E+02  0.50138799947E+02  0.13077657106E+04  0.13113572400E+04  0.00000000000E+00 0. -1.
         -5    1    5    5    0  502 -0.47378005015E+02 -0.82817228467E+02  0.25790832779E+03  0.27503120593E+03  0.47000000000E+01 0.  1.
         13    1    6    6    0    0  0.18016218732E+01  0.28228230695E+02  0.17268075346E+03  0.17498206041E+03  0.00000000000E+00 0. -1.
        -14    1    6    6    0    0 -0.73058130810E+02 -0.27308230385E+02  0.53112417047E+03  0.53682037441E+03  0.00000000000E+00 0.  1.
</event>
<event>
12    1  0.9028446E-003  0.2217297E+03  0.7818608E-02  0.1133038E+00
         21   -1    0    0  503  502  0.00000000000E+00  0.00000000000E+00  0.15096878819E+04  0.15096878819E+04  0.00000000000E+00 0. -1.
         21   -1    0    0  501  503 -0.00000000000E+00 -0.00000000000E+00 -0.54277436003E+02  0.54277436003E+02  0.00000000000E+00 0. -1.
          6    2    1    2  501    0  0.12021175589E+03  0.69879133751E+02  0.22689471538E+03  0.31560040920E+03  0.16967158524E+03 0.  0.
         24    2    3    3    0    0  0.13292041280E+03  0.87138914061E+01  0.15095751546E+03  0.21715628717E+03  0.81393571875E+02 0.  0.
         -6    2    1    2    0  502 -0.12021175589E+03 -0.69879133751E+02  0.12285157305E+04  0.12483649087E+04  0.17271388350E+03 0.  0.
        -24    2    5    5    0    0 -0.42992256020E+02 -0.10234020915E+03  0.81130289596E+03  0.82280032853E+03  0.80412307172E+02 0.  0.
          5    1    3    3  501    0 -0.12708656910E+02  0.61165242345E+02  0.75937199919E+02  0.98444122034E+02  0.47000000000E+01 0. -1.
        -11    1    4    4    0    0  0.64457903432E+02  0.23454801357E+02  0.12478357079E+03  0.14239342878E+03  0.00000000000E+00 0.  1.
         12    1    4    4    0    0  0.68462509364E+02 -0.14740909951E+02  0.26173944669E+02  0.74762858387E+02  0.00000000000E+00 0. -1.
         -5    1    5    5    0  502 -0.77219499866E+02  0.32461075404E+02  0.41721283454E+03  0.42556458015E+03  0.47000000000E+01 0.  1.
         11    1    6    6    0    0 -0.23516728224E+02 -0.31213325750E+01  0.33728873131E+03  0.33812197133E+03  0.00000000000E+00 0. -1.
        -12    1    6    6    0    0 -0.19475527796E+02 -0.99218876580E+02  0.47401416465E+03  0.48467835720E+03  0.00000000000E+00 0.  1.
</event>
<event>
12    1  0.9028446E-003  0.3487941E+03  0.7818608E-02  0.1063242E+00
         21   -1    0    0  503  502  0.00000000000E+00  0.00000000000E+00  0.26629345988E+03  0.26629345988E+03  0.00000000000E+00 0. -1.
         21   -1    0    0  501  503 -0.00000000000E+00 -0.00000000000E+00 -0.49925965168E+03  0.49925965168E+03  0.00000000000E+00 0.  1.
          6    2    1    2  501    0  0.27884954575E+03  0.11673764064E+03 -0.23000462958E+03  0.41674643321E+03  0.17143720152E+03 0.  0.
         24    2    3    3    0    0  0.94637552756E+02  0.71031417806E+02 -0.40365123921E+02  0.14840271841E+03  0.79951828600E+02 0.  0.
         -6    2    1    2    0  502 -0.27884954575E+03 -0.11673764064E+03 -0.29615622170E+01  0.34880667834E+03  0.17399017817E+03 0.  0.
        -24    2    5    5    0    0 -0.54108853129E+02 -0.65737394435E+02 -0.13050579658E+02  0.11808328918E+03  0.80772350103E+02 0.  0.
          5    1    3    3  501    0  0.18421199299E+03  0.45706222832E+02 -0.18963950566E+03  0.26834371480E+03  0.47000000000E+01 0. -1.
        -11    1    4    4    0    0  0.49618865763E+02  0.55250725276E+02 -0.61313203962E+02  0.96301523680E+02  0.00000000000E+00 0.  1.
         12    1    4    4    0    0  0.45018686993E+02  0.15780692530E+02  0.20948080041E+02  0.52101194734E+02  0.00000000000E+00 0. -1.
         -5    1    5    5    0  502 -0.22474069262E+03 -0.51000246203E+02  0.10089017441E+02  0.23072338916E+03  0.47000000000E+01 0.  1.
         11    1    6    6    0    0 -0.61795550440E+02 -0.65657406184E+02 -0.33539161616E+02  0.96200106044E+02  0.00000000000E+00 0. -1.
        -12    1    6    6    0    0  0.76866973109E+01 -0.79988250799E-01  0.20488581959E+02  0.21883183140E+02  0.00000000000E+00 0.  1.
</event>
<event>
12    1  0.9028446E-003  0.1876718E+03  0.7818608E-02  0.1161220E+00
         21   -1    0    0  501  502  0.00000000000E+00  0.00000000000E+00  0.21978803081E+03  0.21978803081E+03  0.00000000000E+00 0.  1.
         21   -1    0    0  502  503 -0.00000000000E+00 -0.00000000000E+00 -0.27592863709E+03  0.27592863709E+03  0.00000000000E+00 0. -1.
          6    2    1    2  501    0 -0.22228658270E+02 -0.74428177494E+02  0.13392287379E+03  0.23055592611E+03  0.17084212620E+03 0.  0.
         24    2    3    3    0    0 -0.39156261432E+02  0.19510397011E+02  0.82239779123E+02  0.12190864449E+03  0.78641388147E+02 0.  0.
         -6    2    1    2    0  503  0.22228658270E+02  0.74428177494E+02 -0.19006348007E+03  0.26516074179E+03  0.16778684595E+03 0.  0.
        -24    2    5    5    0    0  0.36469520122E+02  0.46244319227E+02 -0.31414541689E+02  0.10333148713E+03  0.78879400633E+02 0.  0.
          5    1    3    3  501    0  0.16927603162E+02 -0.93938574505E+02  0.51683094668E+02  0.10864728162E+03  0.47000000000E+01 0. -1.
        -13    1    4    4    0    0  0.10426490680E+02 -0.19961195982E+02  0.39498021480E+02  0.45467073292E+02  0.00000000000E+00 0.  1.
         14    1    4    4    0    0 -0.49582752112E+02  0.39471592993E+02  0.42741757643E+02  0.76441571195E+02  0.00000000000E+00 0. -1.
         -5    1    5    5    0  503 -0.14240861852E+02  0.28183858267E+02 -0.15864893838E+03  0.16182925466E+03  0.47000000000E+01 0.  1.
         13    1    6    6    0    0  0.39373356801E+02  0.47272177804E+02 -0.53197381870E+02  0.81331921519E+02  0.00000000000E+00 0. -1.
        -14    1    6    6    0    0 -0.29038366795E+01 -0.10278585772E+01  0.21782840181E+02  0.21999565611E+02  0.00000000000E+00 0.  1.
</event>
<event>
12    1  0.9028446E-003  0.1758489E+03  0.7818608E-02  0.1172627E+00
         21   -1    0    0  503  502  0.00000000000E+00  0.00000000000E+00  0.18035568826E+03  0.18035568826E+03  0.00000000000E+00 0. -1.
         21   -1    0    0  501  503 -0.00000000000E+00 -0.00000000000E+00 -0.17896366884E+03  0.17896366884E+03  0.00000000000E+00 0. -1.
          6    2    1    2  501    0 -0.20968986095E+01  0.19086535670E+02 -0.42582275398E+02  0.17805553100E+03  0.17181917563E+03 0.  0.
         24    2    3    3    0    0 -0.22684837858E+02 -0.37392954832E+02 -0.70581316421E+02  0.11157371102E+03  0.74526074791E+02 0.  0.
         -6    2    1    2    0  502  0.20968986095E+01 -0.19086535670E+02  0.43974294822E+02  0.18126382610E+03  0.17479743482E+03 0.  0.
        -24    2    5    5    0    0 -0.51044499365E+02  0.33401455831E+02  0.17313654721E+02  0.10181650291E+03  0.79659522083E+02 0.  0.
          5    1    3    3  501    0  0.20587939248E+02  0.56479490502E+02  0.27999041023E+02  0.66481819982E+02  0.47000000000E+01 0. -1.
        -11    1    4    4    0    0 -0.33108138799E+02  0.80343556501E+01 -0.50282607728E+02  0.60737470851E+02  0.00000000000E+00 0.  1.
         12    1    4    4    0    0  0.10423300941E+02 -0.45427310482E+02 -0.20298708694E+02  0.50836240171E+02  0.00000000000E+00 0. -1.
         -5    1    5    5    0  502  0.53141397974E+02 -0.52487991502E+02  0.26660640100E+02  0.79447323184E+02  0.47000000000E+01 0.  1.
         11    1    6    6    0    0  0.39970067601E+00 -0.22848501462E+02  0.10904789575E+02  0.25320509777E+02  0.00000000000E+00 0. -1.
        -12    1    6    6    0    0 -0.51444200041E+02  0.56249957293E+02  0.64088651462E+01  0.76495993136E+02  0.00000000000E+00 0.  1.
</event>
<event>
12    1  0.9028446E-003  0.2117983E+03  0.7818608E-02  0.1140348E+00
         21   -1    0    0  501  502  0.00000000000E+00  0.00000000000E+00  0.40298099741E+03  0.40298099741E+03  0.00000000000E+00 0. -1.
         21   -1    0    0  502  503 -0.00000000000E+00 -0.00000000000E+00 -0.11147542533E+03  0.11147542533E+03  0.00000000000E+00 0.  1.
          6    2    1    2  501    0  0.17459836739E+02  0.12143940574E+03  0.16561627311E+03  0.26806923114E+03  0.17140591471E+03 0.  0.
         24    2    3    3    0    0  0.11634524343E+01  0.12553732076E+03  0.59823499891E+02  0.16084719089E+03  0.80820759417E+02 0.  0.
         -6    2    1    2    0  503 -0.17459836739E+02 -0.12143940574E+03  0.12588929897E+03  0.24638719160E+03  0.17264459860E+03 0.  0.
        -24    2    5    5    0    0 -0.65841488109E+02 -0.12548563969E+03  0.91773034580E+02  0.18686269501E+03  0.80085139602E+02 0.  0.
          5    1    3    3  501    0  0.16296384305E+02 -0.40979150227E+01  0.10579277322E+03  0.10722204025E+03  0.47000000000E+01 0. -1.
        -13    1    4    4    0    0  0.27269295363E+02  0.10605137058E+03  0.65766666990E+02  0.12773316781E+03  0.00000000000E+00 0.  1.
         14    1    4    4    0    0 -0.26105842929E+02  0.19485950179E+02 -0.59431670988E+01  0.33114023080E+02  0.00000000000E+00 0. -1.
         -5    1    5    5    0  503  0.48381651370E+02  0.40462339545E+01  0.34116264388E+02  0.59524496590E+02  0.47000000000E+01 0.  1.
         11    1    6    6    0    0 -0.28784354080E+02 -0.12215295924E+03  0.68484353114E+02  0.14296849692E+03  0.00000000000E+00 0. -1.
        -12    1    6    6    0    0 -0.37057134029E+02 -0.33326804539E+01  0.23288681466E+02  0.43894198089E+02  0.00000000000E+00 0.  1.
</event>
<event>
12    1  0.9028446E-003  0.1844311E+03  0.7818608E-02  0.1163669E+00
         21   -1    0    0  501  502  0.00000000000E+00  0.00000000000E+00  0.20717181475E+03  0.20717181475E+03  0.00000000000E+00 0. -1.
         21   -1    0    0  502  503 -0.00000000000E+00 -0.00000000000E+00 -0.18034165380E+03  0.18034165380E+03  0.00000000000E+00 0. -1.
          6    2    1    2  501    0 -0.45471863947E+02 -0.46426251739E+02 -0.45149244721E+02  0.18987705810E+03  0.17260288420E+03 0.  0.
         24    2    3    3    0    0 -0.45401923807E+02 -0.17361809434E+02  0.39408200949E+02  0.10034048280E+03  0.78437485136E+02 0.  0.
         -6    2    1    2    0  503  0.45471863947E+02  0.46426251739E+02  0.71979405668E+02  0.19763641045E+03  0.17220925827E+03 0.  0.
        -24    2    5    5    0    0  0.63281920646E+02  0.85716411559E+02  0.73163129586E+02  0.15422666522E+03  0.84149367456E+02 0.  0.
          5    1    3    3  501    0 -0.69940139998E-01 -0.29064442304E+02 -0.84557445670E+02  0.89536575299E+02  0.47000000000E+01 0. -1.
        -11    1    4    4    0    0 -0.47378143846E+02  0.21217917942E+02  0.12903996315E+02  0.53492071160E+02  0.00000000000E+00 0.  1.
         12    1    4    4    0    0  0.19762200386E+01 -0.38579727376E+02  0.26504204634E+02  0.46848411641E+02  0.00000000000E+00 0. -1.
         -5    1    5    5    0  503 -0.17810056699E+02 -0.39290159820E+02 -0.11837239182E+01  0.43409745227E+02  0.47000000000E+01 0.  1.
         13    1    6    6    0    0  0.11410214285E+02  0.47796756728E+02 -0.89641458413E+01  0.49950764303E+02  0.00000000000E+00 0. -1.
        -14    1    6    6    0    0  0.51871706361E+02  0.37919654831E+02  0.82127275427E+02  0.10427590092E+03  0.00000000000E+00 0.  1.
</event>
<event>
12    1  0.9028446E-003  0.2176907E+03  0.7818608E-02  0.1135971E+00
         21   -1    0    0  501  502  0.00000000000E+00  0.00000000000E+00  0.14993568304E+03  0.14993568304E+03  0.00000000000E+00 0. -1.
         21   -1    0    0  502  503 -0.00000000000E+00 -0.00000000000E+00 -0.36017306124E+03  0.36017306124E+03  0.00000000000E+00 0. -1.
          6    2    1    2  501    0  0.13054785290E+03 -0.13988036035E+02 -0.12771485264E+02  0.21620053557E+03  0.17129259674E+03 0.  0.
         24    2    3    3    0    0 -0.38517528871E+01 -0.20694456504E+01 -0.11139187627E+02  0.81181791582E+02  0.80294976044E+02 0.  0.
         -6    2    1    2    0  503 -0.13054785290E+03  0.13988036035E+02 -0.19746589293E+03  0.29390820871E+03  0.17363999892E+03 0.  0.
        -24    2    5    5    0    0 -0.15857545645E+03  0.34869477909E+02 -0.15858568165E+03  0.24141685700E+03  0.82283804830E+02 0.  0.
          5    1    3    3  501    0  0.13439960579E+03 -0.11918590385E+02 -0.16322976363E+01  0.13501874399E+03  0.47000000000E+01 0. -1.
        -13    1    4    4    0    0  0.10511414266E+02 -0.36522809587E+02  0.85859691625E+01  0.38963114820E+02  0.00000000000E+00 0.  1.
         14    1    4    4    0    0 -0.14363167153E+02  0.34453363936E+02 -0.19725156790E+02  0.42218676763E+02  0.00000000000E+00 0. -1.
         -5    1    5    5    0  503  0.28027603551E+02 -0.20881441874E+02 -0.38880211278E+02  0.52491351712E+02  0.47000000000E+01 0.  1.
         13    1    6    6    0    0 -0.50086246951E+02  0.20419959457E+02 -0.71332967013E+01  0.54557225000E+02  0.00000000000E+00 0. -1.
        -14    1    6    6    0    0 -0.10848920950E+03  0.14449518452E+02 -0.15145238495E+03  0.18685963200E+03  0.00000000000E+00 0.  1.
</event>
<event>
12    1  0.9028446E-003  0.1751866E+03  0.7818608E-02  0.1173559E+00
         21   -1    0    0  501  502  0.00000000000E+00  0.00000000000E+00  0.66837940007E+02  0.66837940007E+02  0.00000000000E+00 0. -1.
         21   -1    0    0  502  503 -0.00000000000E+00 -0.00000000000E+00 -0.47335795712E+03  0.47335795712E+03  0.00000000000E+00 0. -1.
          6    2    1    2  501    0 -0.27905878391E+02  0.58288904184E+00 -0.14391890558E+03  0.22672231251E+03  0.17294877218E+03 0.  0.
         24    2    3    3    0    0 -0.25216720630E+01 -0.24523820095E+02 -0.16509058380E+03  0.18494869963E+03  0.79645113187E+02 0.  0.
         -6    2    1    2    0  503  0.27905878391E+02 -0.58288904184E+00 -0.26260111153E+03  0.31347358462E+03  0.16890016775E+03 0.  0.
        -24    2    5    5    0    0  0.78018206860E+02  0.39132028120E+00 -0.12362784298E+03  0.16566338902E+03  0.77932799063E+02 0.  0.
          5    1    3    3  501    0 -0.25384206328E+02  0.25106709137E+02  0.21171678218E+02  0.41773612881E+02  0.47000000000E+01 0. -1.
        -13    1    4    4    0    0 -0.25957182880E+00  0.28444438562E+02 -0.77588497150E+02  0.82638540359E+02  0.00000000000E+00 0.  1.
         14    1    4    4    0    0 -0.22621002342E+01 -0.52968258657E+02 -0.87502086650E+02  0.10231015927E+03  0.00000000000E+00 0. -1.
         -5    1    5    5    0  503 -0.50112328469E+02 -0.97420932303E+00 -0.13897326855E+03  0.14781019559E+03  0.47000000000E+01 0.  1.
         13    1    6    6    0    0  0.66172762938E+02 -0.20714498753E+02 -0.12329870883E+03  0.14145846250E+03  0.00000000000E+00 0. -1.
        -14    1    6    6    0    0  0.11845443922E+02  0.21105819035E+02 -0.32913415071E+00  0.24204926526E+02  0.00000000000E+00 0.  1.
</event>
<event>
12    1  0.9028446E-003  0.1821082E+03  0.7818608E-02  0.1166024E+00
         21   -1    0    0  501  502  0.00000000000E+00  0.00000000000E+00  0.46719957322E+03  0.46719957322E+03  0.00000000000E+00 0. -1.
         21   -1    0    0  502  503 -0.00000000000E+00 -0.00000000000E+00 -0.70710582271E+02  0.70710582271E+02  0.00000000000E+00 0. -1.
          6    2    1    2  501    0 -0.57940584935E+02 -0.13171195598E+02  0.18736106270E+03  0.26128060293E+03  0.17214178422E+03 0.  0.
         24    2    3    3    0    0 -0.16233088417E+02  0.56643595551E+02  0.72665836467E+02  0.12060116147E+03  0.76107202565E+02 0.  0.
         -6    2    1    2    0  503  0.57940584935E+02  0.13171195598E+02  0.20912792825E+03  0.27662955256E+03  0.17105211837E+03 0.  0.
        -24    2    5    5    0    0  0.88244842316E+02 -0.22221757607E+02  0.19203077608E+03  0.22677564836E+03  0.79185964798E+02 0.  0.
          5    1    3    3  501    0 -0.41707496517E+02 -0.69814791148E+02  0.11469522624E+03  0.14067944146E+03  0.47000000000E+01 0. -1.
        -11    1    4    4    0    0  0.22162300901E+02  0.18601284935E+02  0.57650741944E+02  0.64504134977E+02  0.00000000000E+00 0.  1.
         12    1    4    4    0    0 -0.38395389319E+02  0.38042310615E+02  0.15015094524E+02  0.56097026494E+02  0.00000000000E+00 0. -1.
         -5    1    5    5    0  503 -0.30304257381E+02  0.35392953205E+02  0.17097152174E+02  0.49853904205E+02  0.47000000000E+01 0.  1.
         11    1    6    6    0    0  0.40725876238E+02  0.16993221991E+02  0.13781329429E+03  0.14470615285E+03  0.00000000000E+00 0. -1.
        -12    1    6    6    0    0  0.47518966079E+02 -0.39214979598E+02  0.54217481788E+02  0.82069495511E+02  0.00000000000E+00 0.  1.
</event>
<event>
12    1  0.9028446E-003  0.1761974E+03  0.7818608E-02  0.1171599E+00
         21   -1    0    0  501  502  0.00000000000E+00  0.00000000000E+00  0.10278620406E+03  0.10278620406E+03  0.00000000000E+00 0. -1.
         21   -1    0    0  502  503 -0.00000000000E+00 -0.00000000000E+00 -0.34518358161E+03  0.34518358161E+03  0.00000000000E+00 0. -1.
          6    2    1    2  501    0 -0.26205289595E+02  0.26774552963E+02 -0.20086384693E+03  0.26719244327E+03  0.17216829804E+03 0.  0.
         24    2    3    3    0    0 -0.12513083897E+02 -0.16998825428E+02 -0.20729481246E+03  0.22064104727E+03  0.72565798640E+02 0.  0.
         -6    2    1    2    0  503  0.26205289595E+02 -0.26774552963E+02 -0.41533530618E+02  0.18077734240E+03  0.17190642649E+03 0.  0.
        -24    2    5    5    0    0  0.65295122216E+02  0.28267536348E+02 -0.17849407454E+02  0.10907884660E+03  0.80728475969E+02 0.  0.
          5    1    3    3  501    0 -0.13692205698E+02  0.43773378391E+02  0.64309655264E+01  0.46551396008E+02  0.47000000000E+01 0. -1.
        -11    1    4    4    0    0 -0.38829456605E+02 -0.27124056971E+02 -0.13178236359E+03  0.14003582584E+03  0.00000000000E+00 0.  1.
         12    1    4    4    0    0  0.26316372708E+02  0.10125231543E+02 -0.75512448872E+02  0.80605221424E+02  0.00000000000E+00 0. -1.
         -5    1    5    5    0  503 -0.39089832621E+02 -0.55042089311E+02 -0.23684123164E+02  0.71698495801E+02  0.47000000000E+01 0.  1.
         11    1    6    6    0    0  0.35079646165E+02 -0.27033737853E+02 -0.11404985837E+02  0.45732682617E+02  0.00000000000E+00 0. -1.
        -12    1    6    6    0    0  0.30215476050E+02  0.55301274201E+02 -0.64444216173E+01  0.63346163981E+02  0.00000000000E+00 0.  1.
</event>
<event>
12    1  0.9028446E-003  0.1958641E+03  0.7818608E-02  0.1153714E+00
         21   -1    0    0  503  502  0.00000000000E+00  0.00000000000E+00  0.61637702762E+03  0.61637702762E+03  0.00000000000E+00 0.  1.
         21   -1    0    0  501  503 -0.00000000000E+00 -0.00000000000E+00 -0.24461639143E+03  0.24461639143E+03  0.00000000000E+00 0. -1.
          6    2    1    2  501    0 -0.43323932280E+02  0.81445736866E+02 -0.18624225716E+03  0.27027561200E+03  0.17277834624E+03 0.  0.
         24    2    3    3    0    0  0.19332130584E+02  0.99719480712E+02 -0.11637103594E+03  0.17454792801E+03  0.81283793342E+02 0.  0.
         -6    2    1    2    0  502  0.43323932280E+02 -0.81445736866E+02  0.55800289336E+03  0.59071780705E+03  0.17049905398E+03 0.  0.
        -24    2    5    5    0    0  0.38850688473E+02 -0.76045098210E+02  0.19254929945E+03  0.22516672155E+03  0.79577552230E+02 0.  0.
          5    1    3    3  501    0 -0.62656062864E+02 -0.18273743846E+02 -0.69871221219E+02  0.95727683991E+02  0.47000000000E+01 0. -1.
        -13    1    4    4    0    0 -0.35532452409E+01  0.10537761755E+03 -0.10322907003E+03  0.14755781487E+03  0.00000000000E+00 0.  1.
         14    1    4    4    0    0  0.22885375825E+02 -0.56581368338E+01 -0.13141965915E+02  0.26990113137E+02  0.00000000000E+00 0. -1.
         -5    1    5    5    0  502  0.44732438068E+01 -0.54006386563E+01  0.36545359391E+03  0.36555108550E+03  0.47000000000E+01 0.  1.
         11    1    6    6    0    0  0.30911367087E+02 -0.89318416845E+02  0.18545444404E+03  0.20815052970E+03  0.00000000000E+00 0. -1.
        -12    1    6    6    0    0  0.79393213867E+01  0.13273318635E+02  0.70948554135E+01  0.17016191848E+02  0.00000000000E+00 0.  1.
</event>
<event>
12    1  0.9028446E-003  0.3006401E+03  0.7818608E-02  0.1084983E+00
         21   -1    0    0  503  502  0.00000000000E+00  0.00000000000E+00  0.31656890577E+03  0.31656890577E+03  0.00000000000E+00 0.  1.
         21   -1    0    0  501  503 -0.00000000000E+00 -0.00000000000E+00 -0.40951330943E+03  0.40951330943E+03  0.00000000000E+00 0. -1.
          6    2    1    2  501    0  0.11621965767E+03  0.21677447511E+03 -0.24664659302E+03  0.38886886963E+03  0.17287647044E+03 0.  0.
         24    2    3    3    0    0  0.76433988382E+02  0.17808952560E+03 -0.25753330591E+03  0.33212351460E+03  0.80153550080E+02 0.  0.
         -6    2    1    2    0  502 -0.11621965767E+03 -0.21677447511E+03  0.15370218936E+03  0.33721334557E+03  0.17201829998E+03 0.  0.
        -24    2    5    5    0    0 -0.82933550629E+01 -0.15798089418E+03  0.98340862286E+02  0.20233659262E+03  0.79009042849E+02 0.  0.
          5    1    3    3  501    0  0.39785669286E+02  0.38684949516E+02  0.10886712894E+02  0.56745355027E+02  0.47000000000E+01 0. -1.
        -11    1    4    4    0    0  0.12964855274E+02  0.10067614954E+03 -0.17531854348E+03  0.20258422013E+03  0.00000000000E+00 0.  1.
         12    1    4    4    0    0  0.63469133109E+02  0.77413376056E+02 -0.82214762431E+02  0.12953929447E+03  0.00000000000E+00 0. -1.
         -5    1    5    5    0  502 -0.10792630260E+03 -0.58793580932E+02  0.55361327073E+02  0.13487675296E+03  0.47000000000E+01 0.  1.
         13    1    6    6    0    0  0.23517578794E+02 -0.23238775789E+02  0.96727607797E+00  0.33076469514E+02  0.00000000000E+00 0. -1.
        -14    1    6    6    0    0 -0.31810933857E+02 -0.13474211839E+03  0.97373586208E+02  0.16926012310E+03  0.00000000000E+00 0.  1.
</event>
<event>
12    1  0.9028446E-003  0.1781306E+03  0.7818608E-02  0.1169972E+00
         21   -1    0    0  503  502  0.00000000000E+00  0.00000000000E+00  0.29972303533E+02  0.29972303533E+02  0.00000000000E+00 0.  1.
         21   -1    0    0  501  503 -0.00000000000E+00 -0.00000000000E+00 -0.11051816266E+04  0.11051816266E+04  0.00000000000E+00 0.  1.
          6    2    1    2  501    0 -0.45144933713E+02  0.34277777254E+01 -0.66611912954E+03  0.68952534463E+03  0.17228085050E+03 0.  0.
         24    2    3    3    0    0 -0.61048271456E+02 -0.52744068883E+02 -0.34103147107E+03  0.35920388273E+03  0.78842481297E+02 0.  0.
         -6    2    1    2    0  502  0.45144933713E+02 -0.34277777254E+01 -0.40909019353E+03  0.44562858551E+03  0.17082223239E+03 0.  0.
        -24    2    5    5    0    0  0.81620103591E+02  0.37366028897E+02 -0.30297133254E+03  0.32613852176E+03  0.80725743164E+02 0.  0.
          5    1    3    3  501    0  0.15903337743E+02  0.56171846609E+02 -0.32508765847E+03  0.33032146190E+03  0.47000000000E+01 0. -1.
        -11    1    4    4    0    0 -0.42996488912E+02 -0.25076248292E+02 -0.30969636215E+03  0.31367077169E+03  0.00000000000E+00 0.  1.
         12    1    4    4    0    0 -0.18051782544E+02 -0.27667820592E+02 -0.31335108919E+02  0.45533111033E+02  0.00000000000E+00 0. -1.
         -5    1    5    5    0  502 -0.36475169878E+02 -0.40793806623E+02 -0.10611886099E+03  0.11949006375E+03  0.47000000000E+01 0.  1.
         13    1    6    6    0    0  0.13262007191E+02  0.30830853993E+02 -0.19716820716E+03  0.20000431072E+03  0.00000000000E+00 0. -1.
        -14    1    6    6    0    0  0.68358096400E+02  0.65351749045E+01 -0.10580312539E+03  0.12613421105E+03  0.00000000000E+00 0.  1.
</event>
<event>
12    1  0.9028446E-003  0.1759111E+03  0.7818608E-02  0.1171953E+00
         21   -1    0    0  501  502  0.00000000000E+00  0.00000000000E+00  0.79381323831E+02  0.79381323831E+02  0.00000000000E+00 0. -1.
         21   -1    0    0  502  503 -0.00000000000E+00 -0.00000000000E+00 -0.71790508081E+03  0.71790508081E+03  0.00000000000E+00 0. -1.
          6    2    1    2  501    0 -0.20501726453E+02  0.18991038503E+02 -0.49028128216E+02  0.18210366956E+03  0.17313869810E+03 0.  0.
         24    2    3    3    0    0 -0.56353447699E+02  0.29891914427E+02 -0.81062180619E+02  0.13258149750E+03  0.83291888788E+02 0.  0.
         -6    2    1    2    0  503  0.20501726453E+02 -0.18991038503E+02 -0.58949562876E+03  0.61518273507E+03  0.17367705915E+03 0.  0.
        -24    2    5    5    0    0  0.31710659571E+02  0.17912997023E+02 -0.55921768997E+03  0.56592431856E+03  0.78863604887E+02 0.  0.
          5    1    3    3  501    0  0.35851721246E+02 -0.10900875924E+02  0.32034052403E+02  0.49522172060E+02  0.47000000000E+01 0. -1.
        -11    1    4    4    0    0  0.21733689474E+02  0.19774626655E+01 -0.13957863387E+02  0.25905319281E+02  0.00000000000E+00 0.  1.
         12    1    4    4    0    0 -0.78087137172E+02  0.27914451762E+02 -0.67104317232E+02  0.10667617822E+03  0.00000000000E+00 0. -1.
         -5    1    5    5    0  503 -0.11208933118E+02 -0.36904035526E+02 -0.30277938793E+02  0.49258416512E+02  0.47000000000E+01 0.  1.
         13    1    6    6    0    0 -0.22924334167E+02  0.13834872921E+02 -0.28711714681E+03  0.28836293936E+03  0.00000000000E+00 0. -1.
        -14    1    6    6    0    0  0.54634993737E+02  0.40781241012E+01 -0.27210054316E+03  0.27756137920E+03  0.00000000000E+00 0.  1.
</event>
<event>
12    1  0.9028446E-003  0.2402032E+03  0.7818608E-02  0.1119666E+00
         21   -1    0    0  503  502  0.00000000000E+00  0.00000000000E+00  0.48959691698E+03  0.48959691698E+03  0.00000000000E+00 0.  1.
         21   -1    0    0  501  503 -0.00000000000E+00 -0.00000000000E+00 -0.12947177801E+03  0.12947177801E+03  0.00000000000E+00 0. -1.
          6    2    1    2  501    0 -0.16539504095E+03 -0.27748533373E+02  0.87233107648E+02  0.25555273836E+03  0.17196536378E+03 0.  0.
         24    2    3    3    0    0 -0.74349044162E+02  0.14981820526E+02  0.10620540635E+03  0.15309643161E+03  0.80041824822E+02 0.  0.
         -6    2    1    2    0  502  0.16539504095E+03  0.27748533373E+02  0.27289203132E+03  0.36351595663E+03  0.17189615844E+03 0.  0.
        -24    2    5    5    0    0  0.57005230767E+02 -0.40407125741E+02  0.84208994227E+02  0.13544376782E+03  0.79821847800E+02 0.  0.
          5    1    3    3  501    0 -0.91045996790E+02 -0.42730353899E+02 -0.18972298698E+02  0.10245630675E+03  0.47000000000E+01 0. -1.
        -13    1    4    4    0    0 -0.77946774239E+02 -0.14481349973E+02  0.87192644253E+02  0.11784721602E+03  0.00000000000E+00 0.  1.
         14    1    4    4    0    0  0.35977300772E+01  0.29463170498E+02  0.19012762093E+02  0.35249215593E+02  0.00000000000E+00 0. -1.
         -5    1    5    5    0  502  0.10838981018E+03  0.68155659114E+02  0.18868303709E+03  0.22807218881E+03  0.47000000000E+01 0.  1.
         13    1    6    6    0    0  0.60545873214E+02 -0.19573500569E+02  0.92892944745E+02  0.11259673117E+03  0.00000000000E+00 0. -1.
        -14    1    6    6    0    0 -0.35406424473E+01 -0.20833625172E+02 -0.86839505174E+01  0.22847036643E+02  0.00000000000E+00 0.  1.
</event>
<event>
12    1  0.9028446E-003  0.1928864E+03  0.7818608E-02  0.1156198E+00
         21   -1    0    0  501  502  0.00000000000E+00  0.00000000000E+00  0.40470221837E+03  0.40470221837E+03  0.00000000000E+00 0.  1.
         21   -1    0    0  502  503 -0.00000000000E+00 -0.00000000000E+00 -0.13038903847E+03  0.13038903847E+03  0.00000000000E+00 0.  1.
          6    2    1    2  501    0 -0.81907076103E+02  0.23410479155E+02  0.28336828255E+03  0.34199244469E+03  0.17147719679E+03 0.  0.
         24    2    3    3    0    0 -0.68933456622E+02  0.42730747850E+02  0.29447881813E+03  0.31577944055E+03  0.80132031640E+02 0.  0.
         -6    2    1    2    0  503  0.81907076103E+02 -0.23410479155E+02 -0.90551026500E+01  0.19309881215E+03  0.17305587745E+03 0.  0.
        -24    2    5    5    0    0  0.48731178495E+02  0.30039623880E+01  0.61426868573E+02  0.11070851435E+03  0.78098421358E+02 0.  0.
          5    1    3    3  501    0 -0.12973619481E+02 -0.19320268695E+02 -0.11110535581E+02  0.26213004135E+02  0.47000000000E+01 0. -1.
        -11    1    4    4    0    0 -0.65967501472E+02  0.72269961870E+01  0.11478550451E+03  0.13258828293E+03  0.00000000000E+00 0.  1.
         12    1    4    4    0    0 -0.29659551505E+01  0.35503751663E+02  0.17969331362E+03  0.18319115762E+03  0.00000000000E+00 0. -1.
         -5    1    5    5    0  503  0.33175897607E+02 -0.26414441543E+02 -0.70481971223E+02  0.82390297800E+02  0.47000000000E+01 0.  1.
         11    1    6    6    0    0 -0.18978278799E+02 -0.60601844034E+01  0.28760099622E+02  0.34986343499E+02  0.00000000000E+00 0. -1.
        -12    1    6    6    0    0  0.67709457294E+02  0.90641467914E+01  0.32666768951E+02  0.75722170847E+02  0.00000000000E+00 0.  1.
</event>
<event>
12    1  0.9028446E-003  0.2375629E+03  0.7818608E-02  0.1121511E+00
         21   -1    0    0  503  502  0.00000000000E+00  0.00000000000E+00  0.64995765759E+03  0.64995765759E+03  0.00000000000E+00 0.  1.
         21   -1    0    0  501  503 -0.00000000000E+00 -0.00000000000E+00 -0.10435062665E+03  0.10435062665E+03  0.00000000000E+00 0.  1.
          6    2    1    2  501    0 -0.93837189130E+02  0.13486029004E+03  0.11723243598E+03  0.26447064445E+03  0.17090512525E+03 0.  0.
         24    2    3    3    0    0 -0.21614870160E+02 -0.20579818208E+01  0.38160787002E+02  0.90582484422E+02  0.79230694293E+02 0.  0.
         -6    2    1    2    0  502  0.93837189130E+02 -0.13486029004E+03  0.42837459496E+03  0.48983763978E+03  0.17159080349E+03 0.  0.
        -24    2    5    5    0    0  0.66402043581E+02 -0.66428765984E+01  0.15894879073E+03  0.19016323929E+03  0.80274406274E+02 0.  0.
          5    1    3    3  501    0 -0.72222318970E+02  0.13691827186E+03  0.79071648974E+02  0.17388816003E+03  0.47000000000E+01 0. -1.
        -11    1    4    4    0    0  0.12569507905E+02  0.30945068670E+02  0.81424162047E+01  0.34378608838E+02  0.00000000000E+00 0.  1.
         12    1    4    4    0    0 -0.34184378064E+02 -0.33003050491E+02  0.30018370798E+02  0.56203875584E+02  0.00000000000E+00 0. -1.
         -5    1    5    5    0  502  0.27435145549E+02 -0.12821741344E+03  0.26942580424E+03  0.29967440049E+03  0.47000000000E+01 0.  1.
         13    1    6    6    0    0  0.41392392660E+02  0.12539319716E+02  0.19938842777E+02  0.47624806145E+02  0.00000000000E+00 0. -1.
        -14    1    6    6    0    0  0.25009650921E+02 -0.19182196314E+02  0.13900994795E+03  0.14253843314E+03  0.00000000000E+00 0.  1.
</event>
<event>
12    1  0.9028446E-003  0.1831316E+03  0.7818608E-02  0.1165567E+00
         21   -1    0    0  501  502  0.00000000000E+00  0.00000000000E+00  0.45646465477E+02  0.45646465477E+02  0.00000000000E+00 0.  1.
         21   -1    0    0  502  503 -0.00000000000E+00 -0.00000000000E+00 -0.91406559959E+03  0.91406559959E+03  0.00000000000E+00 0.  1.
          6    2    1    2  501    0 -0.23066663510E+02 -0.45526718080E+02 -0.21725984335E+03  0.28414614107E+03  0.17587619773E+03 0.  0.
         24    2    3    3    0    0  0.40935160517E+02 -0.72112970092E+02 -0.13086784388E+03  0.17329159742E+03  0.77637731507E+02 0.  0.
         -6    2    1    2    0  503  0.23066663510E+02  0.45526718080E+02 -0.65115929076E+03  0.67556592400E+03  0.17255765035E+03 0.  0.
        -24    2    5    5    0    0 -0.91017684654E+01  0.59353482490E+02 -0.21642953502E+03  0.23940306685E+03  0.82863784089E+02 0.  0.
          5    1    3    3  501    0 -0.64001824027E+02  0.26586252012E+02 -0.86391999470E+02  0.11085454365E+03  0.47000000000E+01 0. -1.
        -11    1    4    4    0    0  0.17553221885E+02 -0.42593856815E+02 -0.10609216424E+02  0.47274810524E+02  0.00000000000E+00 0.  1.
         12    1    4    4    0    0  0.23381938632E+02 -0.29519113277E+02 -0.12025862745E+03  0.12601678690E+03  0.00000000000E+00 0. -1.
         -5    1    5    5    0  503  0.32168431975E+02 -0.13826764410E+02 -0.43472975574E+03  0.43616285715E+03  0.47000000000E+01 0.  1.
         11    1    6    6    0    0 -0.62893241168E+01 -0.16285978326E+02 -0.11406897394E+02  0.20854399920E+02  0.00000000000E+00 0. -1.
        -12    1    6    6    0    0 -0.28124443486E+01  0.75639460817E+02 -0.20502263763E+03  0.21854866693E+03  0.00000000000E+00 0.  1.
</event>
<event>
12    1  0.9028446E-003  0.2107148E+03  0.7818608E-02  0.1142172E+00
         21   -1    0    0  501  502  0.00000000000E+00  0.00000000000E+00  0.49004880921E+03  0.49004880921E+03  0.00000000000E+00 0.  1.
         21   -1    0    0  502  503 -0.00000000000E+00 -0.00000000000E+00 -0.89491747753E+02  0.89491747753E+02  0.00000000000E+00 0. -1.
          6    2    1    2  501    0  0.97732560468E+02 -0.68404310385E+02  0.23909333805E+03  0.31869476264E+03  0.17369491754E+03 0.  0.
         24    2    3    3    0    0  0.79350422965E+02 -0.10828567837E+03  0.22099461161E+03  0.27096552222E+03  0.81002580877E+02 0.  0.
         -6    2    1    2    0  503 -0.97732560468E+02  0.68404310385E+02  0.16146372341E+03  0.26084579432E+03  0.16655086726E+03 0.  0.
        -24    2    5    5    0    0 -0.14378603763E+02  0.86720022010E+02  0.85748860058E+02  0.14666095328E+03  0.80183924533E+02 0.  0.
          5    1    3    3  501    0  0.18382137503E+02  0.39881367989E+02  0.18098726441E+02  0.47729240415E+02  0.47000000000E+01 0. -1.
        -11    1    4    4    0    0 -0.33033020622E+01 -0.61943360414E+02  0.88034139362E+02  0.10769355318E+03  0.00000000000E+00 0.  1.
         12    1    4    4    0    0  0.82653725027E+02 -0.46342317960E+02  0.13296047224E+03  0.16327196904E+03  0.00000000000E+00 0. -1.
         -5    1    5    5    0  503 -0.83353956705E+02 -0.18315711625E+02  0.75714863347E+02  0.11418484104E+03  0.47000000000E+01 0.  1.
         13    1    6    6    0    0 -0.18208684234E+02  0.46914697127E+02 -0.18581730337E+01  0.50358691356E+02  0.00000000000E+00 0. -1.
        -14    1    6    6    0    0  0.38300804704E+01  0.39805324882E+02  0.87607033092E+02  0.96302261929E+02  0.00000000000E+00 0.  1.
</event>
<event>
12    1  0.9028446E-003  0.2160245E+03  0.7818608E-02  0.1136998E+00
         21   -1    0    0  503  502  0.00000000000E+00  0.00000000000E+00  0.47260369662E+03  0.47260369662E+03  0.00000000000E+00 0.  1.
         21   -1    0    0  501  503 -0.00000000000E+00 -0.00000000000E+00 -0.11528078194E+03  0.11528078194E+03  0.00000000000E+00 0.  1.
          6    2    1    2  501    0 -0.10683571507E+03 -0.74987187544E+02  0.66190886744E+02  0.22535938321E+03  0.17137289693E+03 0.  0.
         24    2    3    3    0    0 -0.91228248663E+02 -0.10889969058E+03  0.84773395081E+02  0.18339451117E+03  0.79153535928E+02 0.  0.
         -6    2    1    2    0  502  0.10683571507E+03  0.74987187544E+02  0.29113202793E+03  0.36252509535E+03  0.17213261968E+03 0.  0.
        -24    2    5    5    0    0  0.13789070758E+03  0.31780282735E+02  0.21475312494E+03  0.26932061045E+03  0.79942810393E+02 0.  0.
          5    1    3    3  501    0 -0.15607466411E+02  0.33912503036E+02 -0.18582508338E+02  0.41964872048E+02  0.47000000000E+01 0. -1.
        -11    1    4    4    0    0 -0.37531081824E+02  0.37393893570E+01  0.22745610933E+02  0.44044613205E+02  0.00000000000E+00 0.  1.
         12    1    4    4    0    0 -0.53697166839E+02 -0.11263907994E+03  0.62027784148E+02  0.13934989796E+03  0.00000000000E+00 0. -1.
         -5    1    5    5    0  502 -0.31054992507E+02  0.43206904810E+02  0.76378902988E+02  0.93204484895E+02  0.47000000000E+01 0.  1.
         13    1    6    6    0    0  0.24096201017E+02 -0.22642244562E+02  0.69347998311E+02  0.76827358486E+02  0.00000000000E+00 0. -1.
        -14    1    6    6    0    0  0.11379450656E+03  0.54422527296E+02  0.14540512663E+03  0.19249325197E+03  0.00000000000E+00 0.  1.
</event>
<event>
12    1  0.9028446E-003  0.2028321E+03  0.7818608E-02  0.1147584E+00
         21   -1    0    0  503  502  0.00000000000E+00  0.00000000000E+00  0.69838863778E+03  0.69838863778E+03  0.00000000000E+00 0. -1.
         21   -1    0    0  501  503 -0.00000000000E+00 -0.00000000000E+00 -0.63792963864E+02  0.63792963864E+02  0.00000000000E+00 0. -1.
          6    2    1    2  501    0  0.18384405312E+02  0.10581399229E+03  0.42517626767E+03  0.47063856318E+03  0.17085435681E+03 0.  0.
         24    2    3    3    0    0  0.50574271534E+02  0.12022144473E+01  0.16634419299E+03  0.18957639135E+03  0.75561996767E+02 0.  0.
         -6    2    1    2    0  502 -0.18384405312E+02 -0.10581399229E+03  0.20941940624E+03  0.29154303846E+03  0.17206472108E+03 0.  0.
        -24    2    5    5    0    0  0.40244099134E+02 -0.82779499583E+01  0.94288831820E+02  0.12959329238E+03  0.78841141882E+02 0.  0.
          5    1    3    3  501    0 -0.32189866222E+02  0.10461177785E+03  0.25883207468E+03  0.28106217183E+03  0.47000000000E+01 0. -1.
        -11    1    4    4    0    0 -0.12506985040E+02 -0.18136628101E+02  0.23396087249E+02  0.32136254484E+02  0.00000000000E+00 0.  1.
         12    1    4    4    0    0  0.63081256574E+02  0.19338842548E+02  0.14294810574E+03  0.15744013687E+03  0.00000000000E+00 0. -1.
         -5    1    5    5    0  502 -0.58628504446E+02 -0.97536042336E+02  0.11513057442E+03  0.16194974608E+03  0.47000000000E+01 0.  1.
         11    1    6    6    0    0  0.57618284410E+01 -0.32146746609E+02  0.78075395660E+02  0.84630841848E+02  0.00000000000E+00 0. -1.
        -12    1    6    6    0    0  0.34482270693E+02  0.23868796651E+02  0.16213436161E+02  0.44962450532E+02  0.00000000000E+00 0.  1.
</event>
<event>
12    1  0.9028446E-003  0.2209856E+03  0.7818608E-02  0.1133523E+00
         21   -1    0    0  503  502  0.00000000000E+00  0.00000000000E+00  0.95931560187E+02  0.95931560187E+02  0.00000000000E+00 0. -1.
         21   -1    0    0  501  503 -0.00000000000E+00 -0.00000000000E+00 -0.75997756188E+03  0.75997756188E+03  0.00000000000E+00 0.  1.
          6    2    1    2  501    0 -0.81567767579E+02 -0.11038771730E+03 -0.58116720995E+03  0.62176360417E+03  0.17319325825E+03 0.  0.
         24    2    3    3    0    0 -0.80042977208E+02 -0.33297329128E+01 -0.29229922597E+03  0.31365560496E+03  0.80765312459E+02 0.  0.
         -6    2    1    2    0  502  0.81567767579E+02  0.11038771730E+03 -0.82878791740E+02  0.23414551790E+03  0.17063551973E+03 0.  0.
        -24    2    5    5    0    0 -0.12103655350E+02  0.82541789240E+02 -0.72792449960E+02  0.13579128325E+03  0.78618613514E+02 0.  0.
          5    1    3    3  501    0 -0.15247903713E+01 -0.10705798439E+03 -0.28886798398E+03  0.30810799921E+03  0.47000000000E+01 0. -1.
        -11    1    4    4    0    0 -0.81147398478E+02 -0.26068056348E+01 -0.29745365732E+03  0.30833484067E+03  0.00000000000E+00 0.  1.
         12    1    4    4    0    0  0.11044212705E+01 -0.72292727803E+00  0.51544313453E+01  0.53207642952E+01  0.00000000000E+00 0. -1.
         -5    1    5    5    0  502  0.93671422929E+02  0.27845928064E+02 -0.10086341780E+02  0.98354234651E+02  0.47000000000E+01 0.  1.
         11    1    6    6    0    0 -0.74617602231E+01  0.93913278064E+02 -0.78137444989E+02  0.12239624983E+03  0.00000000000E+00 0. -1.
        -12    1    6    6    0    0 -0.46418951269E+01 -0.11371488824E+02  0.53449950288E+01  0.13395033419E+02  0.00000000000E+00 0.  1.
</event>
<event>
12    1  0.9028446E-003  0.3456221E+03  0.7818608E-02  0.1064453E+00
         21   -1    0    0  503  502  0.00000000000E+00  0.00000000000E+00  0.18569727468E+03  0.18569727468E+03  0.00000000000E+00 0.  1.
         21   -1    0    0  501  503 -0.00000000000E+00 -0.00000000000E+00 -0.68119552605E+03  0.68119552605E+03  0.00000000000E+00 0. -1.
          6    2    1    2  501    0  0.12321886332E+03 -0.27325050514E+03 -0.35074854039E+03  0.49242174537E+03  0.17206367974E+03 0.  0.
         24    2    3    3    0    0  0.15152992630E+03 -0.26182516963E+03 -0.30652339796E+03  0.43847725722E+03  0.82413430858E+02 0.  0.
         -6    2    1    2    0  502 -0.12321886332E+03  0.27325050514E+03 -0.14474971098E+03  0.37447105537E+03  0.17154406326E+03 0.  0.
        -24    2    5    5    0    0 -0.89101149654E+02  0.12793705521E+03 -0.14187541893E+03  0.22510449729E+03  0.78971483698E+02 0.  0.
          5    1    3    3  501    0 -0.28311062979E+02 -0.11425335513E+02 -0.44225142427E+02  0.53944488145E+02  0.47000000000E+01 0. -1.
        -13    1    4    4    0    0  0.11326525596E+03 -0.23855146958E+03 -0.23189561430E+03  0.35144188393E+03  0.00000000000E+00 0.  1.
         14    1    4    4    0    0  0.38264670338E+02 -0.23273700049E+02 -0.74627783659E+02  0.87035373290E+02  0.00000000000E+00 0. -1.
         -5    1    5    5    0  502 -0.34117713669E+02  0.14531344994E+03 -0.28742920508E+01  0.14936655808E+03  0.47000000000E+01 0.  1.
         11    1    6    6    0    0 -0.80203523308E+02  0.54966914756E+02 -0.56551358768E+02  0.11248121197E+03  0.00000000000E+00 0. -1.
        -12    1    6    6    0    0 -0.88976263464E+01  0.72970140450E+02 -0.85324060161E+02  0.11262328531E+03  0.00000000000E+00 0.  1.
</event>
<event>
12    1  0.9028446E-003  0.1730036E+03  0.7818608E-02  0.1174962E+00
         21   -1    0    0  503  502  0.00000000000E+00  0.00000000000E+00  0.46999789197E+02  0.46999789197E+02  0.00000000000E+00 0.  1.
         21   -1    0    0  501  503 -0.00000000000E+00 -0.00000000000E+00 -0.63604524330E+03  0.63604524330E+03  0.00000000000E+00 0.  1.
          6    2    1    2  501    0  0.11946885597E+02  0.11268530370E+02 -0.31556218188E+03  0.35987460159E+03  0.17222232837E+03 0.  0.
         24    2    3    3    0    0 -0.13807078834E+01  0.20553868337E+02 -0.33022082461E+03  0.33749586043E+03  0.66582992861E+02 0.  0.
         -6    2    1    2    0  502 -0.11946885597E+02 -0.11268530370E+02 -0.27348327223E+03  0.32317043091E+03  0.17139521397E+03 0.  0.
        -24    2    5    5    0    0  0.57557624653E+02 -0.16315543983E+02 -0.18402667853E+03  0.20967628371E+03  0.80741862802E+02 0.  0.
          5    1    3    3  501    0  0.13327593481E+02 -0.92853379672E+01  0.14658642739E+02  0.22378741164E+02  0.47000000000E+01 0. -1.
        -11    1    4    4    0    0  0.11265416983E+02 -0.22314577546E+02 -0.12040873197E+03  0.12297606566E+03  0.00000000000E+00 0.  1.
         12    1    4    4    0    0 -0.12646124867E+02  0.42868445883E+02 -0.20981209264E+03  0.21451979476E+03  0.00000000000E+00 0. -1.
         -5    1    5    5    0  502 -0.69504510250E+02  0.50470136126E+01 -0.89456593696E+02  0.11349414719E+03  0.47000000000E+01 0.  1.
         11    1    6    6    0    0  0.17712458506E+02  0.19460523240E+02 -0.13344388553E+03  0.13601365276E+03  0.00000000000E+00 0. -1.
        -12    1    6    6    0    0  0.39845166147E+02 -0.35776067222E+02 -0.50582793001E+02  0.73662630954E+02  0.00000000000E+00 0.  1.
</event>
<event>
12    1  0.9028446E-003  0.2839880E+03  0.7818608E-02  0.1095025E+00
         21   -1    0    0  501  502  0.00000000000E+00  0.00000000000E+00  0.34203411787E+03  0.34203411787E+03  0.00000000000E+00 0.  1.
         21   -1    0    0  502  503 -0.00000000000E+00 -0.00000000000E+00 -0.33806485207E+03  0.33806485207E+03  0.00000000000E+00 0. -1.
          6    2    1    2  501    0  0.22566779769E+03 -0.12379302794E+02  0.19700356423E+03  0.33671662636E+03  0.15325951877E+03 0.  0.
         24    2    3    3    0    0  0.18005970473E+03 -0.17108125327E+02  0.21027064872E+03  0.28875241640E+03  0.80312060387E+02 0.  0.
         -6    2    1    2    0  503 -0.22566779769E+03  0.12379302794E+02 -0.19303429843E+03  0.34338234357E+03  0.17195927267E+03 0.  0.
        -24    2    5    5    0    0 -0.59706254032E+02 -0.26845790115E+02 -0.11989587166E+03  0.15776671558E+03  0.78928976199E+02 0.  0.
          5    1    3    3  501    0  0.45608092964E+02  0.47288225329E+01 -0.13267084490E+02  0.47964209962E+02  0.47000000000E+01 0. -1.
        -11    1    4    4    0    0  0.38710544429E+02  0.22806247474E+02  0.83114173168E+02  0.94480669744E+02  0.00000000000E+00 0.  1.
         12    1    4    4    0    0  0.14134916030E+03 -0.39914372801E+02  0.12715647555E+03  0.19427174666E+03  0.00000000000E+00 0. -1.
         -5    1    5    5    0  503 -0.16596154366E+03  0.39225092909E+02 -0.73138426763E+02  0.18561562800E+03  0.47000000000E+01 0.  1.
         11    1    6    6    0    0 -0.74419584841E+02 -0.38364384465E+02 -0.94828087497E+02  0.12650085684E+03  0.00000000000E+00 0. -1.
        -12    1    6    6    0    0  0.14713330809E+02  0.11518594350E+02 -0.25067784167E+02  0.31265858733E+02  0.00000000000E+00 0.  1.
</event>
<event>
12    1  0.9028446E-003  0.1807072E+03  0.7818608E-02  0.1167409E+00
         21   -1    0    0  503  502  0.00000000000E+00  0.00000000000E+00  0.89436200224E+02  0.89436200224E+02  0.00000000000E+00 0. -1.
         21   -1    0    0  501  503 -0.00000000000E+00 -0.00000000000E+00 -0.49768020955E+03  0.49768020955E+03  0.00000000000E+00 0. -1.
          6    2    1    2  501    0 -0.39166732216E+02  0.31862936517E+02 -0.35650275033E+03  0.39914764753E+03  0.17226535897E+03 0.  0.
         24    2    3    3    0    0 -0.68904911598E+02  0.68399219147E+02 -0.30121448787E+03  0.32635931586E+03  0.79711324945E+02 0.  0.
         -6    2    1    2    0  502  0.39166732216E+02 -0.31862936517E+02 -0.51741258996E+02  0.18796876224E+03  0.17351028229E+03 0.  0.
        -24    2    5    5    0    0  0.92324746793E+02 -0.33253888195E+02 -0.41078166821E+02  0.13353071677E+03  0.80705368971E+02 0.  0.
          5    1    3    3  501    0  0.29738179382E+02 -0.36536282630E+02 -0.55288262458E+02  0.72788331668E+02  0.47000000000E+01 0. -1.
        -11    1    4    4    0    0 -0.93409088945E+00  0.21655814230E+02 -0.10344331342E+02  0.24017743580E+02  0.00000000000E+00 0.  1.
         12    1    4    4    0    0 -0.67970820709E+02  0.46743404917E+02 -0.29087015653E+03  0.30234157228E+03  0.00000000000E+00 0. -1.
         -5    1    5    5    0  502 -0.53158014577E+02  0.13909516784E+01 -0.10663092175E+02  0.54438045475E+02  0.47000000000E+01 0.  1.
         13    1    6    6    0    0  0.37521171746E+02  0.24883752663E+02 -0.32728122690E+01  0.45141452967E+02  0.00000000000E+00 0. -1.
        -14    1    6    6    0    0  0.54803575047E+02 -0.58137640859E+02 -0.37805354552E+02  0.88389263801E+02  0.00000000000E+00 0.  1.
</event>
<event>
12    1  0.9028446E-003  0.2439359E+03  0.7818608E-02  0.1117945E+00
         21   -1    0    0  501  502  0.00000000000E+00  0.00000000000E+00  0.30521940986E+04  0.30521940986E+04  0.00000000000E+00 0. -1.
         21   -1    0    0  502  503 -0.00000000000E+00 -0.00000000000E+00 -0.20103305421E+02  0.20103305421E+02  0.00000000000E+00 0. -1.
          6    2    1    2  501    0 -0.23522666723E+02 -0.16989220370E+03  0.18396149531E+04  0.18551271751E+04  0.16702390034E+03 0.  0.
         24    2    3    3    0    0 -0.62368218672E+02 -0.17184740502E+03  0.15977347797E+04  0.16100947119E+04  0.78912798346E+02 0.  0.
         -6    2    1    2    0  503  0.23522666723E+02  0.16989220370E+03  0.11924758400E+04  0.12171702289E+04  0.17345910281E+03 0.  0.
        -24    2    5    5    0    0 -0.50049138525E+02  0.11502743893E+03  0.83701681169E+03  0.85002425825E+03  0.78790028453E+02 0.  0.
          5    1    3    3  501    0  0.38845551949E+02  0.19552013213E+01  0.24188017345E+03  0.24503246321E+03  0.47000000000E+01 0. -1.
        -13    1    4    4    0    0 -0.46832092851E+02 -0.42448472084E+02  0.35888972711E+03  0.36441316377E+03  0.00000000000E+00 0.  1.
         14    1    4    4    0    0 -0.15536125821E+02 -0.12939893294E+03  0.12388450526E+04  0.12456815481E+04  0.00000000000E+00 0. -1.
         -5    1    5    5    0  503  0.73571805248E+02  0.54864764772E+02  0.35545902835E+03  0.36714597067E+03  0.47000000000E+01 0.  1.
         11    1    6    6    0    0  0.19708453875E+02  0.33966717393E+02  0.29049270379E+03  0.29313507467E+03  0.00000000000E+00 0. -1.
        -12    1    6    6    0    0 -0.69757592400E+02  0.81060721534E+02  0.54652410790E+03  0.55688918358E+03  0.00000000000E+00 0.  1.
</event>
<event>
12    1  0.9028446E-003  0.1851475E+03  0.7818608E-02  0.1163392E+00
         21   -1    0    0  503  502  0.00000000000E+00  0.00000000000E+00  0.28055177923E+02  0.28055177923E+02  0.00000000000E+00 0. -1.
         21   -1    0    0  501  503 -0.00000000000E+00 -0.00000000000E+00 -0.12161816381E+04  0.12161816381E+04  0.00000000000E+00 0. -1.
          6    2    1    2  501    0 -0.17356385562E+02  0.65222626788E+02 -0.54103358060E+03  0.57117753312E+03  0.17020929421E+03 0.  0.
         24    2    3    3    0    0 -0.19308025903E+02  0.93728708801E+02 -0.26261454592E+03  0.29125673274E+03  0.81891476477E+02 0.  0.
         -6    2    1    2    0  502  0.17356385562E+02 -0.65222626788E+02 -0.64709287953E+03  0.67305928286E+03  0.17240756462E+03 0.  0.
        -24    2    5    5    0    0 -0.26988649523E+02 -0.47470677496E+02 -0.17608303624E+03  0.19961026098E+03  0.76532138430E+02 0.  0.
          5    1    3    3  501    0  0.19516403406E+01 -0.28506082013E+02 -0.27841903468E+03  0.27992080038E+03  0.47000000000E+01 0. -1.
        -13    1    4    4    0    0  0.29263439454E+02  0.16975093306E+02 -0.91038184340E+02  0.97120820061E+02  0.00000000000E+00 0.  1.
         14    1    4    4    0    0 -0.48571465357E+02  0.76753615495E+02 -0.17157636158E+03  0.19413591268E+03  0.00000000000E+00 0. -1.
         -5    1    5    5    0  502  0.44345035085E+02 -0.17751949292E+02 -0.47100984330E+03  0.47344902188E+03  0.47000000000E+01 0.  1.
         13    1    6    6    0    0  0.20595455891E+02 -0.87145491156E+01 -0.14214577076E+02  0.26498497525E+02  0.00000000000E+00 0. -1.
        -14    1    6    6    0    0 -0.47584105413E+02 -0.38756128381E+02 -0.16186845916E+03  0.17311176345E+03  0.00000000000E+00 0.  1.
</event>
<event>
12    1  0.9028446E-003  0.1999642E+03  0.7818608E-02  0.1149770E+00
         21   -1    0    0  501  502  0.00000000000E+00  0.00000000000E+00  0.40139607850E+02  0.40139607850E+02  0.00000000000E+00 0. -1.
         21   -1    0    0  502  503 -0.00000000000E+00 -0.00000000000E+00 -0.10337145449E+04  0.10337145449E+04  0.00000000000E+00 0. -1.
          6    2    1    2  501    0 -0.62403889668E+02 -0.82161093306E+02 -0.39443829727E+03  0.44222895884E+03  0.17128978656E+03 0.  0.
         24    2    3    3    0    0  0.19635268865E+02 -0.55570670357E+02 -0.12111338794E+03  0.15558271312E+03  0.77870948979E+02 0.  0.
         -6    2    1    2    0  503  0.62403889668E+02  0.82161093306E+02 -0.59913663983E+03  0.63162519396E+03  0.17129209487E+03 0.  0.
        -24    2    5    5    0    0  0.10487870726E+02 -0.73316916161E+01 -0.17124355240E+03  0.19137660981E+03  0.84480195375E+02 0.  0.
          5    1    3    3  501    0 -0.82039158533E+02 -0.26590422949E+02 -0.27332490933E+03  0.28664624572E+03  0.47000000000E+01 0. -1.
        -11    1    4    4    0    0  0.40018989441E+02 -0.12724905287E+02 -0.88648028835E+02  0.98091364282E+02  0.00000000000E+00 0.  1.
         12    1    4    4    0    0 -0.20383720576E+02 -0.42845765070E+02 -0.32465359107E+02  0.57491348836E+02  0.00000000000E+00 0. -1.
         -5    1    5    5    0  503  0.51916018942E+02  0.89492784922E+02 -0.42789308743E+03  0.44024858415E+03  0.47000000000E+01 0.  1.
         13    1    6    6    0    0 -0.28922338830E+02  0.15608936166E+02 -0.36451958814E+02  0.49080402127E+02  0.00000000000E+00 0. -1.
        -14    1    6    6    0    0  0.39410209556E+02 -0.22940627782E+02 -0.13479159359E+03  0.14229620769E+03  0.00000000000E+00 0.  1.
</event>
<event>
12    1  0.9028446E-003  0.1850294E+03  0.7818608E-02  0.1167427E+00
         21   -1    0    0  501  502  0.00000000000E+00  0.00000000000E+00  0.10939267817E+03  0.10939267817E+03  0.00000000000E+00 0.  1.
         21   -1    0    0  502  503 -0.00000000000E+00 -0.00000000000E+00 -0.32475862947E+03  0.32475862947E+03  0.00000000000E+00 0.  1.
          6    2    1    2  501    0 -0.59440293348E+02  0.26161296602E+02 -0.35128334661E+02  0.18833448444E+03  0.17325794706E+03 0.  0.
         24    2    3    3    0    0 -0.84403694376E+02 -0.32999481442E+02 -0.27469458400E+02  0.12349686083E+03  0.79271395157E+02 0.  0.
         -6    2    1    2    0  503  0.59440293348E+02 -0.26161296602E+02 -0.18023761664E+03  0.24581682320E+03  0.15402191468E+03 0.  0.
        -24    2    5    5    0    0  0.88645398920E+02  0.10940318863E+02 -0.13046553783E+03  0.17705042231E+03  0.79673698005E+02 0.  0.
          5    1    3    3  501    0  0.24963401029E+02  0.59160778044E+02 -0.76588762610E+01  0.64837623609E+02  0.47000000000E+01 0. -1.
        -11    1    4    4    0    0 -0.78303224580E+02 -0.33061679850E+02  0.99554810129E+01  0.85577925052E+02  0.00000000000E+00 0.  1.
         12    1    4    4    0    0 -0.61004697968E+01  0.62198407826E-01 -0.37424939413E+02  0.37918935777E+02  0.00000000000E+00 0. -1.
         -5    1    5    5    0  503 -0.29205105572E+02 -0.37101615465E+02 -0.49772078816E+02  0.68766400889E+02  0.47000000000E+01 0.  1.
         11    1    6    6    0    0  0.59992857824E+02  0.40502088811E+02 -0.54361567651E+02  0.90524815523E+02  0.00000000000E+00 0. -1.
        -12    1    6    6    0    0  0.28652541096E+02 -0.29561769948E+02 -0.76103970176E+02  0.86525606789E+02  0.00000000000E+00 0.  1.
</event>
<event>
12    1  0.9028446E-003  0.1782149E+03  0.7818608E-02  0.1169901E+00
         21   -1    0    0  503  502  0.00000000000E+00  0.00000000000E+00  0.27806918280E+03  0.27806918280E+03  0.00000000000E+00 0. -1.
         21   -1    0    0  501  503 -0.00000000000E+00 -0.00000000000E+00 -0.19789696589E+03  0.19789696589E+03  0.00000000000E+00 0. -1.
          6    2    1    2  501    0 -0.25026073522E+02  0.38228772674E+02 -0.11542973142E+03  0.21233124571E+03  0.17225792171E+03 0.  0.
         24    2    3    3    0    0 -0.72644928463E+02  0.30248271667E+02 -0.11994729990E+03  0.16361018079E+03  0.78668246026E+02 0.  0.
         -6    2    1    2    0  502  0.25026073522E+02 -0.38228772674E+02  0.19560194833E+03  0.26363490298E+03  0.17074980661E+03 0.  0.
        -24    2    5    5    0    0 -0.85357455716E+01 -0.56735611250E+02  0.20225700938E+03  0.22445227146E+03  0.78607479178E+02 0.  0.
          5    1    3    3  501    0  0.47618854941E+02  0.79805010068E+01  0.45175684785E+01  0.48721064922E+02  0.47000000000E+01 0. -1.
        -11    1    4    4    0    0 -0.53225395148E+02 -0.42429001050E+01 -0.11078581899E+03  0.12298147250E+03  0.00000000000E+00 0.  1.
         12    1    4    4    0    0 -0.19419533315E+02  0.34491171772E+02 -0.91614809158E+01  0.40628708286E+02  0.00000000000E+00 0. -1.
         -5    1    5    5    0  502  0.33561819094E+02  0.18506838576E+02 -0.66550610474E+01  0.39182631516E+02  0.47000000000E+01 0.  1.
         11    1    6    6    0    0  0.15717095126E+02 -0.68503641368E+02  0.15013766589E+03  0.16577422803E+03  0.00000000000E+00 0. -1.
        -12    1    6    6    0    0 -0.24252840698E+02  0.11768030117E+02  0.52119343491E+02  0.58678043430E+02  0.00000000000E+00 0.  1.
</event>
<event>
12    1  0.9028446E-003  0.4253177E+03  0.7818608E-02  0.1035417E+00
         21   -1    0    0  501  502  0.00000000000E+00  0.00000000000E+00  0.16032749482E+03  0.16032749482E+03  0.00000000000E+00 0. -1.
         21   -1    0    0  502  503 -0.00000000000E+00 -0.00000000000E+00 -0.11310644472E+04  0.11310644472E+04  0.00000000000E+00 0.  1.
          6    2    1    2  501    0 -0.22063250849E+03 -0.31957341190E+03 -0.44290743804E+03  0.61405384261E+03  0.17346254223E+03 0.  0.
         24    2    3    3    0    0 -0.55511498309E+02 -0.19646135707E+03 -0.23709157551E+03  0.32284294769E+03  0.79602527806E+02 0.  0.
         -6    2    1    2    0  503  0.22063250849E+03  0.31957341190E+03 -0.52782951432E+03  0.67733809938E+03  0.17139730245E+03 0.  0.
        -24    2    5    5    0    0  0.18579003604E+03  0.26508788252E+03 -0.32985801643E+03  0.46901749365E+03  0.79884763180E+02 0.  0.
          5    1    3    3  501    0 -0.16512101018E+03 -0.12311205483E+03 -0.20581586254E+03  0.29121089492E+03  0.47000000000E+01 0. -1.
        -13    1    4    4    0    0 -0.59460671230E+01 -0.10528878019E+01  0.49744474941E+01  0.78236446000E+01  0.00000000000E+00 0.  1.
         14    1    4    4    0    0 -0.49565431186E+02 -0.19540846927E+03 -0.24206602300E+03  0.31501930309E+03  0.00000000000E+00 0. -1.
         -5    1    5    5    0  503  0.34842472451E+02  0.54485529378E+02 -0.19797149789E+03  0.20832060574E+03  0.47000000000E+01 0.  1.
         13    1    6    6    0    0  0.25176250166E+02  0.45667148085E+02 -0.17788726438E+02  0.55097829131E+02  0.00000000000E+00 0. -1.
        -14    1    6    6    0    0  0.16061378588E+03  0.21942073444E+03 -0.31206929000E+03  0.41391966452E+03  0.00000000000E+00 0.  1.
</event>
<event>
12    1  0.9028446E-003  0.1792159E+03  0.7818608E-02  0.1171955E+00
         21   -1    0    0  501  502  0.00000000000E+00  0.00000000000E+00  0.67074177637E+03  0.67074177637E+03  0.00000000000E+00 0.  1.
         21   -1    0    0  502  503 -0.00000000000E+00 -0.00000000000E+00 -0.45662945953E+02  0.45662945953E+02  0.00000000000E+00 0.  1.
          6    2    1    2  501    0 -0.32349038326E+02  0.14110609886E+02  0.24075729622E+03  0.29235122172E+03  0.16204811498E+03 0.  0.
         24    2    3    3    0    0 -0.76769575773E+02  0.29752548250E+02  0.19765735842E+03  0.22833912114E+03  0.79319234822E+02 0.  0.
         -6    2    1    2    0  503  0.32349038326E+02 -0.14110609886E+02  0.38432153420E+03  0.42405350060E+03  0.17570646013E+03 0.  0.
        -24    2    5    5    0    0  0.11434996013E+02  0.46405148924E+02  0.32246270929E+03  0.33490105560E+03  0.76761456349E+02 0.  0.
          5    1    3    3  501    0  0.44420537447E+02 -0.15641938365E+02  0.43099937796E+02  0.64012100582E+02  0.47000000000E+01 0. -1.
        -11    1    4    4    0    0 -0.44589604529E+02  0.23937891457E+02  0.32888374018E+02  0.60356446424E+02  0.00000000000E+00 0.  1.
         12    1    4    4    0    0 -0.32179971245E+02  0.58146567934E+01  0.16476898441E+03  0.16798267472E+03  0.00000000000E+00 0. -1.
         -5    1    5    5    0  503  0.20914042314E+02 -0.60515758810E+02  0.61858824913E+02  0.89152445002E+02  0.47000000000E+01 0.  1.
         13    1    6    6    0    0 -0.54501700438E+01  0.62329742822E+02  0.18009702580E+03  0.19065581527E+03  0.00000000000E+00 0. -1.
        -14    1    6    6    0    0  0.16885166057E+02 -0.15924593897E+02  0.14236568349E+03  0.14424524033E+03  0.00000000000E+00 0.  1.
</event>
<event>
12    1  0.9028446E-003  0.2002116E+03  0.7818608E-02  0.1150095E+00
         21   -1    0    0  503  502  0.00000000000E+00  0.00000000000E+00  0.10375895347E+03  0.10375895347E+03  0.00000000000E+00 0. -1.
         21   -1    0    0  501  503 -0.00000000000E+00 -0.00000000000E+00 -0.38460259044E+03  0.38460259044E+03  0.00000000000E+00 0. -1.
          6    2    1    2  501    0 -0.92317015305E+02 -0.34705451431E+02 -0.16154763883E+03  0.25530315362E+03  0.17133347881E+03 0.  0.
         24    2    3    3    0    0  0.18307236342E+02 -0.95911151921E+00 -0.75348209485E+02  0.11098069477E+03  0.79393243672E+02 0.  0.
         -6    2    1    2    0  502  0.92317015305E+02  0.34705451431E+02 -0.11929599814E+03  0.23305839029E+03  0.17423483704E+03 0.  0.
        -24    2    5    5    0    0 -0.22234226191E+02  0.22649902112E+02 -0.38238810457E+02  0.92134010313E+02  0.77582796748E+02 0.  0.
          5    1    3    3  501    0 -0.11062425165E+03 -0.33746339912E+02 -0.86199429343E+02  0.14432245885E+03  0.47000000000E+01 0. -1.
        -13    1    4    4    0    0 -0.42056987348E+01  0.45743495326E+01 -0.85462001210E+02  0.85687608359E+02  0.00000000000E+00 0.  1.
         14    1    4    4    0    0  0.22512935077E+02 -0.55334610518E+01  0.10113791724E+02  0.25293086408E+02  0.00000000000E+00 0. -1.
         -5    1    5    5    0  502  0.11455124150E+03  0.12055549320E+02 -0.81057187679E+02  0.14092437998E+03  0.47000000000E+01 0.  1.
         11    1    6    6    0    0 -0.82610542312E+01  0.45670160114E+02 -0.13105942229E+01  0.46429798611E+02  0.00000000000E+00 0. -1.
        -12    1    6    6    0    0 -0.13973171960E+02 -0.23020258002E+02 -0.36928216234E+02  0.45704211702E+02  0.00000000000E+00 0.  1.
</event>
<event>
12    1  0.9028446E-003  0.3331239E+03  0.7818608E-02  0.1069785E+00
         21   -1    0    0  501  502  0.00000000000E+00  0.00000000000E+00  0.12137301663E+04  0.12137301663E+04  0.00000000000E+00 0. -1.
         21   -1    0    0  502  503 -0.00000000000E+00 -0.00000000000E+00 -0.95964983333E+02  0.95964983333E+02  0.00000000000E+00 0.  1.
          6    2    1    2  501    0 -0.85688694482E+01 -0.28518074905E+03  0.70226418567E+03  0.77726861626E+03  0.17195938531E+03 0.  0.
         24    2    3    3    0    0  0.43642814108E+00 -0.44111748255E+02  0.14970626425E+03  0.17432773603E+03  0.77666963310E+02 0.  0.
         -6    2    1    2    0  503  0.85688694482E+01  0.28518074905E+03  0.41550099729E+03  0.53242653336E+03  0.17156762378E+03 0.  0.
        -24    2    5    5    0    0 -0.50868639818E+02  0.23265006648E+03  0.33840470445E+03  0.42170969413E+03  0.81287454046E+02 0.  0.
          5    1    3    3  501    0 -0.90052975892E+01 -0.24106900079E+03  0.55255792142E+03  0.60294088023E+03  0.47000000000E+01 0. -1.
        -11    1    4    4    0    0  0.25460479336E+02 -0.23534883466E+01  0.10555077425E+03  0.10860359506E+03  0.00000000000E+00 0.  1.
         12    1    4    4    0    0 -0.25024051195E+02 -0.41758259909E+02  0.44155490000E+02  0.65724140968E+02  0.00000000000E+00 0. -1.
         -5    1    5    5    0  503  0.59437509266E+02  0.52530682571E+02  0.77096292841E+02  0.11071683923E+03  0.47000000000E+01 0.  1.
         13    1    6    6    0    0 -0.48768593332E+02  0.13621870980E+03  0.14113123869E+03  0.20211862639E+03  0.00000000000E+00 0. -1.
        -14    1    6    6    0    0 -0.21000464868E+01  0.96431356674E+02  0.19727346575E+03  0.21959106775E+03  0.00000000000E+00 0.  1.
</event>
<event>
12    1  0.9028446E-003  0.2165511E+03  0.7818608E-02  0.1137094E+00
         21   -1    0    0  501  502  0.00000000000E+00  0.00000000000E+00  0.50729720662E+03  0.50729720662E+03  0.00000000000E+00 0. -1.
         21   -1    0    0  502  503 -0.00000000000E+00 -0.00000000000E+00 -0.12380717298E+03  0.12380717298E+03  0.00000000000E+00 0. -1.
          6    2    1    2  501    0  0.12708570082E+03 -0.43816812067E+01  0.28461486784E+02  0.21524426485E+03  0.17131860039E+03 0.  0.
         24    2    3    3    0    0  0.58460171737E+02 -0.28623370938E+02  0.75667851363E+02  0.12836703182E+03  0.80719155622E+02 0.  0.
         -6    2    1    2    0  503 -0.12708570082E+03  0.43816812067E+01  0.35502854685E+03  0.41586011475E+03  0.17528374561E+03 0.  0.
        -24    2    5    5    0    0 -0.58100707571E+02  0.42198844742E+02  0.30051464331E+03  0.32003254653E+03  0.83398712672E+02 0.  0.
          5    1    3    3  501    0  0.68625529086E+02  0.24241689732E+02 -0.47206364579E+02  0.86877233037E+02  0.47000000000E+01 0. -1.
        -11    1    4    4    0    0  0.42452479574E+02  0.22747028585E+02  0.24168507509E+02  0.53886520454E+02  0.00000000000E+00 0.  1.
         12    1    4    4    0    0  0.16007692163E+02 -0.51370399523E+02  0.51499343854E+02  0.74480511364E+02  0.00000000000E+00 0. -1.
         -5    1    5    5    0  503 -0.68984993253E+02 -0.37817163535E+02  0.54513903543E+02  0.95827568222E+02  0.47000000000E+01 0.  1.
         11    1    6    6    0    0 -0.73219052501E+02  0.32300590383E+02  0.16571045521E+03  0.18402258762E+03  0.00000000000E+00 0. -1.
        -12    1    6    6    0    0  0.15118344930E+02  0.98982543590E+01  0.13480418810E+03  0.13600995891E+03  0.00000000000E+00 0.  1.
</event>
<event>
12    1  0.9028446E-003  0.1813756E+03  0.7818608E-02  0.1167349E+00
         21   -1    0    0  503  502  0.00000000000E+00  0.00000000000E+00  0.61916245137E+03  0.61916245137E+03  0.00000000000E+00 0.  1.
         21   -1    0    0  501  503 -0.00000000000E+00 -0.00000000000E+00 -0.52214108608E+02  0.52214108608E+02  0.00000000000E+00 0.  1.
          6    2    1    2  501    0 -0.12929347792E+02 -0.57672866836E+02  0.26950667138E+03  0.32485530545E+03  0.17147535087E+03 0.  0.
         24    2    3    3    0    0 -0.50389335686E+02 -0.90991546118E+02  0.21659477516E+03  0.25181323644E+03  0.75352921692E+02 0.  0.
         -6    2    1    2    0  502  0.12929347792E+02  0.57672866836E+02  0.29744167138E+03  0.34652125453E+03  0.16766664655E+03 0.  0.
        -24    2    5    5    0    0  0.36942844760E+02 -0.26130910178E+02  0.18772743467E+03  0.20631061009E+03  0.72628368158E+02 0.  0.
          5    1    3    3  501    0  0.37459987893E+02  0.33318679282E+02  0.52911896225E+02  0.73042069003E+02  0.47000000000E+01 0. -1.
        -13    1    4    4    0    0 -0.12998868220E+01 -0.12075423038E+02  0.10884025889E+03  0.10951578655E+03  0.00000000000E+00 0.  1.
         14    1    4    4    0    0 -0.49089448864E+02 -0.78916123080E+02  0.10775451626E+03  0.14229744990E+03  0.00000000000E+00 0. -1.
         -5    1    5    5    0  502 -0.24013496968E+02  0.83803777013E+02  0.10971423671E+03  0.14021064445E+03  0.47000000000E+01 0.  1.
         13    1    6    6    0    0  0.16898980161E+02 -0.77575066067E+01  0.17552521023E+03  0.17650737623E+03  0.00000000000E+00 0. -1.
        -14    1    6    6    0    0  0.20043864600E+02 -0.18373403571E+02  0.12202224443E+02  0.29803233855E+02  0.00000000000E+00 0.  1.
</event>
<event>
12    1  0.9028446E-003  0.2457186E+03  0.7818608E-02  0.1116050E+00
         21   -1    0    0  501  502  0.00000000000E+00  0.00000000000E+00  0.24359705212E+03  0.24359705212E+03  0.00000000000E+00 0. -1.
         21   -1    0    0  502  503 -0.00000000000E+00 -0.00000000000E+00 -0.28000603427E+03  0.28000603427E+03  0.00000000000E+00 0. -1.
          6    2    1    2  501    0  0.17565485239E+03  0.72221162800E+01  0.70581783078E+02  0.25565485860E+03  0.17167070947E+03 0.  0.
         24    2    3    3    0    0  0.11459737449E+03  0.60902789507E+02  0.40048810110E+01  0.15046833772E+03  0.76045864935E+02 0.  0.
         -6    2    1    2    0  503 -0.17565485239E+03 -0.72221162800E+01 -0.10699076523E+03  0.26794822780E+03  0.17158800309E+03 0.  0.
        -24    2    5    5    0    0 -0.87873583443E+02 -0.73148721128E+02 -0.53832537758E+02  0.14588367294E+03  0.72880737094E+02 0.  0.
          5    1    3    3  501    0  0.61057477899E+02 -0.53680673227E+02  0.66576902067E+02  0.10518652088E+03  0.47000000000E+01 0. -1.
        -13    1    4    4    0    0  0.20634692288E+02  0.50716764625E+02  0.10424704915E+02  0.55737377158E+02  0.00000000000E+00 0.  1.
         14    1    4    4    0    0  0.93962682204E+02  0.10186024882E+02 -0.64198239038E+01  0.94730960561E+02  0.00000000000E+00 0. -1.
         -5    1    5    5    0  503 -0.87781268949E+02  0.65926604848E+02 -0.53158227468E+02  0.12206455486E+03  0.47000000000E+01 0.  1.
         13    1    6    6    0    0 -0.97671989276E+01 -0.26557064709E+02 -0.46768825042E+02  0.54662591017E+02  0.00000000000E+00 0. -1.
        -14    1    6    6    0    0 -0.78106384515E+02 -0.46591656419E+02 -0.70637127154E+01  0.91221081923E+02  0.00000000000E+00 0.  1.
</event>
<event>
12    1  0.9028446E-003  0.2093871E+03  0.7818608E-02  0.1142248E+00
         21   -1    0    0  501  502  0.00000000000E+00  0.00000000000E+00  0.17097902363E+03  0.17097902363E+03  0.00000000000E+00 0. -1.
         21   -1    0    0  502  503 -0.00000000000E+00 -0.00000000000E+00 -0.33654515236E+03  0.33654515236E+03  0.00000000000E+00 0.  1.
          6    2    1    2  501    0  0.52975346868E+02  0.10636935182E+03  0.41810615049E+02  0.21352070811E+03  0.17240109883E+03 0.  0.
         24    2    3    3    0    0 -0.16473965511E+01 -0.10444901638E+02  0.13413323066E+02  0.81393080031E+02  0.79580816506E+02 0.  0.
         -6    2    1    2    0  503 -0.52975346868E+02 -0.10636935182E+03 -0.20737674378E+03  0.29400346788E+03  0.17120776525E+03 0.  0.
        -24    2    5    5    0    0 -0.12244043983E+02  0.11283535623E+02 -0.54251617320E+02  0.96593652237E+02  0.78165599091E+02 0.  0.
          5    1    3    3  501    0  0.54622743419E+02  0.11681425346E+03  0.28397291983E+02  0.13212762808E+03  0.47000000000E+01 0. -1.
        -13    1    4    4    0    0 -0.31923233919E+02 -0.11808518157E+02  0.31267051419E+02  0.46218637684E+02  0.00000000000E+00 0.  1.
         14    1    4    4    0    0  0.30275837368E+02  0.13636165188E+01 -0.17853728353E+02  0.35174442348E+02  0.00000000000E+00 0. -1.
         -5    1    5    5    0  503 -0.40731302885E+02 -0.11765288744E+03 -0.15312512646E+03  0.19740981564E+03  0.47000000000E+01 0.  1.
         11    1    6    6    0    0 -0.34652076308E+02 -0.12677996386E+02 -0.47432159414E+01  0.37202097821E+02  0.00000000000E+00 0. -1.
        -12    1    6    6    0    0  0.22408032324E+02  0.23961532009E+02 -0.49508401379E+02  0.59391554416E+02  0.00000000000E+00 0.  1.
</event>
<event>
12    1  0.9028446E-003  0.2348027E+03  0.7818608E-02  0.1123445E+00
         21   -1    0    0  501  502  0.00000000000E+00  0.00000000000E+00  0.30572297852E+02  0.30572297852E+02  0.00000000000E+00 0. -1.
         21   -1    0    0  502  503 -0.00000000000E+00 -0.00000000000E+00 -0.17978862101E+04  0.17978862101E+04  0.00000000000E+00 0.  1.
          6    2    1    2  501    0 -0.71336896380E+02 -0.14028086331E+03 -0.90184974213E+03  0.93170852481E+03  0.17314775317E+03 0.  0.
         24    2    3    3    0    0 -0.27477205667E+01 -0.14075940663E+03 -0.70160534952E+03  0.71999029032E+03  0.79468177048E+02 0.  0.
         -6    2    1    2    0  503  0.71336896380E+02  0.14028086331E+03 -0.86546417011E+03  0.89674998314E+03  0.17425449524E+03 0.  0.
        -24    2    5    5    0    0  0.80031305407E+02  0.14056668708E+03 -0.86786602712E+03  0.88657484871E+03  0.81605869701E+02 0.  0.
          5    1    3    3  501    0 -0.68589175813E+02  0.47854331758E+00 -0.20024439261E+03  0.21171823449E+03  0.47000000000E+01 0. -1.
        -13    1    4    4    0    0  0.12605029666E+02  0.55016146707E+01 -0.83880073760E+02  0.85000125357E+02  0.00000000000E+00 0.  1.
         14    1    4    4    0    0 -0.15352750233E+02 -0.14626102130E+03 -0.61772527576E+03  0.63499016497E+03  0.00000000000E+00 0. -1.
         -5    1    5    5    0  503 -0.86944090272E+01 -0.28582377108E+00  0.24018570075E+01  0.10175134429E+02  0.47000000000E+01 0.  1.
         13    1    6    6    0    0  0.27056242418E+02  0.16409942145E+02 -0.63354562530E+02  0.70817561723E+02  0.00000000000E+00 0. -1.
        -14    1    6    6    0    0  0.52975062988E+02  0.12415674494E+03 -0.80451146459E+03  0.81575728699E+03  0.00000000000E+00 0.  1.
</event>
<event>
12    1  0.9028446E-003  0.2100217E+03  0.7818608E-02  0.1141574E+00
         21   -1    0    0  503  502  0.00000000000E+00  0.00000000000E+00  0.30904988359E+03  0.30904988359E+03  0.00000000000E+00 0.  1.
         21   -1    0    0  501  503 -0.00000000000E+00 -0.00000000000E+00 -0.14801495096E+03  0.14801495096E+03  0.00000000000E+00 0.  1.
          6    2    1    2  501    0 -0.12120131175E+03  0.21831269143E+01  0.36985796672E+02  0.21325355060E+03  0.17150686189E+03 0.  0.
         24    2    3    3    0    0 -0.91701915304E+02 -0.47594046569E+02  0.67351462285E+02  0.14773908625E+03  0.81339926211E+02 0.  0.
         -6    2    1    2    0  502  0.12120131175E+03 -0.21831269143E+01  0.12404913596E+03  0.24381128395E+03  0.17135118919E+03 0.  0.
        -24    2    5    5    0    0  0.32927859702E+02  0.42954949103E+02  0.13431121919E+02  0.95190682168E+02  0.77145961259E+02 0.  0.
          5    1    3    3  501    0 -0.29499396443E+02  0.49777173483E+02 -0.30365665613E+02  0.65514464346E+02  0.47000000000E+01 0. -1.
        -13    1    4    4    0    0 -0.94979043448E+02 -0.13238802461E+02  0.57642976647E+02  0.11188832531E+03  0.00000000000E+00 0.  1.
         14    1    4    4    0    0  0.32771281439E+01 -0.34355244108E+02  0.97084856378E+01  0.35850760940E+02  0.00000000000E+00 0. -1.
         -5    1    5    5    0  502  0.88273452045E+02 -0.45138076017E+02  0.11061801405E+03  0.14862060178E+03  0.47000000000E+01 0.  1.
         11    1    6    6    0    0  0.40416516141E+02  0.53019885831E+02  0.31064482778E+02  0.73550018088E+02  0.00000000000E+00 0. -1.
        -12    1    6    6    0    0 -0.74886564389E+01 -0.10064936728E+02 -0.17633360860E+02  0.21640664080E+02  0.00000000000E+00 0.  1.
</event>
<event>
12    1  0.9028446E-003  0.1798988E+03  0.7818608E-02  0.1168286E+00
         21   -1    0    0  503  502  0.00000000000E+00  0.00000000000E+00  0.18573990120E+03  0.18573990120E+03  0.00000000000E+00 0.  1.
         21   -1    0    0  501  503 -0.00000000000E+00 -0.00000000000E+00 -0.17271091201E+03  0.17271091201E+03  0.00000000000E+00 0.  1.
          6    2    1    2  501    0 -0.36948921749E+02  0.39106953593E+02  0.62262500483E+01  0.18000647184E+03  0.17166533452E+03 0.  0.
         24    2    3    3    0    0  0.32611067786E+02  0.62221452605E+02 -0.66244915052E+01  0.10544036850E+03  0.78350472337E+02 0.  0.
         -6    2    1    2    0  502  0.36948921749E+02 -0.39106953593E+02  0.68027391449E+01  0.17844434138E+03  0.17000449721E+03 0.  0.
        -24    2    5    5    0    0  0.10270184411E+02  0.27094937311E+02  0.50294412604E+02  0.94730178622E+02  0.74864320520E+02 0.  0.
          5    1    3    3  501    0 -0.69559989535E+02 -0.23114499012E+02  0.12850741553E+02  0.74566103339E+02  0.47000000000E+01 0. -1.
        -13    1    4    4    0    0  0.49359941707E+02  0.13084569816E+02 -0.14139697764E+02  0.52986232792E+02  0.00000000000E+00 0.  1.
         14    1    4    4    0    0 -0.16748873921E+02  0.49136882788E+02  0.75152062588E+01  0.52454135708E+02  0.00000000000E+00 0. -1.
         -5    1    5    5    0  502  0.26678737338E+02 -0.66201890903E+02 -0.43491673459E+02  0.83714162753E+02  0.47000000000E+01 0.  1.
         11    1    6    6    0    0 -0.74369661743E+01  0.18435861175E+02 -0.16030970471E+02  0.25537843632E+02  0.00000000000E+00 0. -1.
        -12    1    6    6    0    0  0.17707150585E+02  0.86590761359E+01  0.66325383075E+02  0.69192334990E+02  0.00000000000E+00 0.  1.
</event>
<event>
12    1  0.9028446E-003  0.1785211E+03  0.7818608E-02  0.1170090E+00
         21   -1    0    0  503  502  0.00000000000E+00  0.00000000000E+00  0.64764173706E+03  0.64764173706E+03  0.00000000000E+00 0. -1.
         21   -1    0    0  501  503 -0.00000000000E+00 -0.00000000000E+00 -0.53523321656E+02  0.53523321656E+02  0.00000000000E+00 0. -1.
          6    2    1    2  501    0  0.19432797628E+02  0.25689846794E+02  0.18980849043E+03  0.26057064158E+03  0.17559098599E+03 0.  0.
         24    2    3    3    0    0  0.46110877082E+02  0.32711698744E+01  0.30560585839E+02  0.97486914264E+02  0.80204959374E+02 0.  0.
         -6    2    1    2    0  502 -0.19432797628E+02 -0.25689846794E+02  0.40430992497E+03  0.44059441713E+03  0.17210265288E+03 0.  0.
        -24    2    5    5    0    0 -0.39788573911E+02 -0.79791212272E+02  0.25986799333E+03  0.28494456333E+03  0.75579508084E+02 0.  0.
          5    1    3    3  501    0 -0.26678079454E+02  0.22418676919E+02  0.15924790459E+03  0.16308372732E+03  0.47000000000E+01 0. -1.
        -11    1    4    4    0    0  0.19892011288E+02 -0.78645138043E+01 -0.26293852910E+02  0.33895565953E+02  0.00000000000E+00 0.  1.
         12    1    4    4    0    0  0.26218865794E+02  0.11135683679E+02  0.56854438749E+02  0.63591348311E+02  0.00000000000E+00 0. -1.
         -5    1    5    5    0  502  0.20355776284E+02  0.54101365478E+02  0.14444193164E+03  0.15564985381E+03  0.47000000000E+01 0.  1.
         11    1    6    6    0    0 -0.40288958209E+02 -0.30476700549E+02  0.56983647935E+02  0.76152252507E+02  0.00000000000E+00 0. -1.
        -12    1    6    6    0    0  0.50038429765E+00 -0.49314511722E+02  0.20288434539E+03  0.20879231082E+03  0.00000000000E+00 0.  1.
</event>
<event>
12    1  0.9028446E-003  0.2401952E+03  0.7818608E-02  0.1119991E+00
         21   -1    0    0  501  502  0.00000000000E+00  0.00000000000E+00  0.10516177900E+03  0.10516177900E+03  0.00000000000E+00 0.  1.
         21   -1    0    0  502  503 -0.00000000000E+00 -0.00000000000E+00 -0.54778549600E+03  0.54778549600E+03  0.00000000000E+00 0.  1.
          6    2    1    2  501    0 -0.65803782041E+02  0.15281220309E+03 -0.19379654946E+03  0.30710239209E+03  0.17050826813E+03 0.  0.
         24    2    3    3    0    0  0.28014284218E+02  0.89928921243E+02 -0.87651399198E+02  0.15203782613E+03  0.80998282680E+02 0.  0.
         -6    2    1    2    0  503  0.65803782041E+02 -0.15281220309E+03 -0.24882716754E+03  0.34584488292E+03  0.17323976619E+03 0.  0.
        -24    2    5    5    0    0  0.10557119359E+01 -0.12456395104E+03 -0.22782138334E+03  0.27199632642E+03  0.81006953125E+02 0.  0.
          5    1    3    3  501    0 -0.93818066259E+02  0.62883281851E+02 -0.10614515026E+03  0.15506456596E+03  0.47000000000E+01 0. -1.
        -13    1    4    4    0    0  0.66471229682E+01  0.31054365278E+02 -0.83422817763E+02  0.89263230784E+02  0.00000000000E+00 0.  1.
         14    1    4    4    0    0  0.21367161250E+02  0.58874555965E+02 -0.42285814350E+01  0.62774595346E+02  0.00000000000E+00 0. -1.
         -5    1    5    5    0  503  0.64748070105E+02 -0.28248252055E+02 -0.21005784202E+02  0.73848556495E+02  0.47000000000E+01 0.  1.
         13    1    6    6    0    0 -0.30079845870E+02 -0.70185688004E+02 -0.75921712646E+02  0.10767977702E+03  0.00000000000E+00 0. -1.
        -14    1    6    6    0    0  0.31135557806E+02 -0.54378263034E+02 -0.15189967069E+03  0.16431654940E+03  0.00000000000E+00 0.  1.
</event>
<event>
12    1  0.9028446E-003  0.3315234E+03  0.7818608E-02  0.1070609E+00
         21   -1    0    0  501  502  0.00000000000E+00  0.00000000000E+00  0.21097761351E+03  0.21097761351E+03  0.00000000000E+00 0.  1.
         21   -1    0    0  502  503 -0.00000000000E+00 -0.00000000000E+00 -0.81112900727E+03  0.81112900727E+03  0.00000000000E+00 0. -1.
          6    2    1    2  501    0 -0.25302268253E+03  0.12549784667E+03  0.70538612400E+01  0.33029307994E+03  0.17109521999E+03 0.  0.
         24    2    3    3    0    0 -0.26667550851E+03  0.11894397906E+03 -0.14690290128E+02  0.30338116889E+03  0.80998963070E+02 0.  0.
         -6    2    1    2    0  503  0.25302268253E+03 -0.12549784667E+03 -0.60720525500E+03  0.69181354084E+03  0.17360174594E+03 0.  0.
        -24    2    5    5    0    0  0.18759354308E+03 -0.69591140454E+02 -0.54269893769E+03  0.58415813195E+03  0.81757702513E+02 0.  0.
          5    1    3    3  501    0  0.13652825979E+02  0.65538676096E+01  0.21744151368E+02  0.26911911053E+02  0.47000000000E+01 0. -1.
        -11    1    4    4    0    0 -0.22634089383E+03  0.84408171919E+02  0.15917218598E+02  0.24209150657E+03  0.00000000000E+00 0.  1.
         12    1    4    4    0    0 -0.40334614677E+02  0.34535807145E+02 -0.30607508726E+02  0.61289662315E+02  0.00000000000E+00 0. -1.
         -5    1    5    5    0  503  0.65429139455E+02 -0.55906706220E+02 -0.64506317309E+02  0.10765540889E+03  0.47000000000E+01 0.  1.
         11    1    6    6    0    0  0.70593091723E+02 -0.68594658429E+02 -0.22455125028E+03  0.24517723338E+03  0.00000000000E+00 0. -1.
        -12    1    6    6    0    0  0.11700045135E+03 -0.99648202455E+00 -0.31814768741E+03  0.33898089857E+03  0.00000000000E+00 0.  1.
</event>
<event>
12    1  0.9028446E-003  0.1760644E+03  0.7818608E-02  0.1171710E+00
         21   -1    0    0  501  502  0.00000000000E+00  0.00000000000E+00  0.68219056240E+03  0.68219056240E+03  0.00000000000E+00 0.  1.
         21   -1    0    0  502  503 -0.00000000000E+00 -0.00000000000E+00 -0.46234728889E+02  0.46234728889E+02  0.00000000000E+00 0.  1.
          6    2    1    2  501    0  0.94958536263E+01 -0.34063202479E+02  0.26906958712E+03  0.32155423728E+03  0.17247669930E+03 0.  0.
         24    2    3    3    0    0 -0.59622772977E+02 -0.69816146732E+01  0.17739533192E+03  0.20349892817E+03  0.79618414827E+02 0.  0.
         -6    2    1    2    0  503 -0.94958536263E+01  0.34063202479E+02  0.36688624639E+03  0.40687105401E+03  0.17230224549E+03 0.  0.
        -24    2    5    5    0    0  0.76723503832E+01 -0.36660851549E+02  0.11781224449E+03  0.14733957717E+03  0.80164475003E+02 0.  0.
          5    1    3    3  501    0  0.69118626603E+02 -0.27081587806E+02  0.91674255195E+02  0.11805530910E+03  0.47000000000E+01 0. -1.
        -13    1    4    4    0    0  0.66064980733E+00 -0.22852421113E+02  0.10150249521E+02  0.25013939598E+02  0.00000000000E+00 0.  1.
         14    1    4    4    0    0 -0.60283422784E+02  0.15870806440E+02  0.16724508240E+03  0.17848498858E+03  0.00000000000E+00 0. -1.
         -5    1    5    5    0  503 -0.17168204010E+02  0.70724054028E+02  0.24907400190E+03  0.25953147684E+03  0.47000000000E+01 0.  1.
         11    1    6    6    0    0 -0.20961360986E+02 -0.15185787734E+02  0.18170038182E+01  0.25947799644E+02  0.00000000000E+00 0. -1.
        -12    1    6    6    0    0  0.28633711369E+02 -0.21475063815E+02  0.11599524067E+03  0.12139177753E+03  0.00000000000E+00 0.  1.
</event>
<event>
12    1  0.9028446E-003  0.2649789E+03  0.7818608E-02  0.1104299E+00
         21   -1    0    0  503  502  0.00000000000E+00  0.00000000000E+00  0.73818173706E+03  0.73818173706E+03  0.00000000000E+00 0.  1.
         21   -1    0    0  501  503 -0.00000000000E+00 -0.00000000000E+00 -0.95841128125E+02  0.95841128125E+02  0.00000000000E+00 0. -1.
          6    2    1    2  501    0  0.18858022362E+03 -0.69571586885E+02  0.27913161885E+03  0.38487436086E+03  0.17265893131E+03 0.  0.
         24    2    3    3    0    0  0.14049853382E+03 -0.62485067235E+02  0.10084441389E+03  0.20002175713E+03  0.78707597320E+02 0.  0.
         -6    2    1    2    0  502 -0.18858022362E+03  0.69571586885E+02  0.36320899008E+03  0.44914850433E+03  0.17149607000E+03 0.  0.
        -24    2    5    5    0    0 -0.13145148570E+03  0.78115565842E+02  0.34983304404E+03  0.38966995186E+03  0.77961387577E+02 0.  0.
          5    1    3    3  501    0  0.48081689793E+02 -0.70865196501E+01  0.17828720496E+03  0.18485260373E+03  0.47000000000E+01 0. -1.
        -13    1    4    4    0    0  0.10931173594E+03 -0.10667366166E+02  0.80645174256E+02  0.13625891694E+03  0.00000000000E+00 0.  1.
         14    1    4    4    0    0  0.31186797881E+02 -0.51817701069E+02  0.20199239639E+02  0.63762840182E+02  0.00000000000E+00 0. -1.
         -5    1    5    5    0  502 -0.57128737913E+02 -0.85439789569E+01  0.13375946035E+02  0.59478552473E+02  0.47000000000E+01 0.  1.
         13    1    6    6    0    0 -0.62491310594E+02  0.34084040481E+01  0.81750388774E+02  0.10295585065E+03  0.00000000000E+00 0. -1.
        -14    1    6    6    0    0 -0.68960175110E+02  0.74707161794E+02  0.26808265527E+03  0.28671410121E+03  0.00000000000E+00 0.  1.
</event>
<event>
12    1  0.9028446E-003  0.1751404E+03  0.7818608E-02  0.1172815E+00
         21   -1    0    0  501  502  0.00000000000E+00  0.00000000000E+00  0.28639377134E+03  0.28639377134E+03  0.00000000000E+00 0.  1.
         21   -1    0    0  502  503 -0.00000000000E+00 -0.00000000000E+00 -0.12858421152E+03  0.12858421152E+03  0.00000000000E+00 0.  1.
          6    2    1    2  501    0 -0.28089712056E+02  0.13814628002E+02 -0.68003617956E+01  0.17527236126E+03  0.17232028270E+03 0.  0.
         24    2    3    3    0    0 -0.89466917251E+01 -0.35332396518E+02  0.47041333006E+02  0.99754791475E+02  0.80060663716E+02 0.  0.
         -6    2    1    2    0  503  0.28089712056E+02 -0.13814628002E+02  0.16460992162E+03  0.23970562160E+03  0.17141319337E+03 0.  0.
        -24    2    5    5    0    0 -0.21829718041E+02  0.11722056950E+02  0.20748696856E+02  0.85231631004E+02  0.78866845338E+02 0.  0.
          5    1    3    3  501    0 -0.19143020331E+02  0.49147024520E+02 -0.53841694802E+02  0.75517569782E+02  0.47000000000E+01 0. -1.
        -11    1    4    4    0    0 -0.18746126984E+01 -0.61136615201E+02  0.31239919253E+02  0.68681383548E+02  0.00000000000E+00 0.  1.
         12    1    4    4    0    0 -0.70720790267E+01  0.25804218684E+02  0.15801413753E+02  0.31073407927E+02  0.00000000000E+00 0. -1.
         -5    1    5    5    0  503  0.49919430097E+02 -0.25536684953E+02  0.14386122477E+03  0.15447399060E+03  0.47000000000E+01 0.  1.
         11    1    6    6    0    0  0.26127390970E+02 -0.15756705790E+01 -0.84828287743E+01  0.27515117312E+02  0.00000000000E+00 0. -1.
        -12    1    6    6    0    0 -0.47957109011E+02  0.13297727529E+02  0.29231525630E+02  0.57716513693E+02  0.00000000000E+00 0.  1.
</event>
<event>
12    1  0.9028446E-003  0.2370108E+03  0.7818608E-02  0.1122404E+00
         21   -1    0    0  501  502  0.00000000000E+00  0.00000000000E+00  0.62072761847E+02  0.62072761847E+02  0.00000000000E+00 0.  1.
         21   -1    0    0  502  503 -0.00000000000E+00 -0.00000000000E+00 -0.94670066284E+03  0.94670066284E+03  0.00000000000E+00 0. -1.
          6    2    1    2  501    0 -0.14490314973E+03 -0.72052017681E+02 -0.31740185209E+03  0.39402183908E+03  0.16828802070E+03 0.  0.
         24    2    3    3    0    0 -0.10673688407E+03 -0.88316344933E+02 -0.14365525524E+03  0.21532891227E+03  0.80852760617E+02 0.  0.
         -6    2    1    2    0  503  0.14490314973E+03  0.72052017681E+02 -0.56722604891E+03  0.61475158561E+03  0.17316381087E+03 0.  0.
        -24    2    5    5    0    0  0.95959540294E+02  0.82332226381E+02 -0.53384093742E+03  0.55443728163E+03  0.80173087285E+02 0.  0.
          5    1    3    3  501    0 -0.38166265659E+02  0.16264327252E+02 -0.17374659685E+03  0.17869292681E+03  0.47000000000E+01 0. -1.
        -13    1    4    4    0    0 -0.24073932613E+02 -0.66948971272E+02 -0.89049570735E+02  0.11398045900E+03  0.00000000000E+00 0.  1.
         14    1    4    4    0    0 -0.82662951454E+02 -0.21367373661E+02 -0.54605684504E+02  0.10134845327E+03  0.00000000000E+00 0. -1.
         -5    1    5    5    0  503  0.48943609433E+02 -0.10280208700E+02 -0.33385111493E+02  0.60314303981E+02  0.47000000000E+01 0.  1.
         13    1    6    6    0    0  0.50371371513E+02  0.11262272392E+02 -0.32664340671E+03  0.33069627908E+03  0.00000000000E+00 0. -1.
        -14    1    6    6    0    0  0.45588168781E+02  0.71069953989E+02 -0.20719753070E+03  0.22374100255E+03  0.00000000000E+00 0.  1.
</event>
<event>
12    1  0.9028446E-003  0.1959094E+03  0.7818608E-02  0.1155146E+00
         21   -1    0    0  503  502  0.00000000000E+00  0.00000000000E+00  0.22945599179E+03  0.22945599179E+03  0.00000000000E+00 0.  1.
         21   -1    0    0  501  503 -0.00000000000E+00 -0.00000000000E+00 -0.18133949061E+03  0.18133949061E+03  0.00000000000E+00 0.  1.
          6    2    1    2  501    0 -0.58498912027E+02 -0.70050605652E+02 -0.46853517752E+02  0.19308049380E+03  0.16357143669E+03 0.  0.
         24    2    3    3    0    0 -0.56421339491E+00 -0.74292966061E+02  0.11403758625E+02  0.11067644549E+03  0.81237101944E+02 0.  0.
         -6    2    1    2    0  502  0.58498912027E+02  0.70050605652E+02  0.94970018933E+02  0.21771498860E+03  0.17335311276E+03 0.  0.
        -24    2    5    5    0    0  0.10444123473E+03  0.66921969089E+02  0.59106379580E+02  0.15915923731E+03  0.80321710975E+02 0.  0.
          5    1    3    3  501    0 -0.57934698632E+02  0.42423604084E+01 -0.58257276378E+02  0.82404048313E+02  0.47000000000E+01 0. -1.
        -11    1    4    4    0    0 -0.28861494191E+02 -0.36497814999E+02  0.34683517323E+02  0.58034668264E+02  0.00000000000E+00 0.  1.
         12    1    4    4    0    0  0.28297280796E+02 -0.37795151061E+02 -0.23279758698E+02  0.52641777223E+02  0.00000000000E+00 0. -1.
         -5    1    5    5    0  502 -0.45942322704E+02  0.31286365628E+01  0.35863639353E+02  0.58555751296E+02  0.47000000000E+01 0.  1.
         13    1    6    6    0    0  0.43098006523E+01  0.29350232874E+00  0.36531112355E+02  0.36785631640E+02  0.00000000000E+00 0. -1.
        -14    1    6    6    0    0  0.10013143408E+03  0.66628466761E+02  0.22575267226E+02  0.12237360567E+03  0.00000000000E+00 0.  1.
</event>
<event>
12    1  0.9028446E-003  0.1931925E+03  0.7818608E-02  0.1156147E+00
         21   -1    0    0  503  502  0.00000000000E+00  0.00000000000E+00  0.12986203121E+03  0.12986203121E+03  0.00000000000E+00 0.  1.
         21   -1    0    0  501  503 -0.00000000000E+00 -0.00000000000E+00 -0.33217425390E+03  0.33217425390E+03  0.00000000000E+00 0. -1.
          6    2    1    2  501    0  0.77509105934E+02 -0.29764035538E+02 -0.18873599551E+03  0.26836738940E+03  0.17177374765E+03 0.  0.
         24    2    3    3    0    0  0.26777718956E+02  0.39185367899E+02 -0.14415192237E+03  0.17173652768E+03  0.80381085638E+02 0.  0.
         -6    2    1    2    0  502 -0.77509105934E+02  0.29764035538E+02 -0.13576227186E+02  0.19366889570E+03  0.17444130218E+03 0.  0.
        -24    2    5    5    0    0 -0.52279304121E+02  0.28717910128E+02  0.57719336647E+02  0.11788773248E+03  0.83714703871E+02 0.  0.
          5    1    3    3  501    0  0.50731386978E+02 -0.68949403437E+02 -0.44584073140E+02  0.96630861720E+02  0.47000000000E+01 0. -1.
        -13    1    4    4    0    0  0.39945959125E+02  0.32857755681E+02 -0.37004124120E+02  0.63597303093E+02  0.00000000000E+00 0.  1.
         14    1    4    4    0    0 -0.13168240169E+02  0.63276122184E+01 -0.10714779825E+03  0.10813922459E+03  0.00000000000E+00 0. -1.
         -5    1    5    5    0  502 -0.25229801813E+02  0.10461254093E+01 -0.71295563832E+02  0.75781163227E+02  0.47000000000E+01 0.  1.
         13    1    6    6    0    0  0.38167622902E+01 -0.22601788702E+02  0.84122909495E+00  0.22937222877E+02  0.00000000000E+00 0. -1.
        -14    1    6    6    0    0 -0.56096066411E+02  0.51319698830E+02  0.56878107552E+02  0.94950509601E+02  0.00000000000E+00 0.  1.
</event>
<event>
12    1  0.9028446E-003  0.1931138E+03  0.7818608E-02  0.1155851E+00
         21   -1    0    0  501  502  0.00000000000E+00  0.00000000000E+00  0.45021221004E+02  0.45021221004E+02  0.00000000000E+00 0.  1.
         21   -1    0    0  502  503 -0.00000000000E+00 -0.00000000000E+00 -0.91613889343E+03  0.91613889343E+03  0.00000000000E+00 0.  1.
          6    2    1    2  501    0  0.83536924543E+02 -0.24819888392E+02 -0.28482225652E+03  0.34411722511E+03  0.17233253375E+03 0.  0.
         24    2    3    3    0    0  0.10929238496E+03  0.24338293456E+01 -0.14148102640E+03  0.19587786757E+03  0.80003182683E+02 0.  0.
         -6    2    1    2    0  503 -0.83536924543E+02  0.24819888392E+02 -0.58629541592E+03  0.61704288933E+03  0.17147935131E+03 0.  0.
        -24    2    5    5    0    0 -0.53933849971E+02 -0.52228368577E+02 -0.31768407151E+03  0.33599677163E+03  0.79586422222E+02 0.  0.
          5    1    3    3  501    0 -0.25755460416E+02 -0.27253717738E+02 -0.14334123012E+03  0.14823935754E+03  0.47000000000E+01 0. -1.
        -11    1    4    4    0    0  0.24108822890E+02  0.31200346691E+02 -0.18547344520E+02  0.43574085917E+02  0.00000000000E+00 0.  1.
         12    1    4    4    0    0  0.85183562068E+02 -0.28766517345E+02 -0.12293368188E+03  0.15230378166E+03  0.00000000000E+00 0. -1.
         -5    1    5    5    0  503 -0.29603074572E+02  0.77048256969E+02 -0.26861134441E+03  0.28104611769E+03  0.47000000000E+01 0.  1.
         11    1    6    6    0    0 -0.27593514970E+02 -0.49945148334E+02 -0.29699015915E+03  0.30242201398E+03  0.00000000000E+00 0. -1.
        -12    1    6    6    0    0 -0.26340335001E+02 -0.22832202426E+01 -0.20693912360E+02  0.33574757652E+02  0.00000000000E+00 0.  1.
</event>
<event>
12    1  0.9028446E-003  0.1830921E+03  0.7818608E-02  0.1164942E+00
         21   -1    0    0  501  502  0.00000000000E+00  0.00000000000E+00  0.16140311124E+03  0.16140311124E+03  0.00000000000E+00 0.  1.
         21   -1    0    0  502  503 -0.00000000000E+00 -0.00000000000E+00 -0.45458271064E+03  0.45458271064E+03  0.00000000000E+00 0. -1.
          6    2    1    2  501    0 -0.62415132268E+02  0.18072374208E+01  0.80680670666E+02  0.19969957945E+03  0.17167305139E+03 0.  0.
         24    2    3    3    0    0 -0.98769331244E+02  0.63218283288E+01  0.97582519490E+02  0.15908219638E+03  0.77391542088E+02 0.  0.
         -6    2    1    2    0  503  0.62415132268E+02 -0.18072374208E+01 -0.37386027007E+03  0.41628624243E+03  0.17211571474E+03 0.  0.
        -24    2    5    5    0    0  0.74868117768E+02 -0.51314201039E+02 -0.31769894899E+03  0.34024546206E+03  0.81215577180E+02 0.  0.
          5    1    3    3  501    0  0.36354198976E+02 -0.45145909080E+01 -0.16901848824E+02  0.40617383076E+02  0.47000000000E+01 0. -1.
        -13    1    4    4    0    0 -0.98259412933E+02 -0.21336217903E+01  0.49099195351E+02  0.10986444173E+03  0.00000000000E+00 0.  1.
         14    1    4    4    0    0 -0.50991831103E+00  0.84554501191E+01  0.48483324139E+02  0.49217754651E+02  0.00000000000E+00 0. -1.
         -5    1    5    5    0  503 -0.12452985500E+02  0.49506963618E+02 -0.56161321078E+02  0.76040780373E+02  0.47000000000E+01 0.  1.
         13    1    6    6    0    0  0.13562360430E+02  0.15918796463E+01 -0.17987615497E+03  0.18039374387E+03  0.00000000000E+00 0. -1.
        -14    1    6    6    0    0  0.61305757338E+02 -0.52906080685E+02 -0.13782279402E+03  0.15985171819E+03  0.00000000000E+00 0.  1.
</event>
<event>
12    1  0.9028446E-003  0.2535121E+03  0.7818608E-02  0.1111152E+00
         21   -1    0    0  503  502  0.00000000000E+00  0.00000000000E+00  0.27615271016E+04  0.27615271016E+04  0.00000000000E+00 0. -1.
         21   -1    0    0  501  503 -0.00000000000E+00 -0.00000000000E+00 -0.26901369175E+02  0.26901369175E+02  0.00000000000E+00 0. -1.
          6    2    1    2  501    0 -0.17487569462E+03 -0.62283054421E+02  0.85260589339E+03  0.88941107666E+03  0.17220501273E+03 0.  0.
         24    2    3    3    0    0 -0.11425411509E+03 -0.10639656116E+03  0.64828455158E+03  0.67171799432E+03  0.80981312847E+02 0.  0.
         -6    2    1    2    0  502  0.17487569462E+03  0.62283054421E+02  0.18820198391E+04  0.18990173941E+04  0.17264906947E+03 0.  0.
        -24    2    5    5    0    0  0.13422932197E+03  0.58500779199E+02  0.17969072840E+04  0.18045045895E+04  0.76949165832E+02 0.  0.
          5    1    3    3  501    0 -0.60621579532E+02  0.44113506740E+02  0.20432134180E+03  0.21769308234E+03  0.47000000000E+01 0. -1.
        -11    1    4    4    0    0 -0.11985944453E+03 -0.72301144774E+02  0.48377547921E+03  0.50361935652E+03  0.00000000000E+00 0.  1.
         12    1    4    4    0    0  0.56053294400E+01 -0.34095416387E+02  0.16450907237E+03  0.16809863779E+03  0.00000000000E+00 0. -1.
         -5    1    5    5    0  502  0.40646372652E+02  0.37822752219E+01  0.85112555074E+02  0.94512804671E+02  0.47000000000E+01 0.  1.
         11    1    6    6    0    0  0.57164535854E+02 -0.11748068266E+02  0.81131727168E+03  0.81341349669E+03  0.00000000000E+00 0. -1.
        -12    1    6    6    0    0  0.77064786111E+02  0.70248847465E+02  0.98559001231E+03  0.99109109279E+03  0.00000000000E+00 0.  1.
</event>
<event>
12    1  0.9028446E-003  0.1981050E+03  0.7818608E-02  0.1151874E+00
         21   -1    0    0  503  502  0.00000000000E+00  0.00000000000E+00  0.57017533692E+03  0.57017533692E+03  0.00000000000E+00 0.  1.
         21   -1    0    0  501  503 -0.00000000000E+00 -0.00000000000E+00 -0.68272789294E+02  0.68272789294E+02  0.00000000000E+00 0. -1.
          6    2    1    2  501    0 -0.92509432959E+02 -0.52870941830E+01  0.27332032589E+03  0.33756421092E+03  0.17509896459E+03 0.  0.
         24    2    3    3    0    0 -0.11270229921E+03  0.38026484720E+01  0.12190218829E+03  0.18446320615E+03  0.80313526452E+02 0.  0.
         -6    2    1    2    0  502  0.92509432959E+02  0.52870941830E+01  0.22858222174E+03  0.30088391529E+03  0.17232338737E+03 0.  0.
        -24    2    5    5    0    0  0.35471421960E+02 -0.29204410777E+02  0.21344357659E+03  0.23236919286E+03  0.79537173807E+02 0.  0.
          5    1    3    3  501    0  0.20192866247E+02 -0.90897426550E+01  0.15141813760E+03  0.15310100478E+03  0.47000000000E+01 0. -1.
        -11    1    4    4    0    0 -0.62454239040E+02 -0.32941298294E+02  0.90367587298E+02  0.11468200356E+03  0.00000000000E+00 0.  1.
         12    1    4    4    0    0 -0.50248060166E+02  0.36743946766E+02  0.31534600988E+02  0.69781202583E+02  0.00000000000E+00 0. -1.
         -5    1    5    5    0  502  0.57038010999E+02  0.34491504960E+02  0.15138645147E+02  0.68514722433E+02  0.47000000000E+01 0.  1.
         13    1    6    6    0    0  0.17973098016E+02 -0.78794349154E+01  0.26782467765E+01  0.19806331126E+02  0.00000000000E+00 0. -1.
        -14    1    6    6    0    0  0.17498323944E+02 -0.21324975861E+02  0.21076532981E+03  0.21256286173E+03  0.00000000000E+00 0.  1.
</event>
<event>
12    1  0.9028446E-003  0.3123779E+03  0.7818608E-02  0.1080215E+00
         21   -1    0    0  503  502  0.00000000000E+00  0.00000000000E+00  0.12318738913E+03  0.12318738913E+03  0.00000000000E+00 0.  1.
         21   -1    0    0  501  503 -0.00000000000E+00 -0.00000000000E+00 -0.77113615417E+03  0.77113615417E+03  0.00000000000E+00 0. -1.
          6    2    1    2  501    0 -0.16124065672E+03  0.20448468061E+03 -0.32866138773E+03  0.45342946731E+03  0.17253243191E+03 0.  0.
         24    2    3    3    0    0 -0.72450065296E+02  0.39155644609E+02 -0.18474910223E+03  0.21689131988E+03  0.78277949644E+02 0.  0.
         -6    2    1    2    0  502  0.16124065672E+03 -0.20448468061E+03 -0.31928737731E+03  0.44089407598E+03  0.15694146341E+03 0.  0.
        -24    2    5    5    0    0  0.16507476136E+03 -0.18436909337E+03 -0.32765886309E+03  0.41827751163E+03  0.79712651121E+02 0.  0.
          5    1    3    3  501    0 -0.88790591424E+02  0.16532903601E+03 -0.14391228550E+03  0.23653814743E+03  0.47000000000E+01 0. -1.
        -13    1    4    4    0    0 -0.12772008073E+02  0.38640892675E+02 -0.28643082552E+02  0.49766142658E+02  0.00000000000E+00 0.  1.
         14    1    4    4    0    0 -0.59678057223E+02  0.51475193332E+00 -0.15610601968E+03  0.16712517723E+03  0.00000000000E+00 0. -1.
         -5    1    5    5    0  502 -0.38341046412E+01 -0.20115587247E+02  0.83714857769E+01  0.22616564346E+02  0.47000000000E+01 0.  1.
         13    1    6    6    0    0 -0.54597356684E+01 -0.13143837042E+02 -0.40700454576E+02  0.43117237486E+02  0.00000000000E+00 0. -1.
        -14    1    6    6    0    0  0.17053449703E+03 -0.17122525632E+03 -0.28695840851E+03  0.37516027415E+03  0.00000000000E+00 0.  1.
</event>
<event>
12    1  0.9028446E-003  0.1743965E+03  0.7818608E-02  0.1173838E+00
         21   -1    0    0  503  502  0.00000000000E+00  0.00000000000E+00  0.85160486372E+02  0.85160486372E+02  0.00000000000E+00 0.  1.
         21   -1    0    0  501  503 -0.00000000000E+00 -0.00000000000E+00 -0.36511733308E+03  0.36511733308E+03  0.00000000000E+00 0.  1.
          6    2    1    2  501    0 -0.10920206517E+01 -0.10533679688E+02 -0.18001689255E+03  0.24927499959E+03  0.17210401768E+03 0.  0.
         24    2    3    3    0    0  0.26914595634E+02 -0.20479319620E+02 -0.22268104593E+02  0.88682171574E+02  0.78897788832E+02 0.  0.
         -6    2    1    2    0  502  0.10920206517E+01  0.10533679688E+02 -0.99939954160E+02  0.20100281986E+03  0.17407466282E+03 0.  0.
        -24    2    5    5    0    0  0.18158742453E+02 -0.33760390197E+02  0.15692289340E+01  0.88844708818E+02  0.80133737788E+02 0.  0.
          5    1    3    3  501    0 -0.28006616286E+02  0.99456399320E+01 -0.15774878795E+03  0.16059282802E+03  0.47000000000E+01 0. -1.
        -13    1    4    4    0    0  0.23483622556E+02 -0.50435019711E+02 -0.15953823363E+02  0.57876560208E+02  0.00000000000E+00 0.  1.
         14    1    4    4    0    0  0.34309730784E+01  0.29955700091E+02 -0.63142812292E+01  0.30805611366E+02  0.00000000000E+00 0. -1.
         -5    1    5    5    0  502 -0.17066721801E+02  0.44294069885E+02 -0.10150918309E+03  0.11215811104E+03  0.47000000000E+01 0.  1.
         13    1    6    6    0    0 -0.18900095450E+02  0.43879040767E+01  0.24223195352E+02  0.31035955008E+02  0.00000000000E+00 0. -1.
        -14    1    6    6    0    0  0.37058837902E+02 -0.38148294274E+02 -0.22653966418E+02  0.57808753810E+02  0.00000000000E+00 0.  1.
</event>
<event>
12    1  0.9028446E-003  0.2276391E+03  0.7818608E-02  0.1128507E+00
         21   -1    0    0  503  502  0.00000000000E+00  0.00000000000E+00  0.26830814407E+03  0.26830814407E+03  0.00000000000E+00 0. -1.
         21   -1    0    0  501  503 -0.00000000000E+00 -0.00000000000E+00 -0.28082645096E+03  0.28082645096E+03  0.00000000000E+00 0. -1.
          6    2    1    2  501    0  0.14001803394E+03  0.49721782917E+02 -0.16050193623E+03  0.27853262250E+03  0.17245940026E+03 0.  0.
         24    2    3    3    0    0  0.14728785585E+03 -0.24699994570E+01 -0.14866619643E+03  0.22432001147E+03  0.80734231920E+02 0.  0.
         -6    2    1    2    0  502 -0.14001803394E+03 -0.49721782917E+02  0.14798362934E+03  0.27060197253E+03  0.17102329508E+03 0.  0.
        -24    2    5    5    0    0 -0.10617624139E+03 -0.93282456015E+02  0.74660765211E+02  0.17872634155E+03  0.79961643720E+02 0.  0.
          5    1    3    3  501    0 -0.72698219180E+01  0.52191782374E+02 -0.11835739802E+02  0.54212611030E+02  0.47000000000E+01 0. -1.
        -13    1    4    4    0    0 -0.12610780115E+00  0.15024445871E+02 -0.11955055677E+01  0.15072461991E+02  0.00000000000E+00 0.  1.
         14    1    4    4    0    0  0.14741396366E+03 -0.17494445328E+02 -0.14747069086E+03  0.20924754948E+03  0.00000000000E+00 0. -1.
         -5    1    5    5    0  502 -0.33841792548E+02  0.43560673099E+02  0.73322864128E+02  0.91875630978E+02  0.47000000000E+01 0.  1.
         13    1    6    6    0    0 -0.71662886145E+02 -0.62426718137E+02  0.89056166024E+02  0.13024463557E+03  0.00000000000E+00 0. -1.
        -14    1    6    6    0    0 -0.34513355243E+02 -0.30855737878E+02 -0.14395400813E+02  0.48481705980E+02  0.00000000000E+00 0.  1.
</event>
<event>
12    1  0.9028446E-003  0.2046102E+03  0.7818608E-02  0.1146216E+00
         21   -1    0    0  503  502  0.00000000000E+00  0.00000000000E+00  0.54082302460E+03  0.54082302460E+03  0.00000000000E+00 0.  1.
         21   -1    0    0  501  503 -0.00000000000E+00 -0.00000000000E+00 -0.10270553979E+03  0.10270553979E+03  0.00000000000E+00 0. -1.
          6    2    1    2  501    0 -0.76216410718E+02  0.77662842422E+02  0.58197737555E+02  0.21272591631E+03  0.17327688957E+03 0.  0.
         24    2    3    3    0    0 -0.28511688572E+02  0.47992291642E+02 -0.35194698774E+02  0.10363733184E+03  0.79911534130E+02 0.  0.
         -6    2    1    2    0  502  0.76216410718E+02 -0.77662842422E+02  0.37991974725E+03  0.43080264807E+03  0.17149766434E+03 0.  0.
        -24    2    5    5    0    0  0.75703323326E+01 -0.59053676935E+02  0.11532062664E+03  0.15677095329E+03  0.87941106280E+02 0.  0.
          5    1    3    3  501    0 -0.47704722146E+02  0.29670550781E+02  0.93392436329E+02  0.10908858447E+03  0.47000000000E+01 0. -1.
        -13    1    4    4    0    0  0.13373130243E+02 -0.11157308570E+02 -0.24967293198E+02  0.30441614225E+02  0.00000000000E+00 0.  1.
         14    1    4    4    0    0 -0.41884818814E+02  0.59149600212E+02 -0.10227405576E+02  0.73195717615E+02  0.00000000000E+00 0. -1.
         -5    1    5    5    0  502  0.68646078385E+02 -0.18609165487E+02  0.26459912061E+03  0.27403169478E+03  0.47000000000E+01 0.  1.
         11    1    6    6    0    0  0.24668116315E+02 -0.77036071130E+02  0.81533463924E+02  0.11485111213E+03  0.00000000000E+00 0. -1.
        -12    1    6    6    0    0 -0.17097783983E+02  0.17982394195E+02  0.33787162718E+02  0.41919841157E+02  0.00000000000E+00 0.  1.
</event>
<event>
12    1  0.9028446E-003  0.1918566E+03  0.7818608E-02  0.1157492E+00
         21   -1    0    0  501  502  0.00000000000E+00  0.00000000000E+00  0.55946098186E+02  0.55946098186E+02  0.00000000000E+00 0.  1.
         21   -1    0    0  502  503 -0.00000000000E+00 -0.00000000000E+00 -0.81448894346E+03  0.81448894346E+03  0.00000000000E+00 0. -1.
          6    2    1    2  501    0  0.49883718966E+02  0.72734840806E+02 -0.17969018614E+03  0.26061593099E+03  0.16689325332E+03 0.  0.
         24    2    3    3    0    0  0.79500904540E+01 -0.75602749798E+01 -0.27381632571E+02  0.83342920325E+02  0.77948231988E+02 0.  0.
         -6    2    1    2    0  503 -0.49883718966E+02 -0.72734840806E+02 -0.57885265913E+03  0.60981911065E+03  0.17038252331E+03 0.  0.
        -24    2    5    5    0    0  0.37930876359E+02 -0.28235077103E+02 -0.29476720361E+03  0.30912280513E+03  0.80207439571E+02 0.  0.
          5    1    3    3  501    0  0.41933628512E+02  0.80295115786E+02 -0.15230855357E+03  0.17727301067E+03  0.47000000000E+01 0. -1.
        -13    1    4    4    0    0  0.39837008672E+02 -0.13331232904E+02 -0.28757540712E+02  0.50908792743E+02  0.00000000000E+00 0.  1.
         14    1    4    4    0    0 -0.31886918218E+02  0.57709579242E+01  0.13759081416E+01  0.32434127583E+02  0.00000000000E+00 0. -1.
         -5    1    5    5    0  503 -0.87814595325E+02 -0.44499763703E+02 -0.28408545552E+03  0.30069630553E+03  0.47000000000E+01 0.  1.
         11    1    6    6    0    0 -0.24304306980E+02 -0.13618130550E+02 -0.67186506986E+02  0.72733620413E+02  0.00000000000E+00 0. -1.
        -12    1    6    6    0    0  0.62235183339E+02 -0.14616946553E+02 -0.22758069663E+03  0.23638918471E+03  0.00000000000E+00 0.  1.
</event>
<event>
12    1  0.9028446E-003  0.2792362E+03  0.7818608E-02  0.1096264E+00
         21   -1    0    0  501  502  0.00000000000E+00  0.00000000000E+00  0.37818991710E+02  0.37818991710E+02  0.00000000000E+00 0.  1.
         21   -1    0    0  502  503 -0.00000000000E+00 -0.00000000000E+00 -0.24468485824E+04  0.24468485824E+04  0.00000000000E+00 0. -1.
          6    2    1    2  501    0  0.25585081881E+02  0.21683678606E+03 -0.70836077962E+03  0.76141173280E+03  0.17406907976E+03 0.  0.
         24    2    3    3    0    0 -0.47223811119E+02  0.11814140846E+03 -0.43850458144E+03  0.46495537824E+03  0.87805211009E+02 0.  0.
         -6    2    1    2    0  503 -0.25585081881E+02 -0.21683678606E+03 -0.17006688111E+04  0.17232558414E+04  0.17223095391E+03 0.  0.
        -24    2    5    5    0    0  0.41241795760E+00 -0.19228313396E+03 -0.16373628489E+04  0.16503964790E+04  0.76671150314E+02 0.  0.
          5    1    3    3  501    0  0.72808893001E+02  0.98695377600E+02 -0.26985619818E+03  0.29645635456E+03  0.47000000000E+01 0. -1.
        -11    1    4    4    0    0  0.38271716521E+01  0.84032866047E+01  0.81407811349E+00  0.92695842297E+01  0.00000000000E+00 0.  1.
         12    1    4    4    0    0 -0.51050982771E+02  0.10973812185E+03 -0.43931865956E+03  0.45568579401E+03  0.00000000000E+00 0. -1.
         -5    1    5    5    0  503 -0.25997499839E+02 -0.24553652102E+02 -0.63305962194E+02  0.72859362327E+02  0.47000000000E+01 0.  1.
         13    1    6    6    0    0 -0.32701815927E+02 -0.70662810411E+02 -0.76922474090E+03  0.77315544592E+03  0.00000000000E+00 0. -1.
        -14    1    6    6    0    0  0.33114233885E+02 -0.12162032355E+03 -0.86813810802E+03  0.87724103311E+03  0.00000000000E+00 0.  1.
</event>
<event>
12    1  0.9028446E-003  0.2440766E+03  0.7818608E-02  0.1118000E+00
         21   -1    0    0  503  502  0.00000000000E+00  0.00000000000E+00  0.24088497824E+03  0.24088497824E+03  0.00000000000E+00 0.  1.
         21   -1    0    0  501  503 -0.00000000000E+00 -0.00000000000E+00 -0.25265051452E+03  0.25265051452E+03  0.00000000000E+00 0. -1.
          6    2    1    2  501    0  0.41310053036E+02 -0.16768761187E+03 -0.56832774888E+02  0.24533311775E+03  0.16472012235E+03 0.  0.
         24    2    3    3    0    0  0.53471609429E+02 -0.49159290878E+02 -0.64161091751E+02  0.12586487695E+03  0.80308608884E+02 0.  0.
         -6    2    1    2    0  502 -0.41310053036E+02  0.16768761187E+03  0.45067238609E+02  0.24820237501E+03  0.17247523679E+03 0.  0.
        -24    2    5    5    0    0 -0.90452206803E+02  0.12680044592E+03  0.55618362544E+02  0.18323986403E+03  0.78889103911E+02 0.  0.
          5    1    3    3  501    0 -0.12161556393E+02 -0.11852832099E+03  0.73283168631E+01  0.11946824080E+03  0.47000000000E+01 0. -1.
        -11    1    4    4    0    0  0.37317907758E+02 -0.61638911541E+02 -0.16362323048E+02  0.73889831986E+02  0.00000000000E+00 0.  1.
         12    1    4    4    0    0  0.16153701671E+02  0.12479620664E+02 -0.47798768703E+02  0.51975044965E+02  0.00000000000E+00 0. -1.
         -5    1    5    5    0  502  0.49142153767E+02  0.40887165949E+02 -0.10551123935E+02  0.64962510977E+02  0.47000000000E+01 0.  1.
         13    1    6    6    0    0 -0.71064856054E+02  0.40624558303E+02  0.63601962501E+01  0.82103718550E+02  0.00000000000E+00 0. -1.
        -14    1    6    6    0    0 -0.19387350749E+02  0.86175887617E+02  0.49258166294E+02  0.10113614548E+03  0.00000000000E+00 0.  1.
</event>
<event>
12    1  0.9028446E-003  0.2753862E+03  0.7818608E-02  0.1098298E+00
         21   -1    0    0  501  502  0.00000000000E+00  0.00000000000E+00  0.24800477397E+03  0.24800477397E+03  0.00000000000E+00 0.  1.
         21   -1    0    0  502  503 -0.00000000000E+00 -0.00000000000E+00 -0.42825216286E+03  0.42825216286E+03  0.00000000000E+00 0.  1.
          6    2    1    2  501    0 -0.16672654910E+03  0.13574044201E+03  0.91103345945E+02  0.28964501473E+03  0.17138029392E+03 0.  0.
         24    2    3    3    0    0 -0.12054426250E+03  0.25859311799E+02  0.88819929310E+02  0.17033881052E+03  0.76985110881E+02 0.  0.
         -6    2    1    2    0  503  0.16672654910E+03 -0.13574044201E+03 -0.27135073484E+03  0.38661192210E+03  0.17208819612E+03 0.  0.
        -24    2    5    5    0    0  0.13117749089E+03 -0.24809676630E+02 -0.18263477272E+03  0.24011283616E+03  0.80471483840E+02 0.  0.
          5    1    3    3  501    0 -0.46182286601E+02  0.10988113021E+03  0.22834166344E+01  0.11930620421E+03  0.47000000000E+01 0. -1.
        -11    1    4    4    0    0 -0.11855160142E+03  0.42146545479E+02  0.88676258912E+02  0.15392950461E+03  0.00000000000E+00 0.  1.
         12    1    4    4    0    0 -0.19926610791E+01 -0.16287233680E+02  0.14367039863E+00  0.16409305906E+02  0.00000000000E+00 0. -1.
         -5    1    5    5    0  503  0.35549058213E+02 -0.11093076538E+03 -0.88715962112E+02  0.14649908594E+03  0.47000000000E+01 0.  1.
         13    1    6    6    0    0  0.37690575282E+02 -0.25852152680E+02 -0.14882382001E+02  0.48066605427E+02  0.00000000000E+00 0. -1.
        -14    1    6    6    0    0  0.93486915604E+02  0.10424760501E+01 -0.16775239072E+03  0.19204623073E+03  0.00000000000E+00 0.  1.
</event>
<event>
12    1  0.9028446E-003  0.2421107E+03  0.7818608E-02  0.1118618E+00
         21   -1    0    0  501  502  0.00000000000E+00  0.00000000000E+00  0.13676580549E+03  0.13676580549E+03  0.00000000000E+00 0. -1.
         21   -1    0    0  502  503 -0.00000000000E+00 -0.00000000000E+00 -0.45033429620E+03  0.45033429620E+03  0.00000000000E+00 0. -1.
          6    2    1    2  501    0 -0.89574854952E+02  0.14513710706E+03 -0.89252815630E+02  0.25803808137E+03  0.17184048375E+03 0.  0.
         24    2    3    3    0    0  0.77345554338E+01  0.10040993691E+03 -0.15820942186E+02  0.12809974547E+03  0.77571024231E+02 0.  0.
         -6    2    1    2    0  503  0.89574854952E+02 -0.14513710706E+03 -0.22431567509E+03  0.32906202032E+03  0.16992897529E+03 0.  0.
        -24    2    5    5    0    0  0.62677417076E+02 -0.16274031915E+03 -0.13522698976E+03  0.23423465563E+03  0.78528116307E+02 0.  0.
          5    1    3    3  501    0 -0.97309410385E+02  0.44727170148E+02 -0.73431873444E+02  0.12993833590E+03  0.47000000000E+01 0. -1.
        -13    1    4    4    0    0 -0.71575077931E+01 -0.28645181183E+01 -0.22261377647E+02  0.23558529593E+02  0.00000000000E+00 0.  1.
         14    1    4    4    0    0  0.14892063227E+02  0.10327445503E+03  0.64404354610E+01  0.10454121588E+03  0.00000000000E+00 0. -1.
         -5    1    5    5    0  503  0.26897437876E+02  0.17603212091E+02 -0.89088685333E+02  0.94827364693E+02  0.47000000000E+01 0.  1.
         11    1    6    6    0    0  0.35364883633E+02 -0.10968893747E+02 -0.24805084446E+02  0.44567744376E+02  0.00000000000E+00 0. -1.
        -12    1    6    6    0    0  0.27312533443E+02 -0.15177142540E+03 -0.11042190531E+03  0.18966691125E+03  0.00000000000E+00 0.  1.
</event>
<event>
12    1  0.9028446E-003  0.1805960E+03  0.7818608E-02  0.1168256E+00
         21   -1    0    0  501  502  0.00000000000E+00  0.00000000000E+00  0.13807408938E+03  0.13807408938E+03  0.00000000000E+00 0.  1.
         21   -1    0    0  502  503 -0.00000000000E+00 -0.00000000000E+00 -0.23417402987E+03  0.23417402987E+03  0.00000000000E+00 0.  1.
          6    2    1    2  501    0 -0.41389232765E+02 -0.16920725832E+02 -0.24920399797E+02  0.17813102646E+03  0.17061728139E+03 0.  0.
         24    2    3    3    0    0 -0.88071079129E+02  0.13303404394E+01  0.19953717530E+02  0.11069162695E+03  0.64001567554E+02 0.  0.
         -6    2    1    2    0  503  0.41389232765E+02  0.16920725832E+02 -0.71179540689E+02  0.19411709279E+03  0.17497296691E+03 0.  0.
        -24    2    5    5    0    0  0.29730917461E+02  0.23552325513E+01 -0.11641847069E+03  0.14495693923E+03  0.81054175340E+02 0.  0.
          5    1    3    3  501    0  0.46681846364E+02 -0.18251066271E+02 -0.44874117327E+02  0.67439399507E+02  0.47000000000E+01 0. -1.
        -11    1    4    4    0    0 -0.73640645020E+02 -0.14603547563E+02 -0.79198970574E+01  0.75491277442E+02  0.00000000000E+00 0.  1.
         12    1    4    4    0    0 -0.14430434108E+02  0.15933888003E+02  0.27873614587E+02  0.35200349510E+02  0.00000000000E+00 0. -1.
         -5    1    5    5    0  503  0.11658315304E+02  0.14565493281E+02  0.45238930003E+02  0.49160153560E+02  0.47000000000E+01 0.  1.
         13    1    6    6    0    0  0.13305237658E+02 -0.38253245530E+02 -0.40307541371E+02  0.57140511322E+02  0.00000000000E+00 0. -1.
        -14    1    6    6    0    0  0.16425679803E+02  0.40608478081E+02 -0.76110929320E+02  0.87816427911E+02  0.00000000000E+00 0.  1.
</event>
<event>
12    1  0.9028446E-003  0.1756491E+03  0.7818608E-02  0.1172316E+00
         21   -1    0    0  501  502  0.00000000000E+00  0.00000000000E+00  0.11137892995E+03  0.11137892995E+03  0.00000000000E+00 0. -1.
         21   -1    0    0  502  503 -0.00000000000E+00 -0.00000000000E+00 -0.28829983475E+03  0.28829983475E+03  0.00000000000E+00 0. -1.
          6    2    1    2  501    0 -0.25824890686E+02  0.16350951608E+02 -0.46632938232E+02  0.18173400937E+03  0.17296918984E+03 0.  0.
         24    2    3    3    0    0 -0.22287962703E+02  0.19335899521E+02  0.29069283848E+02  0.10574495620E+03  0.97295129406E+02 0.  0.
         -6    2    1    2    0  503  0.25824890686E+02 -0.16350951608E+02 -0.13028796656E+03  0.21794475533E+03  0.17201942781E+03 0.  0.
        -24    2    5    5    0    0  0.63919776660E+02 -0.14077335884E+02 -0.25799711703E+02  0.10660619476E+03  0.80095857588E+02 0.  0.
          5    1    3    3  501    0 -0.35369279825E+01 -0.29849479128E+01 -0.75702222080E+02  0.75989053169E+02  0.47000000000E+01 0. -1.
        -13    1    4    4    0    0 -0.19225133347E+02 -0.24185163693E+02 -0.22482191669E+02  0.38209643250E+02  0.00000000000E+00 0.  1.
         14    1    4    4    0    0 -0.30628293558E+01  0.43521063213E+02  0.51551475517E+02  0.67535312947E+02  0.00000000000E+00 0. -1.
         -5    1    5    5    0  503 -0.38094885975E+02 -0.22736157236E+01 -0.10448825486E+03  0.11133856057E+03  0.47000000000E+01 0.  1.
         13    1    6    6    0    0 -0.97043034021E+01 -0.22288306356E+02 -0.21413907864E+02  0.32395949666E+02  0.00000000000E+00 0. -1.
        -14    1    6    6    0    0  0.73624080062E+02  0.82109704722E+01 -0.43858038390E+01  0.74210245091E+02  0.00000000000E+00 0.  1.
</event>
<event>
12    1  0.9028446E-003  0.1829496E+03  0.7818608E-02  0.1165142E+00
         21   -1    0    0  503  502  0.00000000000E+00  0.00000000000E+00  0.89375997118E+02  0.89375997118E+02  0.00000000000E+00 0.  1.
         21   -1    0    0  501  503 -0.00000000000E+00 -0.00000000000E+00 -0.43202258098E+03  0.43202258098E+03  0.00000000000E+00 0.  1.
          6    2    1    2  501    0  0.13174308175E+02 -0.59248294733E+02 -0.26733599430E+03  0.32355456520E+03  0.17185779002E+03 0.  0.
         24    2    3    3    0    0 -0.21677544854E+02  0.13920915094E+02 -0.20362624012E+03  0.22035859772E+03  0.80190760664E+02 0.  0.
         -6    2    1    2    0  502 -0.13174308175E+02  0.59248294733E+02 -0.75310589563E+02  0.19784401290E+03  0.17258808103E+03 0.  0.
        -24    2    5    5    0    0 -0.51529443817E+02  0.59308409013E+02 -0.10130764894E+03  0.15127087536E+03  0.80292384679E+02 0.  0.
          5    1    3    3  501    0  0.34851853029E+02 -0.73169209827E+02 -0.63709754173E+02  0.10319596748E+03  0.47000000000E+01 0. -1.
        -11    1    4    4    0    0 -0.32732723049E+02  0.14361985479E+02 -0.20597037687E+03  0.20904902279E+03  0.00000000000E+00 0.  1.
         12    1    4    4    0    0  0.11055178195E+02 -0.44107038462E+00  0.23441367428E+01  0.11309574929E+02  0.00000000000E+00 0. -1.
         -5    1    5    5    0  502  0.38355135643E+02 -0.60114279563E-01  0.25997059379E+02  0.46573137539E+02  0.47000000000E+01 0.  1.
         11    1    6    6    0    0 -0.21113703981E+02  0.60565277869E+01 -0.85030152373E+02  0.87821391683E+02  0.00000000000E+00 0. -1.
        -12    1    6    6    0    0 -0.30415739836E+02  0.53251881226E+02 -0.16277496569E+02  0.63449483673E+02  0.00000000000E+00 0.  1.
</event>
<event>
12    1  0.9028446E-003  0.2841370E+03  0.7818608E-02  0.1093748E+00
         21   -1    0    0  503  502  0.00000000000E+00  0.00000000000E+00  0.34661707486E+03  0.34661707486E+03  0.00000000000E+00 0.  1.
         21   -1    0    0  501  503 -0.00000000000E+00 -0.00000000000E+00 -0.61747887304E+03  0.61747887304E+03  0.00000000000E+00 0. -1.
          6    2    1    2  501    0  0.22190785929E+03 -0.33647937790E+02 -0.51654426755E+03  0.58847155403E+03  0.17060336407E+03 0.  0.
         24    2    3    3    0    0  0.14029351771E+03 -0.40427420141E+02 -0.17501074278E+03  0.23722505842E+03  0.65805173408E+02 0.  0.
         -6    2    1    2    0  502 -0.22190785929E+03  0.33647937790E+02  0.24568246937E+03  0.37562439388E+03  0.17423698742E+03 0.  0.
        -24    2    5    5    0    0 -0.10898208133E+03  0.51858557510E+02  0.59517613381E+02  0.15707622618E+03  0.81019691990E+02 0.  0.
          5    1    3    3  501    0  0.81614341588E+02  0.67794823504E+01 -0.34153352477E+03  0.35124649561E+03  0.47000000000E+01 0. -1.
        -11    1    4    4    0    0  0.13436175701E+03 -0.51487899153E+02 -0.17212672814E+03  0.22434726664E+03  0.00000000000E+00 0.  1.
         12    1    4    4    0    0  0.59317606922E+01  0.11060479012E+02 -0.28840146368E+01  0.12877791787E+02  0.00000000000E+00 0. -1.
         -5    1    5    5    0  502 -0.11292577796E+03 -0.18210619719E+02  0.18616485599E+03  0.21854816770E+03  0.47000000000E+01 0.  1.
         11    1    6    6    0    0 -0.27947574102E+02  0.36656216356E+02  0.58685374230E+02  0.74623845011E+02  0.00000000000E+00 0. -1.
        -12    1    6    6    0    0 -0.81034507229E+02  0.15202341154E+02  0.83223915093E+00  0.82452381169E+02  0.00000000000E+00 0.  1.
</event>
<event>
12    1  0.9028446E-003  0.2073119E+03  0.7818608E-02  0.1144156E+00
         21   -1    0    0  501  502  0.00000000000E+00  0.00000000000E+00  0.36173431934E+02  0.36173431934E+02  0.00000000000E+00 0. -1.
         21   -1    0    0  502  503 -0.00000000000E+00 -0.00000000000E+00 -0.13430700978E+04  0.13430700978E+04  0.00000000000E+00 0. -1.
          6    2    1    2  501    0  0.11032504934E+03 -0.62967240780E+02 -0.40689836206E+03  0.45567697570E+03  0.16105508128E+03 0.  0.
         24    2    3    3    0    0  0.91915015235E+02  0.24891761014E+01 -0.33553730306E+03  0.35699585993E+03  0.80038717126E+02 0.  0.
         -6    2    1    2    0  503 -0.11032504934E+03  0.62967240780E+02 -0.89999830378E+03  0.92356655401E+03  0.16383449870E+03 0.  0.
        -24    2    5    5    0    0 -0.12767377541E+03  0.11348567849E+02 -0.59915453189E+03  0.61779780026E+03  0.79111225455E+02 0.  0.
          5    1    3    3  501    0  0.18410034105E+02 -0.65456416881E+02 -0.71361058999E+02  0.98681115762E+02  0.47000000000E+01 0. -1.
        -13    1    4    4    0    0  0.86403557048E+02 -0.21997830976E+02 -0.30333600257E+03  0.31616800865E+03  0.00000000000E+00 0.  1.
         14    1    4    4    0    0  0.55114581870E+01  0.24487007078E+02 -0.32201300492E+02  0.40827851282E+02  0.00000000000E+00 0. -1.
         -5    1    5    5    0  503  0.17348726072E+02  0.51618672930E+02 -0.30084377189E+03  0.30576875376E+03  0.47000000000E+01 0.  1.
         11    1    6    6    0    0 -0.77563309925E+02  0.31606518739E+02 -0.47588139493E+03  0.48319575858E+03  0.00000000000E+00 0. -1.
        -12    1    6    6    0    0 -0.50110465488E+02 -0.20257950889E+02 -0.12327313697E+03  0.13460204168E+03  0.00000000000E+00 0.  1.
</event>
<event>
12    1  0.9028446E-003  0.1874877E+03  0.7818608E-02  0.1160931E+00
         21   -1    0    0  503  502  0.00000000000E+00  0.00000000000E+00  0.50637687914E+03  0.50637687914E+03  0.00000000000E+00 0.  1.
         21   -1    0    0  501  503 -0.00000000000E+00 -0.00000000000E+00 -0.69143866704E+02  0.69143866704E+02  0.00000000000E+00 0. -1.
          6    2    1    2  501    0 -0.10502334634E+02 -0.72245136401E+02  0.22420463935E+03  0.29226589607E+03  0.17269040197E+03 0.  0.
         24    2    3    3    0    0  0.55877731463E+02 -0.18168417713E+02  0.96096166729E+02  0.13810858863E+03  0.79919313801E+02 0.  0.
         -6    2    1    2    0  502  0.10502334634E+02  0.72245136401E+02  0.21302837309E+03  0.28325484977E+03  0.17182131246E+03 0.  0.
        -24    2    5    5    0    0  0.51867634869E+02  0.98341884329E+02  0.15652185656E+03  0.20837357891E+03  0.80988141397E+02 0.  0.
          5    1    3    3  501    0 -0.66380066097E+02 -0.54076718687E+02  0.12810847262E+03  0.15415730744E+03  0.47000000000E+01 0. -1.
        -13    1    4    4    0    0  0.27516065815E+02  0.18113597589E+02  0.15924144103E+01  0.32981389892E+02  0.00000000000E+00 0.  1.
         14    1    4    4    0    0  0.28361665648E+02 -0.36282015303E+02  0.94503752318E+02  0.10512719874E+03  0.00000000000E+00 0. -1.
         -5    1    5    5    0  502 -0.41365300235E+02 -0.26096747929E+02  0.56506516523E+02  0.74881270859E+02  0.47000000000E+01 0.  1.
         13    1    6    6    0    0 -0.21632889513E+01  0.61789896300E+02  0.36576081518E+02  0.71836486851E+02  0.00000000000E+00 0. -1.
        -14    1    6    6    0    0  0.54030923820E+02  0.36551988029E+02  0.11994577505E+03  0.13653709206E+03  0.00000000000E+00 0.  1.
</event>
<event>
12    1  0.9028446E-003  0.1808860E+03  0.7818608E-02  0.1167270E+00
         21   -1    0    0  503  502  0.00000000000E+00  0.00000000000E+00  0.94315425996E+03  0.94315425996E+03  0.00000000000E+00 0. -1.
         21   -1    0    0  501  503 -0.00000000000E+00 -0.00000000000E+00 -0.13244332104E+03  0.13244332104E+03  0.00000000000E+00 0. -1.
          6    2    1    2  501    0  0.53253807890E+02  0.17102503345E+01 -0.57663025329E+02  0.18858400693E+03  0.17146431165E+03 0.  0.
         24    2    3    3    0    0  0.37748496741E+02  0.52166555933E+02  0.81630543480E+01  0.10407710653E+03  0.81357913470E+02 0.  0.
         -6    2    1    2    0  502 -0.53253807890E+02 -0.17102503345E+01  0.86837396426E+03  0.88701357407E+03  0.17286076992E+03 0.  0.
        -24    2    5    5    0    0 -0.50540057468E+02 -0.65752224483E+02  0.52365806444E+03  0.53635721739E+03  0.81139655901E+02 0.  0.
          5    1    3    3  501    0  0.15505311149E+02 -0.50456305599E+02 -0.65826079677E+02  0.84506900393E+02  0.47000000000E+01 0. -1.
        -11    1    4    4    0    0  0.48015776576E+01  0.60403377413E+02  0.25743218616E+02  0.65835677680E+02  0.00000000000E+00 0.  1.
         12    1    4    4    0    0  0.32946919084E+02 -0.82368214793E+01 -0.17580164268E+02  0.38241428855E+02  0.00000000000E+00 0. -1.
         -5    1    5    5    0  502 -0.27137504223E+01  0.64041974149E+02  0.34471589982E+03  0.35065635668E+03  0.47000000000E+01 0.  1.
         13    1    6    6    0    0 -0.34655768438E+02 -0.21513337053E+02  0.76144347318E+02  0.86381754935E+02  0.00000000000E+00 0. -1.
        -14    1    6    6    0    0 -0.15884289030E+02 -0.44238887431E+02  0.44751371712E+03  0.44997546245E+03  0.00000000000E+00 0.  1.
</event>
<event>
12    1  0.9028446E-003  0.1957191E+03  0.7818608E-02  0.1153993E+00
         21   -1    0    0  503  502  0.00000000000E+00  0.00000000000E+00  0.19448177303E+03  0.19448177303E+03  0.00000000000E+00 0. -1.
         21   -1    0    0  501  503 -0.00000000000E+00 -0.00000000000E+00 -0.31105214084E+03  0.31105214084E+03  0.00000000000E+00 0.  1.
          6    2    1    2  501    0 -0.71601152668E+02  0.59034021966E+02 -0.21292139987E+03  0.28738373154E+03  0.16923990611E+03 0.  0.
         24    2    3    3    0    0 -0.90837854028E+02  0.71364407818E+02 -0.98150518305E+02  0.17026612249E+03  0.77541174854E+02 0.  0.
         -6    2    1    2    0  502  0.71601152668E+02 -0.59034021966E+02  0.96351032061E+02  0.21815018232E+03  0.17232016670E+03 0.  0.
        -24    2    5    5    0    0  0.63661587738E+02 -0.23653309228E+02  0.13120397363E+03  0.16763633213E+03  0.79216036019E+02 0.  0.
          5    1    3    3  501    0  0.19236701360E+02 -0.12330385852E+02 -0.11477088157E+03  0.11711760905E+03  0.47000000000E+01 0. -1.
        -11    1    4    4    0    0 -0.56007639987E+02  0.22443900067E+02 -0.91833731061E+02  0.10988183903E+03  0.00000000000E+00 0.  1.
         12    1    4    4    0    0 -0.34830214042E+02  0.48920507751E+02 -0.63167872438E+01  0.60384283468E+02  0.00000000000E+00 0. -1.
         -5    1    5    5    0  502  0.79395649301E+01 -0.35380712738E+02 -0.34852941567E+02  0.50513850189E+02  0.47000000000E+01 0.  1.
         11    1    6    6    0    0  0.30216596652E+02  0.16444364468E+02  0.10254426750E+02  0.35897257610E+02  0.00000000000E+00 0. -1.
        -12    1    6    6    0    0  0.33444991086E+02 -0.40097673696E+02  0.12094954688E+03  0.13173907452E+03  0.00000000000E+00 0.  1.
</event>
<event>
12    1  0.9028446E-003  0.1903757E+03  0.7818608E-02  0.1158617E+00
         21   -1    0    0  501  502  0.00000000000E+00  0.00000000000E+00  0.79515180843E+02  0.79515180843E+02  0.00000000000E+00 0.  1.
         21   -1    0    0  502  503 -0.00000000000E+00 -0.00000000000E+00 -0.66328599697E+03  0.66328599697E+03  0.00000000000E+00 0. -1.
          6    2    1    2  501    0 -0.42083979097E+02  0.62885357950E+02 -0.82714069675E+02  0.20756811377E+03  0.17469194312E+03 0.  0.
         24    2    3    3    0    0  0.17083486150E+02 -0.18934235285E+02 -0.61489576782E+02  0.10428305251E+03  0.80272263103E+02 0.  0.
         -6    2    1    2    0  503  0.42083979097E+02 -0.62885357950E+02 -0.50105674645E+03  0.53523306404E+03  0.17231059206E+03 0.  0.
        -24    2    5    5    0    0  0.57564049853E+02  0.21757154132E+02 -0.29179144727E+03  0.30891902805E+03  0.80633266112E+02 0.  0.
          5    1    3    3  501    0 -0.59167465247E+02  0.81819593235E+02 -0.21224492893E+02  0.10328506126E+03  0.47000000000E+01 0. -1.
        -13    1    4    4    0    0 -0.18775664344E+02 -0.38757857861E+02 -0.34967134154E+02  0.55474296647E+02  0.00000000000E+00 0.  1.
         14    1    4    4    0    0  0.35859150494E+02  0.19823622576E+02 -0.26522442628E+02  0.48808755865E+02  0.00000000000E+00 0. -1.
         -5    1    5    5    0  503 -0.15480070756E+02 -0.84642512082E+02 -0.20926529919E+03  0.22631403599E+03  0.47000000000E+01 0.  1.
         11    1    6    6    0    0  0.53428198196E+02 -0.14346454084E+01 -0.27460617849E+03  0.27975915326E+03  0.00000000000E+00 0. -1.
        -12    1    6    6    0    0  0.41358516566E+01  0.23191799540E+02 -0.17185268778E+02  0.29159874791E+02  0.00000000000E+00 0.  1.
</event>
<event>
12    1  0.9028446E-003  0.1940931E+03  0.7818608E-02  0.1154968E+00
         21   -1    0    0  503  502  0.00000000000E+00  0.00000000000E+00  0.51306713963E+03  0.51306713963E+03  0.00000000000E+00 0.  1.
         21   -1    0    0  501  503 -0.00000000000E+00 -0.00000000000E+00 -0.75302773104E+02  0.75302773104E+02  0.00000000000E+00 0. -1.
          6    2    1    2  501    0 -0.70821913350E+02  0.53524892126E+02  0.16903432883E+03  0.25687638021E+03  0.17184939017E+03 0.  0.
         24    2    3    3    0    0 -0.86179312252E+02  0.90781369873E+02  0.15569483546E+03  0.21416892280E+03  0.77196597906E+02 0.  0.
         -6    2    1    2    0  502  0.70821913350E+02 -0.53524892126E+02  0.26873003770E+03  0.33149353253E+03  0.17260206099E+03 0.  0.
        -24    2    5    5    0    0  0.97563756814E+00 -0.72016740570E+02  0.22484194592E+03  0.24682532539E+03  0.71982482722E+02 0.  0.
          5    1    3    3  501    0  0.15357398902E+02 -0.37256477746E+02  0.13339493366E+02  0.42707457409E+02  0.47000000000E+01 0. -1.
        -13    1    4    4    0    0 -0.33661628337E+02  0.79806633737E+02  0.12584654619E+03  0.15277289419E+03  0.00000000000E+00 0.  1.
         14    1    4    4    0    0 -0.52517683915E+02  0.10974736136E+02  0.29848289272E+02  0.61396028614E+02  0.00000000000E+00 0. -1.
         -5    1    5    5    0  502  0.69846275782E+02  0.18491848444E+02  0.43888091784E+02  0.84668207137E+02  0.47000000000E+01 0.  1.
         11    1    6    6    0    0  0.89605933600E+01 -0.83914723332E+02  0.16546006657E+03  0.18573908219E+03  0.00000000000E+00 0. -1.
        -12    1    6    6    0    0 -0.79849557919E+01  0.11897982762E+02  0.59381879351E+02  0.61086243198E+02  0.00000000000E+00 0.  1.
</event>
<event>
12    1  0.9028446E-003  0.3570258E+03  0.7818608E-02  0.1059801E+00
         21   -1    0    0  503  502  0.00000000000E+00  0.00000000000E+00  0.16234715792E+03  0.16234715792E+03  0.00000000000E+00 0. -1.
         21   -1    0    0  501  503 -0.00000000000E+00 -0.00000000000E+00 -0.10017986083E+04  0.10017986083E+04  0.00000000000E+00 0.  1.
          6    2    1    2  501    0 -0.69943974270E+02 -0.30458683778E+03 -0.69102433233E+03  0.77780592134E+03  0.17263291147E+03 0.  0.
         24    2    3    3    0    0 -0.16258069428E+02 -0.11099034185E+03 -0.35015032349E+03  0.38210532807E+03  0.10400024950E+03 0.  0.
         -6    2    1    2    0  502  0.69943974270E+02  0.30458683778E+03 -0.14842711807E+03  0.38633984489E+03  0.17193767793E+03 0.  0.
        -24    2    5    5    0    0  0.81281547231E+02  0.26859369107E+03 -0.77966322602E+02  0.30627199324E+03  0.94733972690E+02 0.  0.
          5    1    3    3  501    0 -0.53685904842E+02 -0.19359649592E+03 -0.34087400884E+03  0.39570059327E+03  0.47000000000E+01 0. -1.
        -13    1    4    4    0    0 -0.57696814563E+02 -0.60817456298E+02 -0.15255888607E+03  0.17407440685E+03  0.00000000000E+00 0.  1.
         14    1    4    4    0    0  0.41438745135E+02 -0.50172885557E+02 -0.19759143742E+03  0.20803092122E+03  0.00000000000E+00 0. -1.
         -5    1    5    5    0  502 -0.11337572961E+02  0.35993146707E+02 -0.70460795469E+02  0.80067851655E+02  0.47000000000E+01 0.  1.
         13    1    6    6    0    0  0.21628821734E+02  0.21326944225E+03 -0.64085105433E+02  0.22373770729E+03  0.00000000000E+00 0. -1.
        -14    1    6    6    0    0  0.59652725497E+02  0.55324248819E+02 -0.13881217169E+02  0.82534285947E+02  0.00000000000E+00 0.  1.
</event>
<event>
12    1  0.9028446E-003  0.2403686E+03  0.7818608E-02  0.1120118E+00
         21   -1    0    0  501  502  0.00000000000E+00  0.00000000000E+00  0.10674692736E+03  0.10674692736E+03  0.00000000000E+00 0.  1.
         21   -1    0    0  502  503 -0.00000000000E+00 -0.00000000000E+00 -0.53842985474E+03  0.53842985474E+03  0.00000000000E+00 0. -1.
          6    2    1    2  501    0  0.16381210455E+03 -0.17014722382E+01 -0.18381265206E+03  0.29989900579E+03  0.17121630183E+03 0.  0.
         24    2    3    3    0    0  0.17870138390E+02 -0.20316852586E+02 -0.48981094825E+02  0.10028129941E+03  0.83217035617E+02 0.  0.
         -6    2    1    2    0  503 -0.16381210455E+03  0.17014722382E+01 -0.24787027532E+03  0.34527777631E+03  0.17589704040E+03 0.  0.
        -24    2    5    5    0    0 -0.26058092384E+02 -0.45333701464E+01 -0.34564700527E+02  0.91237623253E+02  0.80187341587E+02 0.  0.
          5    1    3    3  501    0  0.14594196616E+03  0.18615380347E+02 -0.13483155724E+03  0.19961770638E+03  0.47000000000E+01 0. -1.
        -11    1    4    4    0    0 -0.75929149178E+01  0.19163103660E+02 -0.49155012933E+02  0.53301896732E+02  0.00000000000E+00 0.  1.
         12    1    4    4    0    0  0.25463053308E+02 -0.39479956245E+02  0.17391810803E+00  0.46979402682E+02  0.00000000000E+00 0. -1.
         -5    1    5    5    0  503 -0.13775401217E+03  0.62348423846E+01 -0.21330557479E+03  0.25404015306E+03  0.47000000000E+01 0.  1.
         13    1    6    6    0    0  0.12733493179E+02 -0.37547578871E+01 -0.48290403621E+02  0.50081964190E+02  0.00000000000E+00 0. -1.
        -14    1    6    6    0    0 -0.38791585562E+02 -0.77861225923E+00  0.13725703093E+02  0.41155659063E+02  0.00000000000E+00 0.  1.
</event>
<event>
12    1  0.9028446E-003  0.2398878E+03  0.7818608E-02  0.1119951E+00
         21   -1    0    0  501  502  0.00000000000E+00  0.00000000000E+00  0.23559633671E+03  0.23559633671E+03  0.00000000000E+00 0. -1.
         21   -1    0    0  502  503 -0.00000000000E+00 -0.00000000000E+00 -0.42694708479E+03  0.42694708479E+03  0.00000000000E+00 0.  1.
          6    2    1    2  501    0  0.71379001016E+02  0.15173509605E+03  0.12138182810E+03  0.26840156163E+03  0.17084305351E+03 0.  0.
         24    2    3    3    0    0  0.38018645044E+02  0.10881006228E+02  0.20073274381E+02  0.91657959123E+02  0.80214907958E+02 0.  0.
         -6    2    1    2    0  503 -0.71379001016E+02 -0.15173509605E+03 -0.31273257618E+03  0.39414185987E+03  0.17154486393E+03 0.  0.
        -24    2    5    5    0    0 -0.88843554400E+02 -0.70643171189E+02 -0.26279082251E+03  0.29720280860E+03  0.79917821860E+02 0.  0.
          5    1    3    3  501    0  0.33360355972E+02  0.14085408982E+03  0.10130855372E+03  0.17674360251E+03  0.47000000000E+01 0. -1.
        -13    1    4    4    0    0 -0.84636694071E+01 -0.46198615924E+01  0.38211799491E+02  0.39409623714E+02  0.00000000000E+00 0.  1.
         14    1    4    4    0    0  0.46482314451E+02  0.15500867820E+02 -0.18138525109E+02  0.52248335409E+02  0.00000000000E+00 0. -1.
         -5    1    5    5    0  503  0.17464553384E+02 -0.81091924858E+02 -0.49941753672E+02  0.96939051274E+02  0.47000000000E+01 0.  1.
         13    1    6    6    0    0  0.11260175634E+02 -0.11011490938E+02 -0.94904187846E+01  0.18387836651E+02  0.00000000000E+00 0. -1.
        -14    1    6    6    0    0 -0.10010373003E+03 -0.59631680251E+02 -0.25330040372E+03  0.27881497195E+03  0.00000000000E+00 0.  1.
</event>
<event>
12    1  0.9028446E-003  0.1803673E+03  0.7818608E-02  0.1167574E+00
         21   -1    0    0  503  502  0.00000000000E+00  0.00000000000E+00  0.72762710908E+02  0.72762710908E+02  0.00000000000E+00 0. -1.
         21   -1    0    0  501  503 -0.00000000000E+00 -0.00000000000E+00 -0.46447698057E+03  0.46447698057E+03  0.00000000000E+00 0.  1.
          6    2    1    2  501    0 -0.36293257155E+02 -0.40938928521E+02 -0.24944004374E+03  0.30751305207E+03  0.17132059243E+03 0.  0.
         24    2    3    3    0    0  0.32836550979E+01  0.28452707377E+02 -0.67296029085E+02  0.10856566407E+03  0.80233465195E+02 0.  0.
         -6    2    1    2    0  502  0.36293257155E+02  0.40938928521E+02 -0.14227422592E+03  0.22972663941E+03  0.17186965151E+03 0.  0.
        -24    2    5    5    0    0  0.12586694297E+02 -0.37621646059E+02 -0.10918349999E+03  0.14112161053E+03  0.80127767730E+02 0.  0.
          5    1    3    3  501    0 -0.39576912253E+02 -0.69391635897E+02 -0.18214401466E+03  0.19894738800E+03  0.47000000000E+01 0. -1.
        -11    1    4    4    0    0  0.17794487479E+02  0.51706070195E+02 -0.57775372198E+02  0.79549702151E+02  0.00000000000E+00 0.  1.
         12    1    4    4    0    0 -0.14510832381E+02 -0.23253362818E+02 -0.95206568866E+01  0.29015961923E+02  0.00000000000E+00 0. -1.
         -5    1    5    5    0  502  0.23706562858E+02  0.78560574580E+02 -0.33090725931E+02  0.88605028884E+02  0.47000000000E+01 0.  1.
         13    1    6    6    0    0  0.35609657058E+02  0.26435277129E+01 -0.76370178070E+02  0.84305634527E+02  0.00000000000E+00 0. -1.
        -14    1    6    6    0    0 -0.23022962761E+02 -0.40265173772E+02 -0.32813321924E+02  0.56815976000E+02  0.00000000000E+00 0.  1.
</event>
<event>
12    1  0.9028446E-003  0.2386384E+03  0.7818608E-02  0.1120968E+00
         21   -1    0    0  503  502  0.00000000000E+00  0.00000000000E+00  0.10131157004E+04  0.10131157004E+04  0.00000000000E+00 0.  1.
         21   -1    0    0  501  503 -0.00000000000E+00 -0.00000000000E+00 -0.59708547089E+02  0.59708547089E+02  0.00000000000E+00 0. -1.
          6    2    1    2  501    0 -0.16230271692E+03 -0.29813492378E+02  0.33870716333E+03  0.41342726400E+03  0.17020148024E+03 0.  0.
         24    2    3    3    0    0 -0.10685622263E+03 -0.26272864104E+02  0.32802282866E+03  0.35665495750E+03  0.86575209396E+02 0.  0.
         -6    2    1    2    0  502  0.16230271692E+03  0.29813492378E+02  0.61469998993E+03  0.65939698344E+03  0.17238702940E+03 0.  0.
        -24    2    5    5    0    0  0.52494640651E+02  0.57520524741E+02  0.40429632533E+03  0.42040475484E+03  0.84972590586E+02 0.  0.
          5    1    3    3  501    0 -0.55446494291E+02 -0.35406282735E+01  0.10684334671E+02  0.56772306498E+02  0.47000000000E+01 0. -1.
        -13    1    4    4    0    0 -0.95791386912E+01 -0.39554727041E+02  0.11789345866E+03  0.12472050323E+03  0.00000000000E+00 0.  1.
         14    1    4    4    0    0 -0.97277083940E+02  0.13281862936E+02  0.21012937000E+03  0.23193445427E+03  0.00000000000E+00 0. -1.
         -5    1    5    5    0  502  0.10980807627E+03 -0.27707032363E+02  0.21040366460E+03  0.23899222861E+03  0.47000000000E+01 0.  1.
         13    1    6    6    0    0  0.42238326743E+02  0.72342763582E+02  0.22301247851E+03  0.23822702882E+03  0.00000000000E+00 0. -1.
        -14    1    6    6    0    0  0.10256313908E+02 -0.14822238842E+02  0.18128384682E+03  0.18217772602E+03  0.00000000000E+00 0.  1.
</event>
<event>
12    1  0.9028446E-003  0.3313105E+03  0.7818608E-02  0.1070573E+00
         21   -1    0    0  503  502  0.00000000000E+00  0.00000000000E+00  0.14636207060E+03  0.14636207060E+03  0.00000000000E+00 0. -1.
         21   -1    0    0  501  503 -0.00000000000E+00 -0.00000000000E+00 -0.99685881533E+03  0.99685881533E+03  0.00000000000E+00 0.  1.
          6    2    1    2  501    0 -0.65529688833E+02 -0.27513603622E+03 -0.70995679402E+03  0.78345728064E+03  0.17254762436E+03 0.  0.
         24    2    3    3    0    0 -0.33600389018E+02 -0.12943673835E+03 -0.20937564918E+03  0.26110554268E+03  0.80343553381E+02 0.  0.
         -6    2    1    2    0  502  0.65529688833E+02  0.27513603622E+03 -0.14053995071E+03  0.35976360529E+03  0.17229159992E+03 0.  0.
        -24    2    5    5    0    0  0.21716028110E+02  0.48624077987E+02 -0.70165158998E+02  0.11851268737E+03  0.79285690348E+02 0.  0.
          5    1    3    3  501    0 -0.31929299815E+02 -0.14569929787E+03 -0.50058114484E+03  0.52235173797E+03  0.47000000000E+01 0. -1.
        -11    1    4    4    0    0 -0.57899276323E+02 -0.64997152061E+02 -0.12132643498E+03  0.14932200039E+03  0.00000000000E+00 0.  1.
         12    1    4    4    0    0  0.24298887305E+02 -0.64439586291E+02 -0.88049214199E+02  0.11178354229E+03  0.00000000000E+00 0. -1.
         -5    1    5    5    0  502  0.43813660723E+02  0.22651195823E+03 -0.70374791709E+02  0.24125091792E+03  0.47000000000E+01 0.  1.
         13    1    6    6    0    0  0.39580604789E+02  0.49843085077E+02 -0.22354212733E+02  0.67458640902E+02  0.00000000000E+00 0. -1.
        -14    1    6    6    0    0 -0.17864576680E+02 -0.12190070895E+01 -0.47810946265E+02  0.51054046470E+02  0.00000000000E+00 0.  1.
</event>
<event>
12    1  0.9028446E-003  0.2100671E+03  0.7818608E-02  0.1142150E+00
         21   -1    0    0  501  502  0.00000000000E+00  0.00000000000E+00  0.20875036109E+03  0.20875036109E+03  0.00000000000E+00 0. -1.
         21   -1    0    0  502  503 -0.00000000000E+00 -0.00000000000E+00 -0.22488766729E+03  0.22488766729E+03  0.00000000000E+00 0.  1.
          6    2    1    2  501    0  0.11294303306E+03 -0.24323807660E+02  0.51064157755E+02  0.21308363222E+03  0.17160801198E+03 0.  0.
         24    2    3    3    0    0 -0.19353927553E+02 -0.83834048100E+00 -0.49552151164E+01  0.67432291364E+02  0.64399397787E+02 0.  0.
         -6    2    1    2    0  503 -0.11294303306E+03  0.24323807660E+02 -0.67201463955E+02  0.22055439617E+03  0.17544351962E+03 0.  0.
        -24    2    5    5    0    0 -0.70082183321E+02  0.39833397731E+02 -0.11004667140E+03  0.15782161666E+03  0.79367378715E+02 0.  0.
          5    1    3    3  501    0  0.13229696061E+03 -0.23485467179E+02  0.56019372872E+02  0.14565134085E+03  0.47000000000E+01 0. -1.
        -11    1    4    4    0    0 -0.20014541009E+02 -0.16057072007E+02  0.23731884239E+02  0.34951591420E+02  0.00000000000E+00 0.  1.
         12    1    4    4    0    0  0.66061345651E+00  0.15218731526E+02 -0.28687099356E+02  0.32480699944E+02  0.00000000000E+00 0. -1.
         -5    1    5    5    0  503 -0.42860849737E+02 -0.15509590071E+02  0.42845207444E+02  0.62732779512E+02  0.47000000000E+01 0.  1.
         13    1    6    6    0    0  0.91603065874E+01  0.32137620253E+02 -0.29657277073E+02  0.44679882897E+02  0.00000000000E+00 0. -1.
        -14    1    6    6    0    0 -0.79242489909E+02  0.76957774783E+01 -0.80389394326E+02  0.11314173376E+03  0.00000000000E+00 0.  1.
</event>
<event>
12    1  0.9028446E-003  0.1902489E+03  0.7818608E-02  0.1158515E+00
         21   -1    0    0  501  502  0.00000000000E+00  0.00000000000E+00  0.13243603903E+04  0.13243603903E+04  0.00000000000E+00 0. -1.
         21   -1    0    0  502  503 -0.00000000000E+00 -0.00000000000E+00 -0.49814836899E+02  0.49814836899E+02  0.00000000000E+00 0.  1.
          6    2    1    2  501    0 -0.77084095918E+02 -0.19007450204E+02  0.10995659040E+04  0.11156940380E+04  0.17153649206E+03 0.  0.
         24    2    3    3    0    0  0.15524150740E+02 -0.69453724239E+01  0.73071006574E+03  0.73517005648E+03  0.79047924170E+02 0.  0.
         -6    2    1    2    0  503  0.77084095918E+02  0.19007450204E+02  0.17497964936E+03  0.25848118919E+03  0.17289131404E+03 0.  0.
        -24    2    5    5    0    0 -0.17426960168E+02  0.40541704344E+02  0.64729147566E+02  0.11160257615E+03  0.79485493812E+02 0.  0.
          5    1    3    3  501    0 -0.92608246657E+02 -0.12062077780E+02  0.36885583830E+03  0.38052398153E+03  0.47000000000E+01 0. -1.
        -13    1    4    4    0    0  0.23621615467E+01  0.35775678566E+02  0.29404637133E+03  0.29622415073E+03  0.00000000000E+00 0.  1.
         14    1    4    4    0    0  0.13161989193E+02 -0.42721050990E+02  0.43666369441E+03  0.43894590575E+03  0.00000000000E+00 0. -1.
         -5    1    5    5    0  503  0.94511056086E+02 -0.21534254139E+02  0.11025050179E+03  0.14687861304E+03  0.47000000000E+01 0.  1.
         11    1    6    6    0    0  0.24417128922E+02  0.16725787658E+02  0.55036500400E+02  0.62489715425E+02  0.00000000000E+00 0. -1.
        -12    1    6    6    0    0 -0.41844089090E+02  0.23815916686E+02  0.96926471661E+01  0.49112860724E+02  0.00000000000E+00 0.  1.
</event>
<event>
12    1  0.9028446E-003  0.2298551E+03  0.7818608E-02  0.1126906E+00
         21   -1    0    0  503  502  0.00000000000E+00  0.00000000000E+00  0.51302571517E+02  0.51302571517E+02  0.00000000000E+00 0.  1.
         21   -1    0    0  501  503 -0.00000000000E+00 -0.00000000000E+00 -0.10284581402E+04  0.10284581402E+04  0.00000000000E+00 0. -1.
          6    2    1    2  501    0  0.51826106007E+02 -0.14301788367E+03 -0.45950590102E+03  0.51337344533E+03  0.17107472340E+03 0.  0.
         24    2    3    3    0    0 -0.34552012714E+02 -0.57549089262E+02 -0.17053162818E+03  0.19985420417E+03  0.79717798893E+02 0.  0.
         -6    2    1    2    0  502 -0.51826106007E+02  0.14301788367E+03 -0.51764966770E+03  0.56638726642E+03  0.17231743029E+03 0.  0.
        -24    2    5    5    0    0 -0.93062021978E+02  0.59293479782E+02 -0.33192313396E+03  0.35847716107E+03  0.78464332490E+02 0.  0.
          5    1    3    3  501    0  0.86378118721E+02 -0.85468794403E+02 -0.28897427284E+03  0.31351924116E+03  0.47000000000E+01 0. -1.
        -11    1    4    4    0    0 -0.23361097400E+02 -0.77501126170E+02 -0.12539931893E+03  0.14925533363E+03  0.00000000000E+00 0.  1.
         12    1    4    4    0    0 -0.11190915314E+02  0.19952036908E+02 -0.45132309243E+02  0.50598870540E+02  0.00000000000E+00 0. -1.
         -5    1    5    5    0  502  0.41235915971E+02  0.83724403884E+02 -0.18572653374E+03  0.20791010535E+03  0.47000000000E+01 0.  1.
         11    1    6    6    0    0  0.10862602447E+02 -0.19798413304E+01 -0.10824200030E+02  0.15462186453E+02  0.00000000000E+00 0. -1.
        -12    1    6    6    0    0 -0.10392462443E+03  0.61273321112E+02 -0.32109893393E+03  0.34301497462E+03  0.00000000000E+00 0.  1.
</event>
<event>
12    1  0.9028446E-003  0.2680533E+03  0.7818608E-02  0.1103053E+00
         21   -1    0    0  501  502  0.00000000000E+00  0.00000000000E+00  0.30887745813E+03  0.30887745813E+03  0.00000000000E+00 0.  1.
         21   -1    0    0  502  503 -0.00000000000E+00 -0.00000000000E+00 -0.66584261872E+03  0.66584261872E+03  0.00000000000E+00 0.  1.
          6    2    1    2  501    0  0.19239112658E+03  0.70623321137E+02  0.21586293840E+03  0.34416477096E+03  0.17277321066E+03 0.  0.
         24    2    3    3    0    0  0.11421730780E+03 -0.27471635166E+02  0.99896781175E+02  0.17327297474E+03  0.79018179843E+02 0.  0.
         -6    2    1    2    0  503 -0.19239112658E+03 -0.70623321137E+02 -0.57282809899E+03  0.63055530589E+03  0.16572858450E+03 0.  0.
        -24    2    5    5    0    0 -0.37043881762E+02 -0.61873417648E+02 -0.25533130954E+03  0.27695153245E+03  0.79419800466E+02 0.  0.
          5    1    3    3  501    0  0.78173818779E+02  0.98094956303E+02  0.11596615723E+03  0.17089179622E+03  0.47000000000E+01 0. -1.
        -13    1    4    4    0    0  0.11650905125E+03 -0.48079668327E+01  0.93906060084E+02  0.14971914937E+03  0.00000000000E+00 0.  1.
         14    1    4    4    0    0 -0.22917434453E+01 -0.22663668334E+02  0.59907210909E+01  0.23553825370E+02  0.00000000000E+00 0. -1.
         -5    1    5    5    0  503 -0.15534724482E+03 -0.87499034881E+01 -0.31749678945E+03  0.35360377345E+03  0.47000000000E+01 0.  1.
         13    1    6    6    0    0 -0.39758872421E+02 -0.19316094943E+01 -0.55451361185E+02  0.68259449959E+02  0.00000000000E+00 0. -1.
        -14    1    6    6    0    0  0.27149906591E+01 -0.59941808154E+02 -0.19987994836E+03  0.20869208249E+03  0.00000000000E+00 0.  1.
</event>
<event>
12    1  0.9028446E-003  0.1787603E+03  0.7818608E-02  0.1169095E+00
         21   -1    0    0  503  502  0.00000000000E+00  0.00000000000E+00  0.96352699466E+02  0.96352699466E+02  0.00000000000E+00 0.  1.
         21   -1    0    0  501  503 -0.00000000000E+00 -0.00000000000E+00 -0.40337228468E+03  0.40337228468E+03  0.00000000000E+00 0.  1.
          6    2    1    2  501    0  0.11524231101E+02  0.46031535086E+02 -0.25922865034E+03  0.31468657658E+03  0.17197801660E+03 0.  0.
         24    2    3    3    0    0 -0.42697427537E+02  0.13416839898E+02 -0.71044173385E+02  0.11609354051E+03  0.80170778122E+02 0.  0.
         -6    2    1    2    0  502 -0.11524231101E+02 -0.46031535086E+02 -0.47790934869E+02  0.18503840757E+03  0.17234711687E+03 0.  0.
        -24    2    5    5    0    0 -0.47913147301E+02 -0.76156295705E+02 -0.61676466366E+02  0.13557577106E+03  0.80506845276E+02 0.  0.
          5    1    3    3  501    0  0.54221658638E+02  0.32614695188E+02 -0.18818447696E+03  0.19859303607E+03  0.47000000000E+01 0. -1.
        -13    1    4    4    0    0 -0.37987199028E+02  0.32356160670E+02 -0.80262782940E+02  0.94509590776E+02  0.00000000000E+00 0.  1.
         14    1    4    4    0    0 -0.47102285093E+01 -0.18939320773E+02  0.92186095548E+01  0.21583949733E+02  0.00000000000E+00 0. -1.
         -5    1    5    5    0  502  0.36388916201E+02  0.30124760619E+02  0.13885531498E+02  0.49462636501E+02  0.47000000000E+01 0.  1.
         11    1    6    6    0    0  0.17977242396E+02  0.21082601765E+01 -0.58193896589E+01  0.19012924581E+02  0.00000000000E+00 0. -1.
        -12    1    6    6    0    0 -0.65890389697E+02 -0.78264555882E+02 -0.55857076708E+02  0.11656284648E+03  0.00000000000E+00 0.  1.
</event>
<event>
12    1  0.9028446E-003  0.1889334E+03  0.7818608E-02  0.1159561E+00
         21   -1    0    0  503  502  0.00000000000E+00  0.00000000000E+00  0.63149000617E+02  0.63149000617E+02  0.00000000000E+00 0. -1.
         21   -1    0    0  501  503 -0.00000000000E+00 -0.00000000000E+00 -0.57029581383E+03  0.57029581383E+03  0.00000000000E+00 0. -1.
          6    2    1    2  501    0  0.64168103180E+02 -0.44155648510E+02 -0.28854371456E+03  0.34489610382E+03  0.17212954557E+03 0.  0.
         24    2    3    3    0    0 -0.89095942247E+01  0.29310394903E+02 -0.11896013233E+03  0.14610402461E+03  0.79097362827E+02 0.  0.
         -6    2    1    2    0  502 -0.64168103180E+02  0.44155648510E+02 -0.21860309866E+03  0.28854871063E+03  0.17148112696E+03 0.  0.
        -24    2    5    5    0    0  0.94486127951E+01 -0.28325670844E+02 -0.94764535149E+02  0.12720732618E+03  0.79434040550E+02 0.  0.
          5    1    3    3  501    0  0.73077697405E+02 -0.73466043413E+02 -0.16958358223E+03  0.19879207921E+03  0.47000000000E+01 0. -1.
        -11    1    4    4    0    0  0.71388279704E+01 -0.21140506268E+02 -0.89948182899E+01  0.24058067797E+02  0.00000000000E+00 0.  1.
         12    1    4    4    0    0 -0.16048422195E+02  0.50450901171E+02 -0.10996531404E+03  0.12204595682E+03  0.00000000000E+00 0. -1.
         -5    1    5    5    0  502 -0.73616715975E+02  0.72481319354E+02 -0.12383856351E+03  0.16134138446E+03  0.47000000000E+01 0.  1.
         13    1    6    6    0    0 -0.16202869965E+02  0.22172103568E+02 -0.23260970780E+02  0.35988997393E+02  0.00000000000E+00 0. -1.
        -14    1    6    6    0    0  0.25651482760E+02 -0.50497774412E+02 -0.71503564369E+02  0.91218328782E+02  0.00000000000E+00 0.  1.
</event>
<event>
12    1  0.9028446E-003  0.1805302E+03  0.7818608E-02  0.1167451E+00
         21   -1    0    0  503  502  0.00000000000E+00  0.00000000000E+00  0.14955370879E+03  0.14955370879E+03  0.00000000000E+00 0. -1.
         21   -1    0    0  501  503 -0.00000000000E+00 -0.00000000000E+00 -0.22340283540E+03  0.22340283540E+03  0.00000000000E+00 0. -1.
          6    2    1    2  501    0  0.54380721749E+02 -0.29536205534E+01 -0.68119649006E+02  0.19233546807E+03  0.17142537422E+03 0.  0.
         24    2    3    3    0    0  0.23700091780E+02  0.63247549456E+02 -0.56247392098E+02  0.11826161000E+03  0.79120745818E+02 0.  0.
         -6    2    1    2    0  502 -0.54380721749E+02  0.29536205534E+01 -0.57294776069E+01  0.18062107612E+03  0.17211960799E+03 0.  0.
        -24    2    5    5    0    0  0.10524276017E+02 -0.41863745438E+02  0.27666911994E+02  0.94838421302E+02  0.79784300260E+02 0.  0.
          5    1    3    3  501    0  0.30680629969E+02 -0.66201170010E+02 -0.11872256908E+02  0.74073858075E+02  0.47000000000E+01 0. -1.
        -13    1    4    4    0    0  0.41703391383E+02  0.21616671815E+02 -0.12712191688E+01  0.46990098440E+02  0.00000000000E+00 0.  1.
         14    1    4    4    0    0 -0.18003299603E+02  0.41630877641E+02 -0.54976172929E+02  0.71271511558E+02  0.00000000000E+00 0. -1.
         -5    1    5    5    0  502 -0.64904997767E+02  0.44817365991E+02 -0.33396389600E+02  0.85782654819E+02  0.47000000000E+01 0.  1.
         11    1    6    6    0    0 -0.16890952152E+02 -0.19668377096E+02  0.47687372880E+02  0.54279230414E+02  0.00000000000E+00 0. -1.
        -12    1    6    6    0    0  0.27415228169E+02 -0.22195368342E+02 -0.20020460886E+02  0.40559190888E+02  0.00000000000E+00 0.  1.
</event>
<event>
12    1  0.9028446E-003  0.2305988E+03  0.7818608E-02  0.1126346E+00
         21   -1    0    0  503  502  0.00000000000E+00  0.00000000000E+00  0.87528960987E+02  0.87528960987E+02  0.00000000000E+00 0.  1.
         21   -1    0    0  501  503 -0.00000000000E+00 -0.00000000000E+00 -0.74645354427E+03  0.74645354427E+03  0.00000000000E+00 0.  1.
          6    2    1    2  501    0  0.61981987229E+02 -0.13770328095E+03 -0.51016755944E+03  0.55956590746E+03  0.17331793259E+03 0.  0.
         24    2    3    3    0    0  0.11024895490E+03 -0.10610666008E+03 -0.43484955234E+03  0.46457675643E+03  0.57653916442E+02 0.  0.
         -6    2    1    2    0  502 -0.61981987229E+02  0.13770328095E+03 -0.14875702384E+03  0.27441659780E+03  0.17427523255E+03 0.  0.
        -24    2    5    5    0    0 -0.62407118727E+02  0.23663291825E+02 -0.11517836951E+03  0.15544216406E+03  0.80259639396E+02 0.  0.
          5    1    3    3  501    0 -0.48266967667E+02 -0.31596620876E+02 -0.75318007097E+02  0.94989151021E+02  0.47000000000E+01 0. -1.
        -13    1    4    4    0    0  0.54682549096E+02 -0.15047340575E+02 -0.15973894791E+03  0.16950851045E+03  0.00000000000E+00 0.  1.
         14    1    4    4    0    0  0.55566405800E+02 -0.91059319501E+02 -0.27511060443E+03  0.29506824599E+03  0.00000000000E+00 0. -1.
         -5    1    5    5    0  502  0.42513149756E+00  0.11403998913E+03 -0.33578654329E+02  0.11897443374E+03  0.47000000000E+01 0.  1.
         11    1    6    6    0    0  0.62153212718E+00 -0.23433492821E+02 -0.41428502303E+02  0.47600795067E+02  0.00000000000E+00 0. -1.
        -12    1    6    6    0    0 -0.63028650854E+02  0.47096784647E+02 -0.73749867212E+02  0.10784136899E+03  0.00000000000E+00 0.  1.
</event>
<event>
12    1  0.9028446E-003  0.1813452E+03  0.7818608E-02  0.1166970E+00
         21   -1    0    0  503  502  0.00000000000E+00  0.00000000000E+00  0.64531900969E+02  0.64531900969E+02  0.00000000000E+00 0. -1.
         21   -1    0    0  501  503 -0.00000000000E+00 -0.00000000000E+00 -0.12346019012E+04  0.12346019012E+04  0.00000000000E+00 0. -1.
          6    2    1    2  501    0  0.39149597403E+02  0.34949021842E+02 -0.10859130717E+04  0.11009510824E+04  0.17358560259E+03 0.  0.
         24    2    3    3    0    0  0.60347821836E+02  0.56226416574E+02 -0.10386731220E+04  0.10447746185E+04  0.76869237181E+02 0.  0.
         -6    2    1    2    0  502 -0.39149597403E+02 -0.34949021842E+02 -0.84156928478E+02  0.19818271972E+03  0.17158052536E+03 0.  0.
        -24    2    5    5    0    0 -0.39682074679E+02  0.17864620873E+02 -0.10772252665E+03  0.14015693403E+03  0.78396502971E+02 0.  0.
          5    1    3    3  501    0 -0.21198224433E+02 -0.21277394732E+02 -0.47239949733E+02  0.56176463902E+02  0.47000000000E+01 0. -1.
        -11    1    4    4    0    0  0.42545423963E+02  0.72472807561E+01 -0.20600736928E+03  0.21047962461E+03  0.00000000000E+00 0.  1.
         12    1    4    4    0    0  0.17802397873E+02  0.48979135818E+02 -0.83266575272E+03  0.83429499391E+03  0.00000000000E+00 0. -1.
         -5    1    5    5    0  502  0.53247727647E+00 -0.52813642715E+02  0.23565598170E+02  0.58025785699E+02  0.47000000000E+01 0.  1.
         13    1    6    6    0    0 -0.62028557517E+02  0.23755558573E+02 -0.83183752714E+02  0.10644907339E+03  0.00000000000E+00 0. -1.
        -14    1    6    6    0    0  0.22346482837E+02 -0.58909376999E+01 -0.24538773935E+02  0.33707860632E+02  0.00000000000E+00 0.  1.
</event>
<event>
12    1  0.9028446E-003  0.2119705E+03  0.7818608E-02  0.1140225E+00
         21   -1    0    0  503  502  0.00000000000E+00  0.00000000000E+00  0.75387741386E+03  0.75387741386E+03  0.00000000000E+00 0.  1.
         21   -1    0    0  501  503 -0.00000000000E+00 -0.00000000000E+00 -0.59988971958E+02  0.59988971958E+02  0.00000000000E+00 0.  1.
          6    2    1    2  501    0  0.21057160426E+02 -0.12139874540E+03  0.30419440780E+03  0.37076369617E+03  0.17248310431E+03 0.  0.
         24    2    3    3    0    0  0.62839610849E+02 -0.73401043969E+02  0.10131378619E+03  0.15808509092E+03  0.73415820863E+02 0.  0.
         -6    2    1    2    0  502 -0.21057160426E+02  0.12139874540E+03  0.38969403411E+03  0.44310268965E+03  0.17116510733E+03 0.  0.
        -24    2    5    5    0    0  0.12596516924E+02 -0.39096507089E+01  0.14620348958E+03  0.16715976184E+03  0.79956037960E+02 0.  0.
          5    1    3    3  501    0 -0.41782450423E+02 -0.47997701428E+02  0.20288062160E+03  0.21267860524E+03  0.47000000000E+01 0. -1.
        -13    1    4    4    0    0 -0.14571827663E+02 -0.26088333913E+02  0.32983142388E+02  0.44506482781E+02  0.00000000000E+00 0.  1.
         14    1    4    4    0    0  0.77411438511E+02 -0.47312710055E+02  0.68330643804E+02  0.11357860814E+03  0.00000000000E+00 0. -1.
         -5    1    5    5    0  502 -0.33653677350E+02  0.12530839611E+03  0.24349054453E+03  0.27594292781E+03  0.47000000000E+01 0.  1.
         13    1    6    6    0    0 -0.33786796579E+02 -0.56121669435E+01  0.54266803153E+02  0.64171099144E+02  0.00000000000E+00 0. -1.
        -14    1    6    6    0    0  0.46383313504E+02  0.17025162346E+01  0.91936686426E+02  0.10298866270E+03  0.00000000000E+00 0.  1.
</event>
<event>
12    1  0.9028446E-003  0.2168169E+03  0.7818608E-02  0.1136417E+00
         21   -1    0    0  503  502  0.00000000000E+00  0.00000000000E+00  0.22213363756E+03  0.22213363756E+03  0.00000000000E+00 0.  1.
         21   -1    0    0  501  503 -0.00000000000E+00 -0.00000000000E+00 -0.22207311008E+03  0.22207311008E+03  0.00000000000E+00 0. -1.
          6    2    1    2  501    0 -0.54417578964E+02 -0.11909226613E+03 -0.49746409994E+02  0.22174256660E+03  0.17190351882E+03 0.  0.
         24    2    3    3    0    0 -0.48931448500E+02  0.22765868071E+01  0.17737349906E+02  0.82686304814E+02  0.64210138781E+02 0.  0.
         -6    2    1    2    0  502  0.54417578964E+02  0.11909226613E+03  0.49806937478E+02  0.22246418104E+03  0.17281591383E+03 0.  0.
        -24    2    5    5    0    0  0.66827755541E+02  0.14272732712E+03  0.89197442088E+01  0.17340828267E+03  0.71790193234E+02 0.  0.
          5    1    3    3  501    0 -0.54861304644E+01 -0.12136885294E+03 -0.67483759900E+02  0.13905626178E+03  0.47000000000E+01 0. -1.
        -13    1    4    4    0    0 -0.39842003874E+02 -0.22209046213E+02  0.29203982490E+02  0.54161790956E+02  0.00000000000E+00 0.  1.
         14    1    4    4    0    0 -0.90894446262E+01  0.24485633020E+02 -0.11466632584E+02  0.28524513858E+02  0.00000000000E+00 0. -1.
         -5    1    5    5    0  502 -0.12410176577E+02 -0.23635060995E+02  0.40887193270E+02  0.49055898365E+02  0.47000000000E+01 0.  1.
         11    1    6    6    0    0  0.19934788702E+02  0.17371687447E+01  0.14512851500E+02  0.24719150765E+02  0.00000000000E+00 0. -1.
        -12    1    6    6    0    0  0.46892966839E+02  0.14099015838E+03 -0.55931072916E+01  0.14868913191E+03  0.00000000000E+00 0.  1.
</event>
<event>
12    1  0.9028446E-003  0.1763163E+03  0.7818608E-02  0.1172497E+00
         21   -1    0    0  503  502  0.00000000000E+00  0.00000000000E+00  0.91837104420E+03  0.91837104420E+03  0.00000000000E+00 0.  1.
         21   -1    0    0  501  503 -0.00000000000E+00 -0.00000000000E+00 -0.10366802804E+03  0.10366802804E+03  0.00000000000E+00 0.  1.
          6    2    1    2  501    0 -0.37194870751E+02 -0.37906100075E+01 -0.12860715789E+02  0.17678474086E+03  0.17230675975E+03 0.  0.
         24    2    3    3    0    0 -0.20640122798E+02  0.54869747177E+02  0.27648399998E+02  0.10344869484E+03  0.80625644906E+02 0.  0.
         -6    2    1    2    0  502  0.37194870751E+02  0.37906100075E+01  0.82756373196E+03  0.84525433138E+03  0.16791464238E+03 0.  0.
        -24    2    5    5    0    0  0.80406077458E+02  0.14063387895E+02  0.41988679610E+03  0.43513811324E+03  0.79858248681E+02 0.  0.
          5    1    3    3  501    0 -0.16554747952E+02 -0.58660357185E+02 -0.40509115786E+02  0.73336046025E+02  0.47000000000E+01 0. -1.
        -13    1    4    4    0    0  0.27678903883E+02  0.36681862058E+02  0.23606806163E+02  0.51661997846E+02  0.00000000000E+00 0.  1.
         14    1    4    4    0    0 -0.48319026681E+02  0.18187885119E+02  0.40415938350E+01  0.51786696991E+02  0.00000000000E+00 0. -1.
         -5    1    5    5    0  502 -0.43211206707E+02 -0.10272777888E+02  0.40767693585E+03  0.41011621814E+03  0.47000000000E+01 0.  1.
         13    1    6    6    0    0 -0.13914538559E+02  0.41989204790E+01  0.24060301155E+02  0.28109489646E+02  0.00000000000E+00 0. -1.
        -14    1    6    6    0    0  0.94320616017E+02  0.98644674163E+01  0.39582649495E+03  0.40702862359E+03  0.00000000000E+00 0.  1.
</event>
<event>
12    1  0.9028446E-003  0.2699519E+03  0.7818608E-02  0.1101557E+00
         21   -1    0    0  501  502  0.00000000000E+00  0.00000000000E+00  0.23776321325E+03  0.23776321325E+03  0.00000000000E+00 0.  1.
         21   -1    0    0  502  503 -0.00000000000E+00 -0.00000000000E+00 -0.36071157432E+03  0.36071157432E+03  0.00000000000E+00 0.  1.
          6    2    1    2  501    0  0.19766973922E+03  0.64480754882E+02  0.56789823553E+02  0.27416038502E+03  0.16943358316E+03 0.  0.
         24    2    3    3    0    0  0.21489706068E+03  0.39255135293E+02  0.32518893857E+02  0.23486305029E+03  0.79884050947E+02 0.  0.
         -6    2    1    2    0  503 -0.19766973922E+03 -0.64480754882E+02 -0.17973818462E+03  0.32431440255E+03  0.17217120300E+03 0.  0.
        -24    2    5    5    0    0 -0.13172208811E+03 -0.21131006337E+02 -0.37986307521E+02  0.16200612166E+03  0.83700633054E+02 0.  0.
          5    1    3    3  501    0 -0.17227321465E+02  0.25225619589E+02  0.24270929697E+02  0.39297334730E+02  0.47000000000E+01 0. -1.
        -11    1    4    4    0    0  0.17070068205E+03  0.61414232048E+02  0.13581640142E+02  0.18192001457E+03  0.00000000000E+00 0.  1.
         12    1    4    4    0    0  0.44196378631E+02 -0.22159096755E+02  0.18937253715E+02  0.52943035720E+02  0.00000000000E+00 0. -1.
         -5    1    5    5    0  503 -0.65947651112E+02 -0.43349748545E+02 -0.14175187709E+03  0.16230828089E+03  0.47000000000E+01 0.  1.
         11    1    6    6    0    0 -0.11330497507E+03  0.28299948912E+01 -0.56420033215E+02  0.12660666015E+03  0.00000000000E+00 0. -1.
        -12    1    6    6    0    0 -0.18417113037E+02 -0.23961001228E+02  0.18433725694E+02  0.35399461514E+02  0.00000000000E+00 0.  1.
</event>
<event>
12    1  0.9028446E-003  0.1960280E+03  0.7818608E-02  0.1153697E+00
         21   -1    0    0  501  502  0.00000000000E+00  0.00000000000E+00  0.10504875191E+02  0.10504875191E+02  0.00000000000E+00 0.  1.
         21   -1    0    0  502  503 -0.00000000000E+00 -0.00000000000E+00 -0.36383575773E+04  0.36383575773E+04  0.00000000000E+00 0.  1.
          6    2    1    2  501    0  0.18111324670E+02 -0.85645705288E+02 -0.16648355406E+04  0.16763365930E+04  0.17539609171E+03 0.  0.
         24    2    3    3    0    0  0.54081705717E+02 -0.26388707940E+02 -0.13601001962E+04  0.13637810297E+04  0.80030984349E+02 0.  0.
         -6    2    1    2    0  503 -0.18111324670E+02  0.85645705288E+02 -0.19630171615E+04  0.19725258594E+04  0.17250705183E+03 0.  0.
        -24    2    5    5    0    0 -0.73783731458E+02  0.83185276614E+02 -0.14868143482E+04  0.14930504378E+04  0.78859840692E+02 0.  0.
          5    1    3    3  501    0 -0.35970381047E+02 -0.59256997348E+02 -0.30473534439E+03  0.31255556333E+03  0.47000000000E+01 0. -1.
        -11    1    4    4    0    0  0.24012693278E+02 -0.32313199750E+02 -0.24702860556E+03  0.25028760314E+03  0.00000000000E+00 0.  1.
         12    1    4    4    0    0  0.30069012438E+02  0.59244918097E+01 -0.11130715907E+04  0.11134934266E+04  0.00000000000E+00 0. -1.
         -5    1    5    5    0  503  0.55672406788E+02  0.24604286747E+01 -0.47620281331E+03  0.47947542168E+03  0.47000000000E+01 0.  1.
         11    1    6    6    0    0  0.12956051241E+00  0.41916826954E+02 -0.26376480856E+03  0.26707473000E+03  0.00000000000E+00 0. -1.
        -12    1    6    6    0    0 -0.73913291970E+02  0.41268449659E+02 -0.12230495396E+04  0.12259757077E+04  0.00000000000E+00 0.  1.
</event>
<event>
12    1  0.9028446E-003  0.2280929E+03  0.7818608E-02  0.1128166E+00
         21   -1    0    0  501  502  0.00000000000E+00  0.00000000000E+00  0.50535264500E+03  0.50535264500E+03  0.00000000000E+00 0.  1.
         21   -1    0    0  502  503 -0.00000000000E+00 -0.00000000000E+00 -0.10943232213E+03  0.10943232213E+03  0.00000000000E+00 0.  1.
          6    2    1    2  501    0  0.29947543104E+02 -0.14505860287E+03  0.12101655060E+03  0.25820799234E+03  0.17345751117E+03 0.  0.
         24    2    3    3    0    0  0.21836563719E+02 -0.12689221667E+03  0.17028466116E+02  0.15222961110E+03  0.79406647520E+02 0.  0.
         -6    2    1    2    0  503 -0.29947543104E+02  0.14505860287E+03  0.27490377226E+03  0.35657697479E+03  0.17215168121E+03 0.  0.
        -24    2    5    5    0    0 -0.55351035690E+02  0.16535441256E+03  0.21390999935E+03  0.28729791836E+03  0.79854788008E+02 0.  0.
          5    1    3    3  501    0  0.81109793851E+01 -0.18166386197E+02  0.10398808449E+03  0.10597838124E+03  0.47000000000E+01 0. -1.
        -13    1    4    4    0    0  0.12872210980E+02 -0.10503821999E+03  0.45537939038E+02  0.11520601272E+03  0.00000000000E+00 0.  1.
         14    1    4    4    0    0  0.89643527388E+01 -0.21853996683E+02 -0.28509472922E+02  0.37023598385E+02  0.00000000000E+00 0. -1.
         -5    1    5    5    0  503  0.25403492586E+02 -0.20295809687E+02  0.60993772914E+02  0.69279056436E+02  0.47000000000E+01 0.  1.
         13    1    6    6    0    0 -0.10780486411E+02  0.47154963730E+02  0.12152095300E+03  0.13079430993E+03  0.00000000000E+00 0. -1.
        -14    1    6    6    0    0 -0.44570549279E+02  0.11819944883E+03  0.92389046345E+02  0.15650360843E+03  0.00000000000E+00 0.  1.
</event>
<event>
12    1  0.9028446E-003  0.1822695E+03  0.7818608E-02  0.1165666E+00
         21   -1    0    0  503  502  0.00000000000E+00  0.00000000000E+00  0.15426419484E+03  0.15426419484E+03  0.00000000000E+00 0.  1.
         21   -1    0    0  501  503 -0.00000000000E+00 -0.00000000000E+00 -0.25425590989E+03  0.25425590989E+03  0.00000000000E+00 0.  1.
          6    2    1    2  501    0  0.51160487424E+02  0.32029469398E+02 -0.13011856324E+03  0.22394867868E+03  0.17198513831E+03 0.  0.
         24    2    3    3    0    0 -0.18196283469E+02  0.38673937508E+02 -0.12367890737E+03  0.15381972751E+03  0.80853313272E+02 0.  0.
         -6    2    1    2    0  502 -0.51160487424E+02 -0.32029469398E+02  0.30126848193E+02  0.18457142605E+03  0.17180134443E+03 0.  0.
        -24    2    5    5    0    0 -0.86088394520E+02 -0.34837532970E+02  0.61601945056E+02  0.13723628437E+03  0.80088280903E+02 0.  0.
          5    1    3    3  501    0  0.69356770893E+02 -0.66444681098E+01 -0.64396558644E+01  0.70128951175E+02  0.47000000000E+01 0. -1.
        -11    1    4    4    0    0  0.69376147054E+00 -0.38053101631E+01 -0.10277246206E+03  0.10284522666E+03  0.00000000000E+00 0.  1.
         12    1    4    4    0    0 -0.18890044940E+02  0.42479247671E+02 -0.20906445317E+02  0.50974500844E+02  0.00000000000E+00 0. -1.
         -5    1    5    5    0  502  0.34927907096E+02  0.28080635723E+01 -0.31475096863E+02  0.47335141678E+02  0.47000000000E+01 0.  1.
         11    1    6    6    0    0 -0.45732322344E+02 -0.32661451171E+02 -0.79871439014E+01  0.56762753344E+02  0.00000000000E+00 0. -1.
        -12    1    6    6    0    0 -0.40356072177E+02 -0.21760817996E+01  0.69589088957E+02  0.80473531024E+02  0.00000000000E+00 0.  1.
</event>
<event>
12    1  0.9028446E-003  0.2107447E+03  0.7818608E-02  0.1141252E+00
         21   -1    0    0  503  502  0.00000000000E+00  0.00000000000E+00  0.75576531811E+02  0.75576531811E+02  0.00000000000E+00 0.  1.
         21   -1    0    0  501  503 -0.00000000000E+00 -0.00000000000E+00 -0.59228585938E+03  0.59228585938E+03  0.00000000000E+00 0.  1.
          6    2    1    2  501    0 -0.11894601719E+03  0.20079899822E+02 -0.29915315013E+03  0.36593159827E+03  0.17280616306E+03 0.  0.
         24    2    3    3    0    0 -0.10005176438E+03  0.65238166669E+02 -0.27445953027E+03  0.31090318092E+03  0.84061764209E+02 0.  0.
         -6    2    1    2    0  502  0.11894601719E+03 -0.20079899822E+02 -0.21755617743E+03  0.30193079292E+03  0.17111445291E+03 0.  0.
        -24    2    5    5    0    0  0.95020424926E+02  0.45810886239E+02 -0.10481903443E+03  0.16909336196E+03  0.80486126930E+02 0.  0.
          5    1    3    3  501    0 -0.18894252808E+02 -0.45158266847E+02 -0.24693619861E+02  0.55028417346E+02  0.47000000000E+01 0. -1.
        -13    1    4    4    0    0 -0.73584792459E+02  0.55520382052E+02 -0.10763482827E+03  0.14171270501E+03  0.00000000000E+00 0.  1.
         14    1    4    4    0    0 -0.26466971925E+02  0.97177846168E+01 -0.16682470200E+03  0.16919047591E+03  0.00000000000E+00 0. -1.
         -5    1    5    5    0  502  0.23925592266E+02 -0.65890786061E+02 -0.11273714300E+03  0.13283743097E+03  0.47000000000E+01 0.  1.
         11    1    6    6    0    0  0.39079457763E+02 -0.19609327312E+02 -0.19424446530E+02  0.47843900966E+02  0.00000000000E+00 0. -1.
        -12    1    6    6    0    0  0.55940967163E+02  0.65420213550E+02 -0.85394587899E+02  0.12124946099E+03  0.00000000000E+00 0.  1.
</event>
<event>
12    1  0.9028446E-003  0.1827793E+03  0.7818608E-02  0.1165769E+00
         21   -1    0    0  503  502  0.00000000000E+00  0.00000000000E+00  0.34595158255E+03  0.34595158255E+03  0.00000000000E+00 0. -1.
         21   -1    0    0  501  503 -0.00000000000E+00 -0.00000000000E+00 -0.95206367493E+02  0.95206367493E+02  0.00000000000E+00 0. -1.
          6    2    1    2  501    0 -0.52734058083E+02 -0.10750931235E+02  0.12788903041E+03  0.22092645375E+03  0.17191983731E+03 0.  0.
         24    2    3    3    0    0 -0.72085683893E+02 -0.15130754968E+02  0.18740022803E+02  0.10988923413E+03  0.79367309113E+02 0.  0.
         -6    2    1    2    0  502  0.52734058083E+02  0.10750931235E+02  0.12285618465E+03  0.22023149630E+03  0.17467629047E+03 0.  0.
        -24    2    5    5    0    0  0.18559936874E+02  0.17425317173E+02 -0.78022581676E+01  0.84931323841E+02  0.80649498457E+02 0.  0.
          5    1    3    3  501    0  0.19351625810E+02  0.43798237333E+01  0.10914900761E+03  0.11103721961E+03  0.47000000000E+01 0. -1.
        -11    1    4    4    0    0 -0.46184742447E+02  0.30825488001E+02  0.96077456881E+01  0.56352017911E+02  0.00000000000E+00 0.  1.
         12    1    4    4    0    0 -0.25900941445E+02 -0.45956242969E+02  0.91322771149E+01  0.53537216223E+02  0.00000000000E+00 0. -1.
         -5    1    5    5    0  502  0.34174121208E+02 -0.66743859383E+01  0.13065844282E+03  0.13530017246E+03  0.47000000000E+01 0.  1.
         11    1    6    6    0    0  0.27872839225E+01  0.46618541661E+02  0.92737021548E+01  0.47613642266E+02  0.00000000000E+00 0. -1.
        -12    1    6    6    0    0  0.15772652952E+02 -0.29193224488E+02 -0.17075960322E+02  0.37317681574E+02  0.00000000000E+00 0.  1.
</event>
<event>
12    1  0.9028446E-003  0.1743614E+03  0.7818608E-02  0.1173518E+00
         21   -1    0    0  503  502  0.00000000000E+00  0.00000000000E+00  0.10036250426E+04  0.10036250426E+04  0.00000000000E+00 0.  1.
         21   -1    0    0  501  503 -0.00000000000E+00 -0.00000000000E+00 -0.31845956902E+02  0.31845956902E+02  0.00000000000E+00 0.  1.
          6    2    1    2  501    0 -0.28320278662E+02  0.68738257595E+01  0.36720885807E+03  0.40625954801E+03  0.17133355551E+03 0.  0.
         24    2    3    3    0    0  0.29981676528E+02  0.13592614106E+01  0.31848976262E+03  0.32993675547E+03  0.80757570556E+02 0.  0.
         -6    2    1    2    0  502  0.28320278662E+02 -0.68738257595E+01  0.60457022764E+03  0.62921145150E+03  0.17190870510E+03 0.  0.
        -24    2    5    5    0    0  0.51994605977E+02 -0.54932304999E+02  0.28966283347E+03  0.30974494605E+03  0.79475639840E+02 0.  0.
          5    1    3    3  501    0 -0.58301955190E+02  0.55145643489E+01  0.48719095449E+02  0.76322792535E+02  0.47000000000E+01 0. -1.
        -13    1    4    4    0    0  0.26842016920E+01  0.22803992730E+02  0.23299111589E+02  0.32712010394E+02  0.00000000000E+00 0.  1.
         14    1    4    4    0    0  0.27297474836E+02 -0.21444731320E+02  0.29519065103E+03  0.29722474508E+03  0.00000000000E+00 0. -1.
         -5    1    5    5    0  502 -0.23674327315E+02  0.48058479239E+02  0.31490739417E+03  0.31946650545E+03  0.47000000000E+01 0.  1.
         13    1    6    6    0    0  0.10350203878E+02  0.12024144168E+02  0.90515065449E+01  0.18265720189E+02  0.00000000000E+00 0. -1.
        -14    1    6    6    0    0  0.41644402099E+02 -0.66956449167E+02  0.28061132693E+03  0.29147922586E+03  0.00000000000E+00 0.  1.
</event>
<event>
12    1  0.9028446E-003  0.2462543E+03  0.7818608E-02  0.1115718E+00
         21   -1    0    0  503  502  0.00000000000E+00  0.00000000000E+00  0.52055586536E+03  0.52055586536E+03  0.00000000000E+00 0. -1.
         21   -1    0    0  501  503 -0.00000000000E+00 -0.00000000000E+00 -0.12309710004E+03  0.12309710004E+03  0.00000000000E+00 0.  1.
          6    2    1    2  501    0 -0.49420965962E+02  0.16821503756E+03  0.27371246991E+03  0.36818434554E+03  0.17292329335E+03 0.  0.
         24    2    3    3    0    0 -0.75148600681E+02  0.18156591010E+03  0.21269441896E+03  0.30046839818E+03  0.80180113199E+02 0.  0.
         -6    2    1    2    0  502  0.49420965962E+02 -0.16821503756E+03  0.12374629541E+03  0.27546861986E+03  0.17271677441E+03 0.  0.
        -24    2    5    5    0    0  0.74822557984E+02 -0.48002440933E+02  0.39514398244E+02  0.12642697546E+03  0.80744925152E+02 0.  0.
          5    1    3    3  501    0  0.25727634719E+02 -0.13350872545E+02  0.61018050951E+02  0.67715947367E+02  0.47000000000E+01 0. -1.
        -13    1    4    4    0    0 -0.20796843307E+01  0.35271631285E+02  0.43302037553E+01  0.35597243221E+02  0.00000000000E+00 0.  1.
         14    1    4    4    0    0 -0.73068916351E+02  0.14629427882E+03  0.20836421520E+03  0.26487115496E+03  0.00000000000E+00 0. -1.
         -5    1    5    5    0  502 -0.25401592022E+02 -0.12021259662E+03  0.84231897171E+02  0.14904164440E+03  0.47000000000E+01 0.  1.
         11    1    6    6    0    0  0.38430038273E+02  0.23487430824E+01 -0.17327281514E+02  0.42221074363E+02  0.00000000000E+00 0. -1.
        -12    1    6    6    0    0  0.36392519711E+02 -0.50351184015E+02  0.56841679757E+02  0.84205901101E+02  0.00000000000E+00 0.  1.
</event>
<event>
12    1  0.9028446E-003  0.3438667E+03  0.7818608E-02  0.1065337E+00
         21   -1    0    0  503  502  0.00000000000E+00  0.00000000000E+00  0.20949109257E+03  0.20949109257E+03  0.00000000000E+00 0. -1.
         21   -1    0    0  501  503 -0.00000000000E+00 -0.00000000000E+00 -0.61746194892E+03  0.61746194892E+03  0.00000000000E+00 0.  1.
          6    2    1    2  501    0 -0.12063662245E+03  0.27234082113E+03 -0.32869392388E+03  0.47569321641E+03  0.17181857588E+03 0.  0.
         24    2    3    3    0    0 -0.26959736475E+02  0.18839565826E+03 -0.26034054547E+03  0.33245766330E+03  0.80815511070E+02 0.  0.
         -6    2    1    2    0  502  0.12063662245E+03 -0.27234082113E+03 -0.79276932478E+02  0.35125982508E+03  0.16845152168E+03 0.  0.
        -24    2    5    5    0    0  0.75234148822E+02 -0.20545823874E+03 -0.11873497666E+03  0.26118379225E+03  0.79029827513E+02 0.  0.
          5    1    3    3  501    0 -0.93676885977E+02  0.83945162871E+02 -0.68353378405E+02  0.14323555311E+03  0.47000000000E+01 0. -1.
        -13    1    4    4    0    0 -0.23108601649E+02  0.19646412439E+03 -0.24949752189E+03  0.31840410341E+03  0.00000000000E+00 0.  1.
         14    1    4    4    0    0 -0.38511348259E+01 -0.80684661284E+01 -0.10843023585E+02  0.14053559890E+02  0.00000000000E+00 0. -1.
         -5    1    5    5    0  502  0.45402473629E+02 -0.66882582391E+02  0.39458044180E+02  0.90076032825E+02  0.47000000000E+01 0.  1.
         13    1    6    6    0    0  0.10033898120E+02 -0.11522830325E+03 -0.31850164434E+02  0.11996947093E+03  0.00000000000E+00 0. -1.
        -14    1    6    6    0    0  0.65200250702E+02 -0.90229935494E+02 -0.86884812224E+02  0.14121432132E+03  0.00000000000E+00 0.  1.
</event>
<event>
12    1  0.9028446E-003  0.1938989E+03  0.7818608E-02  0.1155060E+00
         21   -1    0    0  501  502  0.00000000000E+00  0.00000000000E+00  0.51366699934E+03  0.51366699934E+03  0.00000000000E+00 0. -1.
         21   -1    0    0  502  503 -0.00000000000E+00 -0.00000000000E+00 -0.78582750382E+02  0.78582750382E+02  0.00000000000E+00 0. -1.
          6    2    1    2  501    0 -0.90947825998E+02  0.16453453179E+01  0.29578326206E+03  0.35349974372E+03  0.17088041572E+03 0.  0.
         24    2    3    3    0    0  0.92123400485E+01 -0.31266590209E+02  0.11455963518E+03  0.14378720879E+03  0.80550509176E+02 0.  0.
         -6    2    1    2    0  503  0.90947825998E+02 -0.16453453179E+01  0.13930098690E+03  0.23875000601E+03  0.17123838998E+03 0.  0.
        -24    2    5    5    0    0  0.11253035291E+03 -0.33084413708E+02  0.13970686139E+03  0.20032507630E+03  0.82791728555E+02 0.  0.
          5    1    3    3  501    0 -0.10016016605E+03  0.32911935527E+02  0.18122362688E+03  0.20971253492E+03  0.47000000000E+01 0. -1.
        -13    1    4    4    0    0  0.44440336968E+02 -0.10237653307E+02  0.54693976739E+02  0.71212247448E+02  0.00000000000E+00 0.  1.
         14    1    4    4    0    0 -0.35227996920E+02 -0.21028936902E+02  0.59865658438E+02  0.72574961347E+02  0.00000000000E+00 0. -1.
         -5    1    5    5    0  503 -0.21582526916E+02  0.31439068390E+02 -0.40587448694E+00  0.38424929712E+02  0.47000000000E+01 0.  1.
         11    1    6    6    0    0  0.51477890219E+02 -0.31720039707E+02  0.16283222395E+02  0.62620104056E+02  0.00000000000E+00 0. -1.
        -12    1    6    6    0    0  0.61052462695E+02 -0.13643740005E+01  0.12342363899E+03  0.13770497224E+03  0.00000000000E+00 0.  1.
</event>
<event>
12    1  0.9028446E-003  0.1933544E+03  0.7818608E-02  0.1155568E+00
         21   -1    0    0  503  502  0.00000000000E+00  0.00000000000E+00  0.26344401707E+03  0.26344401707E+03  0.00000000000E+00 0. -1.
         21   -1    0    0  501  503 -0.00000000000E+00 -0.00000000000E+00 -0.20447690096E+03  0.20447690096E+03  0.00000000000E+00 0. -1.
          6    2    1    2  501    0  0.83727226142E+02  0.32735233835E+02 -0.10024306376E+03  0.21779485699E+03  0.17118435666E+03 0.  0.
         24    2    3    3    0    0  0.33589070082E+01 -0.33974294046E+02 -0.46122756152E+02  0.10006497324E+03  0.81976553495E+02 0.  0.
         -6    2    1    2    0  502 -0.83727226142E+02 -0.32735233835E+02  0.15921017987E+03  0.25012606104E+03  0.17068485904E+03 0.  0.
        -24    2    5    5    0    0 -0.38912666140E+02 -0.25650107587E+02  0.17794455303E+03  0.20081469785E+03  0.80561500217E+02 0.  0.
          5    1    3    3  501    0  0.80368319134E+02  0.66709527881E+02 -0.54120307605E+02  0.11772988374E+03  0.47000000000E+01 0. -1.
        -13    1    4    4    0    0  0.36800385895E+02  0.45193190952E+01 -0.25815771681E+02  0.45179051723E+02  0.00000000000E+00 0.  1.
         14    1    4    4    0    0 -0.33441478887E+02 -0.38493613141E+02 -0.20306984471E+02  0.54885921520E+02  0.00000000000E+00 0. -1.
         -5    1    5    5    0  502 -0.44814560002E+02 -0.70851262485E+01 -0.18734373155E+02  0.49311363190E+02  0.47000000000E+01 0.  1.
         11    1    6    6    0    0 -0.41693618105E+02  0.19469575984E+02  0.10965381653E+03  0.11891754143E+03  0.00000000000E+00 0. -1.
        -12    1    6    6    0    0  0.27809519649E+01 -0.45119683571E+02  0.68290736491E+02  0.81897156421E+02  0.00000000000E+00 0.  1.
</event>
<event>
12    1  0.9028446E-003  0.1866751E+03  0.7818608E-02  0.1161570E+00
         21   -1    0    0  501  502  0.00000000000E+00  0.00000000000E+00  0.94993814790E+02  0.94993814790E+02  0.00000000000E+00 0. -1.
         21   -1    0    0  502  503 -0.00000000000E+00 -0.00000000000E+00 -0.49161990481E+03  0.49161990481E+03  0.00000000000E+00 0. -1.
          6    2    1    2  501    0  0.69521330212E+02 -0.18614252508E+02 -0.50297995669E+02  0.19333257254E+03  0.17224369215E+03 0.  0.
         24    2    3    3    0    0  0.63474646313E+02 -0.17048029563E+02  0.33237630077E+02  0.10943199918E+03  0.80937978452E+02 0.  0.
         -6    2    1    2    0  503 -0.69521330212E+02  0.18614252508E+02 -0.34632809435E+03  0.39328114706E+03  0.17189300726E+03 0.  0.
        -24    2    5    5    0    0  0.17646043572E+02  0.19719585955E+01 -0.24633636373E+03  0.25950688500E+03  0.79667733673E+02 0.  0.
          5    1    3    3  501    0  0.60466838996E+01 -0.15662229456E+01 -0.83535625746E+02  0.83900573355E+02  0.47000000000E+01 0. -1.
        -13    1    4    4    0    0  0.20015744074E+02 -0.10962610488E+02 -0.26714787012E+02  0.35135291156E+02  0.00000000000E+00 0.  1.
         14    1    4    4    0    0  0.43458902239E+02 -0.60854190744E+01  0.59952417089E+02  0.74296708029E+02  0.00000000000E+00 0. -1.
         -5    1    5    5    0  503 -0.87167373784E+02  0.16642293913E+02 -0.99991730618E+02  0.13377426207E+03  0.47000000000E+01 0.  1.
         13    1    6    6    0    0 -0.72628087653E+01  0.20171626755E+02 -0.21304003658E+03  0.21411609025E+03  0.00000000000E+00 0. -1.
        -14    1    6    6    0    0  0.24908852337E+02 -0.18199668160E+02 -0.33296327149E+02  0.45390794744E+02  0.00000000000E+00 0.  1.
</event>
<event>
12    1  0.9028446E-003  0.2098704E+03  0.7818608E-02  0.1141753E+00
         21   -1    0    0  503  502  0.00000000000E+00  0.00000000000E+00  0.82824420411E+02  0.82824420411E+02  0.00000000000E+00 0.  1.
         21   -1    0    0  501  503 -0.00000000000E+00 -0.00000000000E+00 -0.55181703180E+03  0.55181703180E+03  0.00000000000E+00 0.  1.
          6    2    1    2  501    0  0.84472354082E+02  0.85200602750E+02 -0.29632074114E+03  0.36286732133E+03  0.17167408058E+03 0.  0.
         24    2    3    3    0    0  0.10159557720E+02  0.10410379665E+03 -0.16651120589E+03  0.21202857337E+03  0.79305215130E+02 0.  0.
         -6    2    1    2    0  502 -0.84472354082E+02 -0.85200602750E+02 -0.17267187024E+03  0.27177413088E+03  0.17219431503E+03 0.  0.
        -24    2    5    5    0    0 -0.16487986230E+02 -0.44405141227E+02 -0.14112959268E+02  0.94435014489E+02  0.80468168147E+02 0.  0.
          5    1    3    3  501    0  0.74312796362E+02 -0.18903193905E+02 -0.12980953525E+03  0.15083874796E+03  0.47000000000E+01 0. -1.
        -11    1    4    4    0    0 -0.25481084492E+02  0.29011271408E+02 -0.19767557876E+02  0.43378518647E+02  0.00000000000E+00 0.  1.
         12    1    4    4    0    0  0.35640642213E+02  0.75092525247E+02 -0.14674364801E+03  0.16865005472E+03  0.00000000000E+00 0. -1.
         -5    1    5    5    0  502 -0.67984367852E+02 -0.40795461522E+02 -0.15855891097E+03  0.17733911639E+03  0.47000000000E+01 0.  1.
         11    1    6    6    0    0 -0.10949034644E+02  0.13092787344E+02 -0.30009477616E+02  0.34523487466E+02  0.00000000000E+00 0. -1.
        -12    1    6    6    0    0 -0.55389515863E+01 -0.57497928571E+02  0.15896518347E+02  0.59911527023E+02  0.00000000000E+00 0.  1.
</event>
<event>
12    1  0.9028446E-003  0.1780777E+03  0.7818608E-02  0.1172227E+00
         21   -1    0    0  501  502  0.00000000000E+00  0.00000000000E+00  0.79831749375E+02  0.79831749375E+02  0.00000000000E+00 0.  1.
         21   -1    0    0  502  503 -0.00000000000E+00 -0.00000000000E+00 -0.77581883981E+03  0.77581883981E+03  0.00000000000E+00 0.  1.
          6    2    1    2  501    0  0.19850076932E+02  0.27176696474E+02 -0.65051418989E+03  0.67185875106E+03  0.16459912436E+03 0.  0.
         24    2    3    3    0    0  0.52755043336E+02 -0.25031747031E+02 -0.29654961227E+03  0.31252398987E+03  0.79497727960E+02 0.  0.
         -6    2    1    2    0  503 -0.19850076932E+02 -0.27176696474E+02 -0.45472900541E+02  0.18379183812E+03  0.17486868414E+03 0.  0.
        -24    2    5    5    0    0  0.21557076998E+02 -0.50812941511E+02 -0.78629661137E+02  0.12552791061E+03  0.80795854708E+02 0.  0.
          5    1    3    3  501    0 -0.32904966404E+02  0.52208443505E+02 -0.35396457762E+03  0.35933476119E+03  0.47000000000E+01 0. -1.
        -13    1    4    4    0    0  0.45604267506E+02  0.21520010134E+02 -0.12981693906E+03  0.13926700154E+03  0.00000000000E+00 0.  1.
         14    1    4    4    0    0  0.71507758308E+01 -0.46551757165E+02 -0.16673267320E+03  0.17325698833E+03  0.00000000000E+00 0. -1.
         -5    1    5    5    0  503 -0.41407153930E+02  0.23636245037E+02  0.33156760596E+02  0.58263927513E+02  0.47000000000E+01 0.  1.
         13    1    6    6    0    0 -0.15808435771E+02 -0.45467513486E+02 -0.13072580291E+02  0.49880795699E+02  0.00000000000E+00 0. -1.
        -14    1    6    6    0    0  0.37365512769E+02 -0.53454280250E+01 -0.65557080847E+02  0.75647114911E+02  0.00000000000E+00 0.  1.
</event>
<event>
12    1  0.9028446E-003  0.1820832E+03  0.7818608E-02  0.1166379E+00
         21   -1    0    0  501  502  0.00000000000E+00  0.00000000000E+00  0.50697350294E+03  0.50697350294E+03  0.00000000000E+00 0.  1.
         21   -1    0    0  502  503 -0.00000000000E+00 -0.00000000000E+00 -0.66881091590E+02  0.66881091590E+02  0.00000000000E+00 0.  1.
          6    2    1    2  501    0  0.82168607540E+01  0.58648051304E+02  0.16490239584E+03  0.24387910098E+03  0.16963815909E+03 0.  0.
         24    2    3    3    0    0 -0.33211504000E+01  0.10455400390E+03  0.12711338903E+03  0.18312894690E+03  0.80223610938E+02 0.  0.
         -6    2    1    2    0  503 -0.82168607540E+01 -0.58648051304E+02  0.27519001552E+03  0.32997549356E+03  0.17218353866E+03 0.  0.
        -24    2    5    5    0    0  0.10074824930E+02 -0.15674074836E+02  0.48637356148E+02  0.98610963246E+02  0.83733810016E+02 0.  0.
          5    1    3    3  501    0  0.11538011154E+02 -0.45905952592E+02  0.37789006806E+02  0.60750154075E+02  0.47000000000E+01 0. -1.
        -13    1    4    4    0    0 -0.34889721604E+02  0.55853110482E+02  0.35866254165E+02  0.74988337840E+02  0.00000000000E+00 0.  1.
         14    1    4    4    0    0  0.31568571204E+02  0.48700893414E+02  0.91247134866E+02  0.10814060906E+03  0.00000000000E+00 0. -1.
         -5    1    5    5    0  503 -0.18291685684E+02 -0.42973976468E+02  0.22655265937E+03  0.23136453031E+03  0.47000000000E+01 0.  1.
         11    1    6    6    0    0 -0.44682657049E+01 -0.40211312824E+02 -0.19832718357E+01  0.40507387531E+02  0.00000000000E+00 0. -1.
        -12    1    6    6    0    0  0.14543090635E+02  0.24537237988E+02  0.50620627984E+02  0.58103575714E+02  0.00000000000E+00 0.  1.
</event>
<event>
12    1  0.9028446E-003  0.2107539E+03  0.7818608E-02  0.1143121E+00
         21   -1    0    0  501  502  0.00000000000E+00  0.00000000000E+00  0.63418589471E+03  0.63418589471E+03  0.00000000000E+00 0.  1.
         21   -1    0    0  502  503 -0.00000000000E+00 -0.00000000000E+00 -0.73331239469E+02  0.73331239469E+02  0.00000000000E+00 0.  1.
          6    2    1    2  501    0  0.24307705703E+02  0.10011848259E+03  0.39451169176E+03  0.44727695657E+03  0.18385490428E+03 0.  0.
         24    2    3    3    0    0  0.42174166479E+02  0.72922534131E+01  0.87487725394E+02  0.12599557651E+03  0.79930882196E+02 0.  0.
         -6    2    1    2    0  503 -0.24307705703E+02 -0.10011848259E+03  0.16634296348E+03  0.26024017761E+03  0.17158203121E+03 0.  0.
        -24    2    5    5    0    0 -0.60370590588E+02 -0.12176017520E+03  0.13554710354E+03  0.20790119105E+03  0.79873271418E+02 0.  0.
          5    1    3    3  501    0 -0.17866460776E+02  0.92826229173E+02  0.30702396637E+03  0.32128138005E+03  0.47000000000E+01 0. -1.
        -11    1    4    4    0    0 -0.13330098526E+02  0.24776581909E+02  0.48106011587E+02  0.55729335979E+02  0.00000000000E+00 0.  1.
         12    1    4    4    0    0  0.55504265005E+02 -0.17484328496E+02  0.39381713807E+02  0.70266240536E+02  0.00000000000E+00 0. -1.
         -5    1    5    5    0  503  0.36062884885E+02  0.21641692616E+02  0.30795859936E+02  0.52338986566E+02  0.47000000000E+01 0.  1.
         11    1    6    6    0    0 -0.53407740152E+02 -0.43210083711E+02  0.10018717504E+03  0.12147826178E+03  0.00000000000E+00 0. -1.
        -12    1    6    6    0    0 -0.69628504360E+01 -0.78550091491E+02  0.35359928501E+02  0.86422929266E+02  0.00000000000E+00 0.  1.
</event>
<event>
12    1  0.9028446E-003  0.2601849E+03  0.7818608E-02  0.1107232E+00
         21   -1    0    0  503  502  0.00000000000E+00  0.00000000000E+00  0.16157043890E+03  0.16157043890E+03  0.00000000000E+00 0.  1.
         21   -1    0    0  501  503 -0.00000000000E+00 -0.00000000000E+00 -0.54078815640E+03  0.54078815640E+03  0.00000000000E+00 0. -1.
          6    2    1    2  501    0 -0.10011390062E+03 -0.16779646934E+03 -0.21864852165E+02  0.26110203249E+03  0.17180730889E+03 0.  0.
         24    2    3    3    0    0 -0.52375789347E+02 -0.18613584960E+03 -0.70274794563E+01  0.20764646435E+03  0.75351780840E+02 0.  0.
         -6    2    1    2    0  502  0.10011390062E+03  0.16779646934E+03 -0.35735286533E+03  0.44125656280E+03  0.16978761919E+03 0.  0.
        -24    2    5    5    0    0  0.71915266525E+02  0.17899679841E+03 -0.35237462779E+03  0.41015217107E+03  0.82736121029E+02 0.  0.
          5    1    3    3  501    0 -0.47738111275E+02  0.18339380253E+02 -0.14837372709E+02  0.53455568139E+02  0.47000000000E+01 0. -1.
        -11    1    4    4    0    0 -0.35682424490E+02 -0.30132181369E+02 -0.18724199826E+02  0.50316790743E+02  0.00000000000E+00 0.  1.
         12    1    4    4    0    0 -0.16693364857E+02 -0.15600366823E+03  0.11696720370E+02  0.15732967361E+03  0.00000000000E+00 0. -1.
         -5    1    5    5    0  502  0.28198634097E+02 -0.11200329066E+02 -0.49782375471E+01  0.31104391735E+02  0.47000000000E+01 0.  1.
         13    1    6    6    0    0  0.44903161053E+02  0.54005654454E+02 -0.19566765520E+03  0.20789116354E+03  0.00000000000E+00 0. -1.
        -14    1    6    6    0    0  0.27012105472E+02  0.12499114395E+03 -0.15670697258E+03  0.20226100753E+03  0.00000000000E+00 0.  1.
</event>
<event>
12    1  0.9028446E-003  0.2320405E+03  0.7818608E-02  0.1125294E+00
         21   -1    0    0  501  502  0.00000000000E+00  0.00000000000E+00  0.22653868712E+03  0.22653868712E+03  0.00000000000E+00 0. -1.
         21   -1    0    0  502  503 -0.00000000000E+00 -0.00000000000E+00 -0.29835521404E+03  0.29835521404E+03  0.00000000000E+00 0. -1.
          6    2    1    2  501    0 -0.35655709654E+02 -0.15153550897E+03 -0.15476747889E+03  0.27891893090E+03  0.17207108236E+03 0.  0.
         24    2    3    3    0    0 -0.34827332527E+02 -0.11528048248E+03 -0.28984812395E+02  0.14792854063E+03  0.80871509506E+02 0.  0.
         -6    2    1    2    0  503  0.35655709654E+02  0.15153550897E+03  0.82950951965E+02  0.24597497025E+03  0.17143070160E+03 0.  0.
        -24    2    5    5    0    0  0.82747636878E+02  0.14192860446E+03  0.68606680728E+02  0.19559848426E+03  0.80999939695E+02 0.  0.
          5    1    3    3  501    0 -0.82837712694E+00 -0.36255026490E+02 -0.12578266649E+03  0.13099039028E+03  0.47000000000E+01 0. -1.
        -13    1    4    4    0    0 -0.26002153233E+02 -0.12739257627E+03 -0.27229804289E+02  0.13283991382E+03  0.00000000000E+00 0.  1.
         14    1    4    4    0    0 -0.88251792941E+01  0.12112093788E+02 -0.17550081058E+01  0.15088626808E+02  0.00000000000E+00 0. -1.
         -5    1    5    5    0  503 -0.47091927225E+02  0.96069045127E+01  0.14344271237E+02  0.50376485997E+02  0.47000000000E+01 0.  1.
         13    1    6    6    0    0  0.21294438412E+02  0.46158523441E+02  0.63976525896E+02  0.81713268563E+02  0.00000000000E+00 0. -1.
        -14    1    6    6    0    0  0.61453198466E+02  0.95770081019E+02  0.46301548320E+01  0.11388521569E+03  0.00000000000E+00 0.  1.
</event>
<event>
12    1  0.9028446E-003  0.2066438E+03  0.7818608E-02  0.1146684E+00
         21   -1    0    0  501  502  0.00000000000E+00  0.00000000000E+00  0.83904165840E+03  0.83904165840E+03  0.00000000000E+00 0.  1.
         21   -1    0    0  502  503 -0.00000000000E+00 -0.00000000000E+00 -0.48132660568E+02  0.48132660568E+02  0.00000000000E+00 0.  1.
          6    2    1    2  501    0  0.29262626787E+02  0.89928720254E+02  0.38979205816E+03  0.44117967703E+03  0.18373400004E+03 0.  0.
         24    2    3    3    0    0 -0.37577542422E+01  0.33422630760E+01  0.27754332053E+03  0.29554510274E+03  0.10144615096E+03 0.  0.
         -6    2    1    2    0  503 -0.29262626787E+02 -0.89928720254E+02  0.40111693967E+03  0.44599464194E+03  0.17050790389E+03 0.  0.
        -24    2    5    5    0    0 -0.13518967522E+02 -0.12086989569E+03  0.37587043696E+03  0.40281252707E+03  0.78657818586E+02 0.  0.
          5    1    3    3  501    0  0.33020381029E+02  0.86586457178E+02  0.11224873763E+03  0.14563457430E+03  0.47000000000E+01 0. -1.
        -13    1    4    4    0    0 -0.15660613482E+01  0.34528125604E+02  0.25417386861E+03  0.25651315656E+03  0.00000000000E+00 0.  1.
         14    1    4    4    0    0 -0.21916928940E+01 -0.31185862528E+02  0.23369451918E+02  0.39031946176E+02  0.00000000000E+00 0. -1.
         -5    1    5    5    0  503 -0.15743659265E+02  0.30941175436E+02  0.25246502719E+02  0.43182114862E+02  0.47000000000E+01 0.  1.
         11    1    6    6    0    0 -0.18161488750E+02 -0.41086269197E+02  0.24789913198E+03  0.25193630312E+03  0.00000000000E+00 0. -1.
        -12    1    6    6    0    0  0.46425212286E+01 -0.79783626493E+02  0.12797130497E+03  0.15087622396E+03  0.00000000000E+00 0.  1.
</event>
<event>
12    1  0.9028446E-003  0.2882242E+03  0.7818608E-02  0.1091296E+00
         21   -1    0    0  503  502  0.00000000000E+00  0.00000000000E+00  0.38217721949E+03  0.38217721949E+03  0.00000000000E+00 0. -1.
         21   -1    0    0  501  503 -0.00000000000E+00 -0.00000000000E+00 -0.46458020848E+03  0.46458020848E+03  0.00000000000E+00 0.  1.
          6    2    1    2  501    0 -0.17566796672E+03  0.15056841397E+03 -0.35010299966E+03  0.45348129409E+03  0.17188103998E+03 0.  0.
         24    2    3    3    0    0 -0.15890574412E+03  0.12267351902E+03 -0.18088698799E+03  0.28110018760E+03  0.77442787018E+02 0.  0.
         -6    2    1    2    0  502  0.17566796672E+03 -0.15056841397E+03  0.26770001067E+03  0.39327613388E+03  0.17167626495E+03 0.  0.
        -24    2    5    5    0    0  0.14716576932E+03 -0.13242037512E+03  0.28421538201E+03  0.35537396954E+03  0.79494373701E+02 0.  0.
          5    1    3    3  501    0 -0.16762222602E+02  0.27894894950E+02 -0.16921601167E+03  0.17238110650E+03  0.47000000000E+01 0. -1.
        -13    1    4    4    0    0 -0.78540095873E+02  0.85445430161E+02 -0.14452679050E+03  0.18535765797E+03  0.00000000000E+00 0.  1.
         14    1    4    4    0    0 -0.80365648246E+02  0.37228088864E+02 -0.36360197482E+02  0.95742529627E+02  0.00000000000E+00 0. -1.
         -5    1    5    5    0  502  0.28502197405E+02 -0.18148038853E+02 -0.16515371340E+02  0.37902164340E+02  0.47000000000E+01 0.  1.
         11    1    6    6    0    0  0.79917299797E+02 -0.11231532116E+03  0.14872444294E+03  0.20278181896E+03  0.00000000000E+00 0. -1.
        -12    1    6    6    0    0  0.67248469518E+02 -0.20105053960E+02  0.13549093907E+03  0.15259215058E+03  0.00000000000E+00 0.  1.
</event>
<event>
12    1  0.9028446E-003  0.2000801E+03  0.7818608E-02  0.1151714E+00
         21   -1    0    0  501  502  0.00000000000E+00  0.00000000000E+00  0.15004613513E+03  0.15004613513E+03  0.00000000000E+00 0. -1.
         21   -1    0    0  502  503 -0.00000000000E+00 -0.00000000000E+00 -0.35488816491E+03  0.35488816491E+03  0.00000000000E+00 0. -1.
          6    2    1    2  501    0  0.17770203949E+02  0.84669889237E+02  0.33695957602E+02  0.19359458429E+03  0.16987841303E+03 0.  0.
         24    2    3    3    0    0  0.16625713225E+01 -0.80687889660E+01  0.55841931141E+02  0.96783157237E+02  0.78617992550E+02 0.  0.
         -6    2    1    2    0  503 -0.17770203949E+02 -0.84669889237E+02 -0.23853798738E+03  0.31133971575E+03  0.18040863862E+03 0.  0.
        -24    2    5    5    0    0  0.43209895655E+02 -0.64015538886E+02 -0.70518906313E+02  0.13134617048E+03  0.79459524607E+02 0.  0.
          5    1    3    3  501    0  0.16107632626E+02  0.92738678203E+02 -0.22145973539E+02  0.96811427051E+02  0.47000000000E+01 0. -1.
        -13    1    4    4    0    0 -0.97486850107E+00 -0.39267268872E+02  0.87653334832E+01  0.40245494708E+02  0.00000000000E+00 0.  1.
         14    1    4    4    0    0  0.26374398236E+01  0.31198479906E+02  0.47076597657E+02  0.56537662529E+02  0.00000000000E+00 0. -1.
         -5    1    5    5    0  503 -0.60980099603E+02 -0.20654350351E+02 -0.16801908107E+03  0.17999354527E+03  0.47000000000E+01 0.  1.
         13    1    6    6    0    0  0.16214356763E+02  0.15565252279E+02 -0.31494409237E+02  0.38692121380E+02  0.00000000000E+00 0. -1.
        -14    1    6    6    0    0  0.26995538892E+02 -0.79580791165E+02 -0.39024497076E+02  0.92654049099E+02  0.00000000000E+00 0.  1.
</event>
<event>
12    1  0.9028446E-003  0.1740203E+03  0.7818608E-02  0.1173970E+00
         21   -1    0    0  501  502  0.00000000000E+00  0.00000000000E+00  0.23513059441E+03  0.23513059441E+03  0.00000000000E+00 0.  1.
         21   -1    0    0  502  503 -0.00000000000E+00 -0.00000000000E+00 -0.15523977222E+03  0.15523977222E+03  0.00000000000E+00 0.  1.
          6    2    1    2  501    0  0.14783463740E+02 -0.20147097200E+02 -0.41628551094E+02  0.17893014473E+03  0.17221673584E+03 0.  0.
         24    2    3    3    0    0  0.23262260085E+02 -0.75152794720E+02 -0.48844686968E+02  0.12261247997E+03  0.80367540100E+02 0.  0.
         -6    2    1    2    0  503 -0.14783463740E+02  0.20147097200E+02  0.12151937328E+03  0.21144022190E+03  0.17121785254E+03 0.  0.
        -24    2    5    5    0    0 -0.13710235329E+02  0.77553308032E+02  0.52813734252E+02  0.12177874915E+03  0.76408684582E+02 0.  0.
          5    1    3    3  501    0 -0.84787963453E+01  0.55005697520E+02  0.72161358742E+01  0.56317664760E+02  0.47000000000E+01 0. -1.
        -11    1    4    4    0    0 -0.25674729096E+02 -0.52697266297E+02 -0.25747665344E+02  0.64024494219E+02  0.00000000000E+00 0.  1.
         12    1    4    4    0    0  0.48936989181E+02 -0.22455528422E+02 -0.23097021624E+02  0.58587985754E+02  0.00000000000E+00 0. -1.
         -5    1    5    5    0  503 -0.10732284110E+01 -0.57406210833E+02  0.68705639032E+02  0.89661472752E+02  0.47000000000E+01 0.  1.
         13    1    6    6    0    0  0.30616966312E+02  0.22256583904E+02  0.10680405694E+02  0.39329698944E+02  0.00000000000E+00 0. -1.
        -14    1    6    6    0    0 -0.44327201641E+02  0.55296724128E+02  0.42133328558E+02  0.82449050207E+02  0.00000000000E+00 0.  1.
</event>
<event>
12    1  0.9028446E-003  0.1834921E+03  0.7818608E-02  0.1164793E+00
         21   -1    0    0  501  502  0.00000000000E+00  0.00000000000E+00  0.11997119064E+03  0.11997119064E+03  0.00000000000E+00 0.  1.
         21   -1    0    0  502  503 -0.00000000000E+00 -0.00000000000E+00 -0.36829455640E+03  0.36829455640E+03  0.00000000000E+00 0.  1.
          6    2    1    2  501    0 -0.61754750870E+02 -0.28256371823E+01 -0.39951165331E+01  0.18353557231E+03  0.17276490346E+03 0.  0.
         24    2    3    3    0    0 -0.65195351556E+02  0.40967256841E+02  0.43460173275E+02  0.11869924121E+03  0.79195790324E+02 0.  0.
         -6    2    1    2    0  503  0.61754750870E+02  0.28256371823E+01 -0.24432824922E+03  0.30473017473E+03  0.17129667989E+03 0.  0.
        -24    2    5    5    0    0  0.22583719612E+02  0.21133442878E+02 -0.39240404859E+02  0.95081279326E+02  0.80894953522E+02 0.  0.
          5    1    3    3  501    0  0.34406006864E+01 -0.43792894023E+02 -0.47455289808E+02  0.64836331102E+02  0.47000000000E+01 0. -1.
        -13    1    4    4    0    0 -0.31614913524E+02  0.40922836421E+02  0.61683721135E+02  0.80492625444E+02  0.00000000000E+00 0.  1.
         14    1    4    4    0    0 -0.33580438033E+02  0.44420419339E-01 -0.18223547860E+02  0.38206615765E+02  0.00000000000E+00 0. -1.
         -5    1    5    5    0  503  0.39171031258E+02 -0.18307805695E+02 -0.20508784436E+03  0.20964889540E+03  0.47000000000E+01 0.  1.
         11    1    6    6    0    0  0.14797257578E+02 -0.29031168370E+02 -0.28281892322E+02  0.43146645316E+02  0.00000000000E+00 0. -1.
        -12    1    6    6    0    0  0.77864620343E+01  0.50164611248E+02 -0.10958512538E+02  0.51934634010E+02  0.00000000000E+00 0.  1.
</event>
<event>
12    1  0.9028446E-003  0.2135597E+03  0.7818608E-02  0.1138873E+00
         21   -1    0    0  503  502  0.00000000000E+00  0.00000000000E+00  0.99091151720E+02  0.99091151720E+02  0.00000000000E+00 0. -1.
         21   -1    0    0  501  503 -0.00000000000E+00 -0.00000000000E+00 -0.51910486515E+03  0.51910486515E+03  0.00000000000E+00 0. -1.
          6    2    1    2  501    0  0.12444369913E+03 -0.18634471489E+02 -0.31479537895E+03  0.38012327211E+03  0.17194212287E+03 0.  0.
         24    2    3    3    0    0  0.98675158653E+02 -0.74710087041E+02 -0.18749122126E+03  0.23857140564E+03  0.80280592290E+02 0.  0.
         -6    2    1    2    0  502 -0.12444369913E+03  0.18634471489E+02 -0.10521833449E+03  0.23807274476E+03  0.17255218372E+03 0.  0.
        -24    2    5    5    0    0 -0.12428129351E+03 -0.40071696508E+02 -0.66184714390E+02  0.16741756778E+03  0.81219731620E+02 0.  0.
          5    1    3    3  501    0  0.25768540473E+02  0.56075615552E+02 -0.12730415769E+03  0.14155186648E+03  0.47000000000E+01 0. -1.
        -11    1    4    4    0    0 -0.59352346942E+01 -0.14336770306E+02 -0.63919901750E+02  0.65776316660E+02  0.00000000000E+00 0.  1.
         12    1    4    4    0    0  0.10461039335E+03 -0.60373316734E+02 -0.12357131951E+03  0.17279508898E+03  0.00000000000E+00 0. -1.
         -5    1    5    5    0  502 -0.16240561470E+00  0.58706167996E+02 -0.39033620098E+02  0.70655176982E+02  0.47000000000E+01 0.  1.
         13    1    6    6    0    0 -0.97124713153E+02 -0.36827781799E+01 -0.72930599710E+02  0.12151397094E+03  0.00000000000E+00 0. -1.
        -14    1    6    6    0    0 -0.27156580358E+02 -0.36388918328E+02  0.67458853193E+01  0.45903596837E+02  0.00000000000E+00 0.  1.
</event>
<event>
12    1  0.9028446E-003  0.1698797E+03  0.7818608E-02  0.1178415E+00
         21   -1    0    0  501  502  0.00000000000E+00  0.00000000000E+00  0.14328827242E+04  0.14328827242E+04  0.00000000000E+00 0. -1.
         21   -1    0    0  502  503 -0.00000000000E+00 -0.00000000000E+00 -0.30516469528E+02  0.30516469528E+02  0.00000000000E+00 0. -1.
          6    2    1    2  501    0 -0.29089630685E+02  0.46790461009E+01  0.27273753549E+03  0.32131742262E+03  0.16730517842E+03 0.  0.
         24    2    3    3    0    0 -0.32724740002E+02  0.55705591756E+02  0.11154138523E+03  0.15213346581E+03  0.80802779903E+02 0.  0.
         -6    2    1    2    0  503  0.29089630685E+02 -0.46790461009E+01  0.11296287192E+04  0.11420817712E+04  0.16559477231E+03 0.  0.
        -24    2    5    5    0    0 -0.33050464060E+02  0.30665555229E+02  0.76144195247E+03  0.76698949260E+03  0.80289011219E+02 0.  0.
          5    1    3    3  501    0  0.36351093167E+01 -0.51026545655E+02  0.16119615026E+03  0.16918395681E+03  0.47000000000E+01 0. -1.
        -11    1    4    4    0    0 -0.29763595792E+02 -0.12564784304E+02  0.53395692422E+02  0.62408696576E+02  0.00000000000E+00 0.  1.
         12    1    4    4    0    0 -0.29611442102E+01  0.68270376060E+02  0.58145692804E+02  0.89724769234E+02  0.00000000000E+00 0. -1.
         -5    1    5    5    0  503  0.62140094746E+02 -0.35344601330E+02  0.36818676675E+03  0.37509227855E+03  0.47000000000E+01 0.  1.
         13    1    6    6    0    0  0.23056080116E+02  0.25601776697E+02  0.22929806510E+03  0.23187202604E+03  0.00000000000E+00 0. -1.
        -14    1    6    6    0    0 -0.56106544177E+02  0.50637785322E+01  0.53214388738E+03  0.53511746657E+03  0.00000000000E+00 0.  1.
</event>
<event>
12    1  0.9028446E-003  0.1765257E+03  0.7818608E-02  0.1171292E+00
         21   -1    0    0  501  502  0.00000000000E+00  0.00000000000E+00  0.72899240504E+02  0.72899240504E+02  0.00000000000E+00 0. -1.
         21   -1    0    0  502  503 -0.00000000000E+00 -0.00000000000E+00 -0.42729768651E+03  0.42729768651E+03  0.00000000000E+00 0.  1.
          6    2    1    2  501    0  0.21319529883E+02  0.32880239383E+02 -0.18680189884E+03  0.25678385661E+03  0.17177708552E+03 0.  0.
         24    2    3    3    0    0  0.57533815340E+02 -0.28586466131E+02 -0.13330183056E+03  0.16748672528E+03  0.78454440034E+02 0.  0.
         -6    2    1    2    0  503 -0.21319529883E+02 -0.32880239383E+02 -0.16759654717E+03  0.24341307041E+03  0.17212114259E+03 0.  0.
        -24    2    5    5    0    0  0.18286118323E+02  0.17274283285E+02 -0.24622816643E+02  0.86736138043E+02  0.79272262216E+02 0.  0.
          5    1    3    3  501    0 -0.36214285456E+02  0.61466705514E+02 -0.53500068274E+02  0.89297131326E+02  0.47000000000E+01 0. -1.
        -11    1    4    4    0    0  0.19923688913E+02  0.21700287053E+02 -0.13888960908E+02  0.32569296480E+02  0.00000000000E+00 0.  1.
         12    1    4    4    0    0  0.37610126427E+02 -0.50286753184E+02 -0.11941286965E+03  0.13491742880E+03  0.00000000000E+00 0. -1.
         -5    1    5    5    0  503 -0.39605648206E+02 -0.50154522668E+02 -0.14297373053E+03  0.15667693237E+03  0.47000000000E+01 0.  1.
         11    1    6    6    0    0  0.19100379607E+02 -0.26986216370E+02 -0.26585196029E+02  0.42424674695E+02  0.00000000000E+00 0. -1.
        -12    1    6    6    0    0 -0.81426128356E+00  0.44260499655E+02  0.19623793860E+01  0.44311463348E+02  0.00000000000E+00 0.  1.
</event>
<event>
12    1  0.9028446E-003  0.1958695E+03  0.7818608E-02  0.1153394E+00
         21   -1    0    0  503  502  0.00000000000E+00  0.00000000000E+00  0.50736683673E+02  0.50736683673E+02  0.00000000000E+00 0. -1.
         21   -1    0    0  501  503 -0.00000000000E+00 -0.00000000000E+00 -0.10077069452E+04  0.10077069452E+04  0.00000000000E+00 0. -1.
          6    2    1    2  501    0  0.59559962691E+02 -0.71106942697E+02 -0.74352235780E+03  0.76874573231E+03  0.17187471581E+03 0.  0.
         24    2    3    3    0    0  0.24390963031E+02 -0.96977127501E+02 -0.40537419534E+03  0.42775835017E+03  0.93002610497E+02 0.  0.
         -6    2    1    2    0  502 -0.59559962691E+02  0.71106942697E+02 -0.21344790377E+03  0.28969789661E+03  0.17251457104E+03 0.  0.
        -24    2    5    5    0    0 -0.35488957995E+02  0.97094500800E+02 -0.83032008212E+02  0.15447525702E+03  0.79255803689E+02 0.  0.
          5    1    3    3  501    0  0.35168999660E+02  0.25870184805E+02 -0.33814816246E+03  0.34098738214E+03  0.47000000000E+01 0. -1.
        -11    1    4    4    0    0  0.34761609256E+02 -0.11716992538E+02 -0.22510107749E+03  0.22807049892E+03  0.00000000000E+00 0.  1.
         12    1    4    4    0    0 -0.10370646226E+02 -0.85260134964E+02 -0.18027311785E+03  0.19968785125E+03  0.00000000000E+00 0. -1.
         -5    1    5    5    0  502 -0.24071004695E+02 -0.25987558104E+02 -0.13041589556E+03  0.13522263959E+03  0.47000000000E+01 0.  1.
         13    1    6    6    0    0 -0.31513842010E+02  0.38195134802E+02 -0.81570293805E+02  0.95423809357E+02  0.00000000000E+00 0. -1.
        -14    1    6    6    0    0 -0.39751159856E+01  0.58899365998E+02 -0.14617144067E+01  0.59051447663E+02  0.00000000000E+00 0.  1.
</event>
<event>
12    1  0.9028446E-003  0.2511963E+03  0.7818608E-02  0.1112582E+00
         21   -1    0    0  501  502  0.00000000000E+00  0.00000000000E+00  0.11182601755E+03  0.11182601755E+03  0.00000000000E+00 0.  1.
         21   -1    0    0  502  503 -0.00000000000E+00 -0.00000000000E+00 -0.56478086445E+03  0.56478086445E+03  0.00000000000E+00 0. -1.
          6    2    1    2  501    0 -0.10250512568E+03  0.15166900293E+03 -0.24032558751E+03  0.34750088090E+03  0.17172561538E+03 0.  0.
         24    2    3    3    0    0 -0.25422222658E+02  0.36443430322E+02 -0.16778076538E+03  0.19096479006E+03  0.79641401235E+02 0.  0.
         -6    2    1    2    0  503  0.10250512568E+03 -0.15166900293E+03 -0.21262925938E+03  0.32910600109E+03  0.17201386796E+03 0.  0.
        -24    2    5    5    0    0  0.95833590634E+02 -0.15089213122E+03 -0.23488781011E+03  0.30538584110E+03  0.78330812898E+02 0.  0.
          5    1    3    3  501    0 -0.77082903018E+02  0.11522557260E+03 -0.72544822127E+02  0.15653609085E+03  0.47000000000E+01 0. -1.
        -13    1    4    4    0    0 -0.37283669549E+02 -0.96279523359E+01 -0.44637791602E+02  0.58951691412E+02  0.00000000000E+00 0.  1.
         14    1    4    4    0    0  0.11861446891E+02  0.46071382658E+02 -0.12314297378E+03  0.13201309865E+03  0.00000000000E+00 0. -1.
         -5    1    5    5    0  503  0.66715350418E+01 -0.77687170364E+00  0.22258550727E+02  0.23720159990E+02  0.47000000000E+01 0.  1.
         11    1    6    6    0    0  0.67704070480E+02 -0.36057763855E+02 -0.99653455561E+02  0.12575696680E+03  0.00000000000E+00 0. -1.
        -12    1    6    6    0    0  0.28129520155E+02 -0.11483436737E+03 -0.13523435455E+03  0.17962887430E+03  0.00000000000E+00 0.  1.
</event>
<event>
12    1  0.9028446E-003  0.1980738E+03  0.7818608E-02  0.1151481E+00
         21   -1    0    0  503  502  0.00000000000E+00  0.00000000000E+00  0.63928438211E+03  0.63928438211E+03  0.00000000000E+00 0. -1.
         21   -1    0    0  501  503 -0.00000000000E+00 -0.00000000000E+00 -0.61218222176E+02  0.61218222176E+02  0.00000000000E+00 0. -1.
          6    2    1    2  501    0  0.89160189000E+02 -0.49809376796E+02  0.29128101345E+03  0.35224686809E+03  0.16971362339E+03 0.  0.
         24    2    3    3    0    0  0.35479527330E+02  0.43322289672E+02  0.12743756284E+03  0.15623185069E+03  0.70939700498E+02 0.  0.
         -6    2    1    2    0  502 -0.89160189000E+02  0.49809376796E+02  0.28678514648E+03  0.34825573619E+03  0.16913256408E+03 0.  0.
        -24    2    5    5    0    0 -0.30629393589E+02 -0.37784345797E+02  0.12376828170E+03  0.15410347004E+03  0.77868320806E+02 0.  0.
          5    1    3    3  501    0  0.53680661670E+02 -0.93131666469E+02  0.16384345062E+03  0.19601501740E+03  0.47000000000E+01 0. -1.
        -11    1    4    4    0    0 -0.90112657382E+01  0.35931916175E+02  0.91000212198E+02  0.98251433223E+02  0.00000000000E+00 0.  1.
         12    1    4    4    0    0  0.44490793068E+02  0.73903734971E+01  0.36437350638E+02  0.57980417468E+02  0.00000000000E+00 0. -1.
         -5    1    5    5    0  502 -0.58530795411E+02  0.87593722593E+02  0.16301686478E+03  0.19415226615E+03  0.47000000000E+01 0.  1.
         11    1    6    6    0    0 -0.51965401135E+02 -0.38238985278E+02  0.65015793276E+02  0.91595176104E+02  0.00000000000E+00 0. -1.
        -12    1    6    6    0    0  0.21336007546E+02  0.45463948177E+00  0.58752488420E+02  0.62508293935E+02  0.00000000000E+00 0.  1.
</event>
<event>
12    1  0.9028446E-003  0.2055258E+03  0.7818608E-02  0.1145337E+00
         21   -1    0    0  501  502  0.00000000000E+00  0.00000000000E+00  0.21103235609E+02  0.21103235609E+02  0.00000000000E+00 0.  1.
         21   -1    0    0  502  503 -0.00000000000E+00 -0.00000000000E+00 -0.20210974050E+04  0.20210974050E+04  0.00000000000E+00 0. -1.
          6    2    1    2  501    0 -0.58475848745E+02  0.93989650505E+02 -0.87781017365E+03  0.90135104877E+03  0.17213231208E+03 0.  0.
         24    2    3    3    0    0  0.34709797279E+02  0.53665979243E+02 -0.41445799823E+03  0.42698105440E+03  0.80327960041E+02 0.  0.
         -6    2    1    2    0  503  0.58475848745E+02 -0.93989650505E+02 -0.11221839957E+04  0.11408495918E+04  0.17316867968E+03 0.  0.
        -24    2    5    5    0    0  0.67979833669E+02  0.15024441807E+01 -0.68806729215E+03  0.69622787823E+03  0.81689318618E+02 0.  0.
          5    1    3    3  501    0 -0.93185646024E+02  0.40323671262E+02 -0.46335217542E+03  0.47436999437E+03  0.47000000000E+01 0. -1.
        -13    1    4    4    0    0 -0.36840730314E+01  0.50690918282E+02 -0.12446078639E+03  0.13443819747E+03  0.00000000000E+00 0.  1.
         14    1    4    4    0    0  0.38393870310E+02  0.29750609602E+01 -0.28999721184E+03  0.29254285693E+03  0.00000000000E+00 0. -1.
         -5    1    5    5    0  503 -0.95039849246E+01 -0.95492094686E+02 -0.43411670354E+03  0.44462171356E+03  0.47000000000E+01 0.  1.
         13    1    6    6    0    0  0.85992197445E+02 -0.44760231665E+01 -0.59929170843E+03  0.60544631851E+03  0.00000000000E+00 0. -1.
        -14    1    6    6    0    0 -0.18012363776E+02  0.59784673473E+01 -0.88775583723E+02  0.90781559725E+02  0.00000000000E+00 0.  1.
</event>
<event>
12    1  0.9028446E-003  0.2223349E+03  0.7818608E-02  0.1132164E+00
         21   -1    0    0  501  502  0.00000000000E+00  0.00000000000E+00  0.57134800247E+03  0.57134800247E+03  0.00000000000E+00 0. -1.
         21   -1    0    0  502  503 -0.00000000000E+00 -0.00000000000E+00 -0.99254449695E+02  0.99254449695E+02  0.00000000000E+00 0. -1.
          6    2    1    2  501    0  0.10673177385E+03  0.91968698912E+02  0.11586977099E+03  0.25071621677E+03  0.17199681507E+03 0.  0.
         24    2    3    3    0    0  0.12036107488E+03  0.12136424487E+03  0.84683594749E+02  0.20549980872E+03  0.76438157265E+02 0.  0.
         -6    2    1    2    0  503 -0.10673177385E+03 -0.91968698912E+02  0.35622378178E+03  0.41988623539E+03  0.17192776051E+03 0.  0.
        -24    2    5    5    0    0 -0.95152143555E+02 -0.77514925342E+02  0.36895413680E+03  0.39692645868E+03  0.79755654752E+02 0.  0.
          5    1    3    3  501    0 -0.13629301030E+02 -0.29395545957E+02  0.31186176240E+02  0.45216408052E+02  0.47000000000E+01 0. -1.
        -11    1    4    4    0    0  0.33784799180E+01 -0.10337140089E+02  0.27166743493E+01  0.11209411729E+02  0.00000000000E+00 0.  1.
         12    1    4    4    0    0  0.11698259496E+03  0.13170138496E+03  0.81966920400E+02  0.19429039699E+03  0.00000000000E+00 0. -1.
         -5    1    5    5    0  503 -0.11579630291E+02 -0.14453773570E+02 -0.12730355011E+02  0.22959776715E+02  0.47000000000E+01 0.  1.
         11    1    6    6    0    0  0.20712038427E+01 -0.20820034742E+02  0.14270098916E+03  0.14422668283E+03  0.00000000000E+00 0. -1.
        -12    1    6    6    0    0 -0.97223347398E+02 -0.56694890600E+02  0.22625314764E+03  0.25269977585E+03  0.00000000000E+00 0.  1.
</event>
<event>
12    1  0.9028446E-003  0.1752916E+03  0.7818608E-02  0.1172770E+00
         21   -1    0    0  501  502  0.00000000000E+00  0.00000000000E+00  0.13970286388E+03  0.13970286388E+03  0.00000000000E+00 0. -1.
         21   -1    0    0  502  503 -0.00000000000E+00 -0.00000000000E+00 -0.46571490370E+03  0.46571490370E+03  0.00000000000E+00 0. -1.
          6    2    1    2  501    0 -0.17781403879E+02  0.19943670484E+02  0.57342196641E+02  0.18443234475E+03  0.17324327969E+03 0.  0.
         24    2    3    3    0    0 -0.51347291439E+02 -0.23218935699E+02 -0.11462331531E+02  0.96421933567E+02  0.77396000644E+02 0.  0.
         -6    2    1    2    0  503  0.17781403879E+02 -0.19943670484E+02 -0.38335423647E+03  0.42098542283E+03  0.17191372052E+03 0.  0.
        -24    2    5    5    0    0  0.53540449861E+02 -0.17949472892E+02 -0.11933815943E+03  0.15450978580E+03  0.80267766045E+02 0.  0.
          5    1    3    3  501    0  0.33565887560E+02  0.43162606183E+02  0.68804528171E+02  0.88010411185E+02  0.47000000000E+01 0. -1.
        -11    1    4    4    0    0 -0.69433746386E+02 -0.19045440754E+02  0.42203951088E+01  0.72122019422E+02  0.00000000000E+00 0.  1.
         12    1    4    4    0    0  0.18086454947E+02 -0.41734949452E+01 -0.15682726639E+02  0.24299914145E+02  0.00000000000E+00 0. -1.
         -5    1    5    5    0  503 -0.35759045982E+02 -0.19941975919E+01 -0.26401607704E+03  0.26647563703E+03  0.47000000000E+01 0.  1.
         13    1    6    6    0    0  0.49234757964E+02  0.10760103321E+02 -0.11447123339E+03  0.12507399606E+03  0.00000000000E+00 0. -1.
        -14    1    6    6    0    0  0.43056918962E+01 -0.28709576213E+02 -0.48669260332E+01  0.29435789747E+02  0.00000000000E+00 0.  1.
</event>
<event>
12    1  0.9028446E-003  0.2138519E+03  0.7818608E-02  0.1139027E+00
         21   -1    0    0  503  502  0.00000000000E+00  0.00000000000E+00  0.10022538591E+04  0.10022538591E+04  0.00000000000E+00 0.  1.
         21   -1    0    0  501  503 -0.00000000000E+00 -0.00000000000E+00 -0.45223404714E+02  0.45223404714E+02  0.00000000000E+00 0. -1.
          6    2    1    2  501    0 -0.39591323269E+02  0.11707232176E+03  0.44954664371E+03  0.49677546253E+03  0.17152339172E+03 0.  0.
         24    2    3    3    0    0 -0.14712010766E+02  0.12085613338E+03  0.21535064521E+03  0.26118439069E+03  0.83777904670E+02 0.  0.
         -6    2    1    2    0  502  0.39591323269E+02 -0.11707232176E+03  0.50748381072E+03  0.55070180132E+03  0.17452579877E+03 0.  0.
        -24    2    5    5    0    0  0.19296756056E+02 -0.23072527812E+02  0.10017076320E+03  0.13216406180E+03  0.80798831049E+02 0.  0.
          5    1    3    3  501    0 -0.24879312503E+02 -0.37838116197E+01  0.23419599850E+03  0.23559107185E+03  0.47000000000E+01 0. -1.
        -13    1    4    4    0    0  0.27373307346E+02  0.78220843664E+02  0.90539899538E+02  0.12274066868E+03  0.00000000000E+00 0.  1.
         14    1    4    4    0    0 -0.42085318111E+02  0.42635289713E+02  0.12481074567E+03  0.13844372201E+03  0.00000000000E+00 0. -1.
         -5    1    5    5    0  502  0.20294567213E+02 -0.93999793945E+02  0.40731304752E+03  0.41853773952E+03  0.47000000000E+01 0.  1.
         13    1    6    6    0    0  0.45894996903E+02 -0.26329871456E+01  0.31467406509E+02  0.55708895470E+02  0.00000000000E+00 0. -1.
        -14    1    6    6    0    0 -0.26598240847E+02 -0.20439540666E+02  0.68703356688E+02  0.76455166333E+02  0.00000000000E+00 0.  1.
</event>
<event>
12    1  0.9028446E-003  0.2599658E+03  0.7818608E-02  0.1107199E+00
         21   -1    0    0  501  502  0.00000000000E+00  0.00000000000E+00  0.89554182217E+03  0.89554182217E+03  0.00000000000E+00 0. -1.
         21   -1    0    0  502  503 -0.00000000000E+00 -0.00000000000E+00 -0.86910796488E+02  0.86910796488E+02  0.00000000000E+00 0.  1.
          6    2    1    2  501    0  0.12626165486E+03 -0.14938416390E+03  0.58326382096E+03  0.63857567590E+03  0.17124419726E+03 0.  0.
         24    2    3    3    0    0  0.14301297746E+03 -0.16706708113E+03  0.50582673115E+03  0.55726217610E+03  0.79475339872E+02 0.  0.
         -6    2    1    2    0  503 -0.12626165486E+03  0.14938416390E+03  0.22536720472E+03  0.34387694276E+03  0.17088985015E+03 0.  0.
        -24    2    5    5    0    0 -0.71624482150E+02  0.16837502412E+03  0.18519163387E+03  0.27329337593E+03  0.83145131434E+02 0.  0.
          5    1    3    3  501    0 -0.16751322600E+02  0.17682917235E+02  0.77437089819E+02  0.81313499804E+02  0.47000000000E+01 0. -1.
        -13    1    4    4    0    0  0.10086578465E+03 -0.59379406646E+02  0.22681990535E+03  0.25523927972E+03  0.00000000000E+00 0.  1.
         14    1    4    4    0    0  0.42147192806E+02 -0.10768767449E+03  0.27900682579E+03  0.30202289638E+03  0.00000000000E+00 0. -1.
         -5    1    5    5    0  503 -0.54637172710E+02 -0.18990860217E+02  0.40175570853E+02  0.70583566833E+02  0.47000000000E+01 0.  1.
         13    1    6    6    0    0 -0.45168209573E+02  0.90595105833E+02  0.15627349011E+03  0.18619625149E+03  0.00000000000E+00 0. -1.
        -14    1    6    6    0    0 -0.26456272578E+02  0.77779918282E+02  0.28918143755E+02  0.87097124436E+02  0.00000000000E+00 0.  1.
</event>
<event>
12    1  0.9028446E-003  0.1777480E+03  0.7818608E-02  0.1170137E+00
         21   -1    0    0  503  502  0.00000000000E+00  0.00000000000E+00  0.49265818827E+02  0.49265818827E+02  0.00000000000E+00 0.  1.
         21   -1    0    0  501  503 -0.00000000000E+00 -0.00000000000E+00 -0.77656379787E+03  0.77656379787E+03  0.00000000000E+00 0.  1.
          6    2    1    2  501    0 -0.15266655868E+02  0.40148982919E+02 -0.53677959837E+03  0.56526944529E+03  0.17190752439E+03 0.  0.
         24    2    3    3    0    0  0.22752482867E+02 -0.40416812070E+02 -0.18642043278E+03  0.20373115251E+03  0.67842542488E+02 0.  0.
         -6    2    1    2    0  502  0.15266655868E+02 -0.40148982919E+02 -0.19051838067E+03  0.26056017140E+03  0.17247996387E+03 0.  0.
        -24    2    5    5    0    0  0.34819083048E+02 -0.85822742059E+02 -0.16301598215E+03  0.20357893232E+03  0.79323764726E+02 0.  0.
          5    1    3    3  501    0 -0.38019138735E+02  0.80565794989E+02 -0.35035916559E+03  0.36153829278E+03  0.47000000000E+01 0. -1.
        -13    1    4    4    0    0  0.64241269728E+01  0.82446310350E+01 -0.11663460479E+03  0.11710198283E+03  0.00000000000E+00 0.  1.
         14    1    4    4    0    0  0.16328355894E+02 -0.48661443105E+02 -0.69785827986E+02  0.86629169677E+02  0.00000000000E+00 0. -1.
         -5    1    5    5    0  502 -0.19552427181E+02  0.45673759140E+02 -0.27502398514E+02  0.56981239076E+02  0.47000000000E+01 0.  1.
         13    1    6    6    0    0  0.89169794907E+01  0.12701482783E+02 -0.45397075551E+02  0.47976396871E+02  0.00000000000E+00 0. -1.
        -14    1    6    6    0    0  0.25902103558E+02 -0.98524224842E+02 -0.11761890660E+03  0.15560253545E+03  0.00000000000E+00 0.  1.
</event>
<event>
12    1  0.9028446E-003  0.2201273E+03  0.7818608E-02  0.1133869E+00
         21   -1    0    0  501  502  0.00000000000E+00  0.00000000000E+00  0.11440973930E+04  0.11440973930E+04  0.00000000000E+00 0.  1.
         21   -1    0    0  502  503 -0.00000000000E+00 -0.00000000000E+00 -0.49962851385E+02  0.49962851385E+02  0.00000000000E+00 0.  1.
          6    2    1    2  501    0 -0.37973888206E+02 -0.13136078122E+03  0.78180307962E+03  0.81220198917E+03  0.17250607200E+03 0.  0.
         24    2    3    3    0    0 -0.77245946754E+02 -0.58821157776E+02  0.34055444125E+03  0.36328468897E+03  0.81065238508E+02 0.  0.
         -6    2    1    2    0  503  0.37973888206E+02  0.13136078122E+03  0.31233146201E+03  0.38185825523E+03  0.17195090549E+03 0.  0.
        -24    2    5    5    0    0  0.14801523512E+02  0.36078081656E+02  0.25242035601E+03  0.26684876891E+03  0.77275586484E+02 0.  0.
          5    1    3    3  501    0  0.39272058548E+02 -0.72539623446E+02  0.44124863838E+03  0.44891730020E+03  0.47000000000E+01 0. -1.
        -11    1    4    4    0    0 -0.54473721145E+02 -0.51268500367E+02  0.32757305885E+03  0.33600588434E+03  0.00000000000E+00 0.  1.
         12    1    4    4    0    0 -0.22772225609E+02 -0.75526574088E+01  0.12981382396E+02  0.27278804630E+02  0.00000000000E+00 0. -1.
         -5    1    5    5    0  503  0.23172364693E+02  0.95282699566E+02  0.59911106003E+02  0.11500948632E+03  0.47000000000E+01 0.  1.
         13    1    6    6    0    0  0.37268738074E+02 -0.49431415244E+01  0.14283590686E+03  0.14770067628E+03  0.00000000000E+00 0. -1.
        -14    1    6    6    0    0 -0.22467214561E+02  0.41021223180E+02  0.10958444915E+03  0.11914809263E+03  0.00000000000E+00 0.  1.
</event>
<event>
12    1  0.9028446E-003  0.1875058E+03  0.7818608E-02  0.1160954E+00
         21   -1    0    0  503  502  0.00000000000E+00  0.00000000000E+00  0.28665265343E+03  0.28665265343E+03  0.00000000000E+00 0.  1.
         21   -1    0    0  501  503 -0.00000000000E+00 -0.00000000000E+00 -0.12661287110E+03  0.12661287110E+03  0.00000000000E+00 0. -1.
          6    2    1    2  501    0 -0.63135916183E+02 -0.32449817027E+02  0.40445553004E+02  0.19086679384E+03  0.17249682808E+03 0.  0.
         24    2    3    3    0    0 -0.16843429133E+02  0.28558446498E+02  0.67115423352E+02  0.10963641430E+03  0.80102292839E+02 0.  0.
         -6    2    1    2    0  502  0.63135916183E+02  0.32449817027E+02  0.11959422933E+03  0.22239873069E+03  0.17354907429E+03 0.  0.
        -24    2    5    5    0    0 -0.26560374708E+02 -0.21815559358E+02  0.48727389491E+02  0.95771898377E+02  0.74943484689E+02 0.  0.
          5    1    3    3  501    0 -0.46292487050E+02 -0.61008263525E+02 -0.26669870349E+02  0.81230379539E+02  0.47000000000E+01 0. -1.
        -11    1    4    4    0    0  0.18176643304E+02 -0.11977967439E+02  0.48093612875E+02  0.52790696767E+02  0.00000000000E+00 0.  1.
         12    1    4    4    0    0 -0.35020072437E+02  0.40536413937E+02  0.19021810477E+02  0.56845717536E+02  0.00000000000E+00 0. -1.
         -5    1    5    5    0  502  0.89696290891E+02  0.54265376386E+02  0.70866839836E+02  0.12662683232E+03  0.47000000000E+01 0.  1.
         13    1    6    6    0    0 -0.48213773542E+02 -0.62191959396E+01  0.49085149568E+02  0.69083994278E+02  0.00000000000E+00 0. -1.
        -14    1    6    6    0    0  0.21653398834E+02 -0.15596363419E+02 -0.35776007687E+00  0.26687904099E+02  0.00000000000E+00 0.  1.
</event>
<event>
12    1  0.9028446E-003  0.3051668E+03  0.7818608E-02  0.1082761E+00
         21   -1    0    0  503  502  0.00000000000E+00  0.00000000000E+00  0.98667954892E+03  0.98667954892E+03  0.00000000000E+00 0. -1.
         21   -1    0    0  501  503 -0.00000000000E+00 -0.00000000000E+00 -0.11210092544E+03  0.11210092544E+03  0.00000000000E+00 0. -1.
          6    2    1    2  501    0 -0.17334790761E+03  0.18303411664E+03  0.65723002405E+03  0.72462270330E+03  0.17197608176E+03 0.  0.
         24    2    3    3    0    0 -0.19382914401E+03  0.16878387201E+03  0.63968736960E+03  0.69376196382E+03  0.77768882558E+02 0.  0.
         -6    2    1    2    0  502  0.17334790761E+03 -0.18303411664E+03  0.21734859943E+03  0.37415777106E+03  0.17088779665E+03 0.  0.
        -24    2    5    5    0    0  0.14551353344E+03 -0.14581007377E+03  0.89802074639E+02  0.23832483050E+03  0.79369680594E+02 0.  0.
          5    1    3    3  501    0  0.20481236397E+02  0.14250244628E+02  0.17542654452E+02  0.30860739484E+02  0.47000000000E+01 0. -1.
        -11    1    4    4    0    0 -0.53627692429E+02  0.74283384787E+02  0.15065003296E+03  0.17632181681E+03  0.00000000000E+00 0.  1.
         12    1    4    4    0    0 -0.14020145158E+03  0.94500487222E+02  0.48903733664E+03  0.51744014701E+03  0.00000000000E+00 0. -1.
         -5    1    5    5    0  502  0.27834374167E+02 -0.37224042867E+02  0.12754652479E+03  0.13583294056E+03  0.47000000000E+01 0.  1.
         13    1    6    6    0    0  0.13447667099E+03 -0.97544944193E+02  0.89731085232E+02  0.18881382056E+03  0.00000000000E+00 0. -1.
        -14    1    6    6    0    0  0.11036862449E+02 -0.48265129576E+02  0.70989406759E-01  0.49511009939E+02  0.00000000000E+00 0.  1.
</event>
<event>
12    1  0.9028446E-003  0.2439210E+03  0.7818608E-02  0.1117211E+00
         21   -1    0    0  503  502  0.00000000000E+00  0.00000000000E+00  0.11468762700E+04  0.11468762700E+04  0.00000000000E+00 0.  1.
         21   -1    0    0  501  503 -0.00000000000E+00 -0.00000000000E+00 -0.77997905814E+02  0.77997905814E+02  0.00000000000E+00 0. -1.
          6    2    1    2  501    0  0.13573821461E+02  0.17300736123E+03  0.17998403670E+03  0.30312010618E+03  0.17138188245E+03 0.  0.
         24    2    3    3    0    0  0.55439585835E+02  0.60816940512E+02  0.44393983449E+02  0.12216103547E+03  0.78614533585E+02 0.  0.
         -6    2    1    2    0  502 -0.13573821461E+02 -0.17300736123E+03  0.88889432749E+03  0.92175406964E+03  0.17141074584E+03 0.  0.
        -24    2    5    5    0    0  0.54968896594E+02 -0.10381683193E+03  0.43790409013E+03  0.46034349571E+03  0.79728462330E+02 0.  0.
          5    1    3    3  501    0 -0.41865764374E+02  0.11219042072E+03  0.13559005325E+03  0.18095907070E+03  0.47000000000E+01 0. -1.
        -11    1    4    4    0    0 -0.10673166619E+02 -0.11439298919E+02  0.88346846690E+01  0.17967350908E+02  0.00000000000E+00 0.  1.
         12    1    4    4    0    0  0.66112752454E+02  0.72256239431E+02  0.35559298780E+02  0.10419368457E+03  0.00000000000E+00 0. -1.
         -5    1    5    5    0  502 -0.68542718054E+02 -0.69190529307E+02  0.45099023736E+03  0.46141057393E+03  0.47000000000E+01 0.  1.
         13    1    6    6    0    0  0.12977170850E+02 -0.98006075429E+02  0.28437337344E+03  0.30106778855E+03  0.00000000000E+00 0. -1.
        -14    1    6    6    0    0  0.41991725743E+02 -0.58107564984E+01  0.15353071669E+03  0.15927570716E+03  0.00000000000E+00 0.  1.
</event>
<event>
12    1  0.9028446E-003  0.1776530E+03  0.7818608E-02  0.1170949E+00
         21   -1    0    0  501  502  0.00000000000E+00  0.00000000000E+00  0.65980066664E+03  0.65980066664E+03  0.00000000000E+00 0. -1.
         21   -1    0    0  502  503 -0.00000000000E+00 -0.00000000000E+00 -0.55741911480E+02  0.55741911480E+02  0.00000000000E+00 0. -1.
          6    2    1    2  501    0 -0.39215607090E+02  0.11444613499E+02  0.16212987508E+03  0.24051337138E+03  0.17289228555E+03 0.  0.
         24    2    3    3    0    0 -0.28575422665E+02  0.72533978439E+02  0.11646843526E+03  0.16336299148E+03  0.83933531818E+02 0.  0.
         -6    2    1    2    0  503  0.39215607090E+02 -0.11444613499E+02  0.44192888008E+03  0.47502920674E+03  0.16935988069E+03 0.  0.
        -24    2    5    5    0    0  0.76301805069E+02 -0.45378498647E+02  0.24832888041E+03  0.27495435946E+03  0.77791344905E+02 0.  0.
          5    1    3    3  501    0 -0.10640184425E+02 -0.61089364940E+02  0.45661439819E+02  0.77150379906E+02  0.47000000000E+01 0. -1.
        -11    1    4    4    0    0  0.27288730585E+02  0.24022918702E+02  0.60530729934E+02  0.70609806020E+02  0.00000000000E+00 0.  1.
         12    1    4    4    0    0 -0.55864153249E+02  0.48511059737E+02  0.55937705327E+02  0.92753185456E+02  0.00000000000E+00 0. -1.
         -5    1    5    5    0  503 -0.37086197978E+02  0.33933885149E+02  0.19359999967E+03  0.20007484728E+03  0.47000000000E+01 0.  1.
         13    1    6    6    0    0  0.79243375737E+00 -0.63541819286E+01  0.12504958006E+03  0.12521342202E+03  0.00000000000E+00 0. -1.
        -14    1    6    6    0    0  0.75509371311E+02 -0.39024316719E+02  0.12327930035E+03  0.14974093744E+03  0.00000000000E+00 0.  1.
</event>
<event>
12    1  0.9028446E-003  0.2412728E+03  0.7818608E-02  0.1119954E+00
         21   -1    0    0  501  502  0.00000000000E+00  0.00000000000E+00  0.66203672784E+03  0.66203672784E+03  0.00000000000E+00 0.  1.
         21   -1    0    0  502  503 -0.00000000000E+00 -0.00000000000E+00 -0.86762778691E+02  0.86762778691E+02  0.00000000000E+00 0.  1.
          6    2    1    2  501    0 -0.12502214935E+03  0.10263681714E+03  0.24372003446E+03  0.33875003503E+03  0.17084284291E+03 0.  0.
         24    2    3    3    0    0 -0.13699910718E+03  0.46246413466E+02  0.12703521448E+03  0.20851654334E+03  0.80210454430E+02 0.  0.
         -6    2    1    2    0  503  0.12502214935E+03 -0.10263681714E+03  0.33155391469E+03  0.41004947150E+03  0.17901876067E+03 0.  0.
        -24    2    5    5    0    0  0.58141359707E+02 -0.38608734008E+01  0.23907862976E+03  0.25904120879E+03  0.80922386220E+02 0.  0.
          5    1    3    3  501    0  0.11976957828E+02  0.56390403671E+02  0.11668481998E+03  0.13023349169E+03  0.47000000000E+01 0. -1.
        -13    1    4    4    0    0 -0.36480594819E+02  0.15779733059E+02  0.87827915880E+02  0.96403197984E+02  0.00000000000E+00 0.  1.
         14    1    4    4    0    0 -0.10051851236E+03  0.30466680408E+02  0.39207298601E+02  0.11211334535E+03  0.00000000000E+00 0. -1.
         -5    1    5    5    0  503  0.66880789646E+02 -0.98775943737E+02  0.92475284933E+02  0.15100826271E+03  0.47000000000E+01 0.  1.
         13    1    6    6    0    0 -0.76910302546E+01  0.24474145837E+02  0.90720359403E+02  0.94277883785E+02  0.00000000000E+00 0. -1.
        -14    1    6    6    0    0  0.65832389962E+02 -0.28335019238E+02  0.14835827036E+03  0.16476332500E+03  0.00000000000E+00 0.  1.
</event>
<event>
12    1  0.9028446E-003  0.1854581E+03  0.7818608E-02  0.1162634E+00
         21   -1    0    0  501  502  0.00000000000E+00  0.00000000000E+00  0.18535737526E+03  0.18535737526E+03  0.00000000000E+00 0. -1.
         21   -1    0    0  502  503 -0.00000000000E+00 -0.00000000000E+00 -0.42324451357E+03  0.42324451357E+03  0.00000000000E+00 0. -1.
          6    2    1    2  501    0  0.62362116935E+02  0.33402438904E+02  0.10912516558E+03  0.21514001987E+03  0.17138310837E+03 0.  0.
         24    2    3    3    0    0 -0.22460877371E+02  0.44361148023E+02  0.40258462808E+02  0.10523212016E+03  0.83550301136E+02 0.  0.
         -6    2    1    2    0  503 -0.62362116935E+02 -0.33402438904E+02 -0.34701230389E+03  0.39346186896E+03  0.17143496353E+03 0.  0.
        -24    2    5    5    0    0  0.10709435868E+01 -0.54338405675E+02 -0.28860461355E+03  0.30460458922E+03  0.80854953828E+02 0.  0.
          5    1    3    3  501    0  0.84822994306E+02 -0.10958709120E+02  0.68866702771E+02  0.10990789971E+03  0.47000000000E+01 0. -1.
        -11    1    4    4    0    0  0.24172048841E+02  0.17624121037E+02 -0.10100463593E+02  0.31573991707E+02  0.00000000000E+00 0.  1.
         12    1    4    4    0    0 -0.46632926213E+02  0.26737026986E+02  0.50358926401E+02  0.73658128455E+02  0.00000000000E+00 0. -1.
         -5    1    5    5    0  503 -0.63433060522E+02  0.20935966771E+02 -0.58407690335E+02  0.88857279736E+02  0.47000000000E+01 0.  1.
         13    1    6    6    0    0 -0.10206226984E+01  0.19534721207E+02 -0.10275481376E+03  0.10460018525E+03  0.00000000000E+00 0. -1.
        -14    1    6    6    0    0  0.20915662852E+01 -0.73873126881E+02 -0.18584979979E+03  0.20000440397E+03  0.00000000000E+00 0.  1.
</event>
<event>
12    1  0.9028446E-003  0.2228261E+03  0.7818608E-02  0.1132168E+00
         21   -1    0    0  501  502  0.00000000000E+00  0.00000000000E+00  0.14753490443E+03  0.14753490443E+03  0.00000000000E+00 0. -1.
         21   -1    0    0  502  503 -0.00000000000E+00 -0.00000000000E+00 -0.33385880735E+03  0.33385880735E+03  0.00000000000E+00 0. -1.
          6    2    1    2  501    0  0.77580548633E+02 -0.11746692584E+03 -0.84636041971E+02  0.23646129450E+03  0.17009839506E+03 0.  0.
         24    2    3    3    0    0  0.34132161980E+02 -0.29268746301E+02  0.19245642890E+02  0.93352330327E+02  0.79514771054E+02 0.  0.
         -6    2    1    2    0  503 -0.77580548633E+02  0.11746692584E+03 -0.10168786095E+03  0.24493241728E+03  0.17272593256E+03 0.  0.
        -24    2    5    5    0    0  0.23366194162E+02  0.77073713754E+02 -0.63854886175E+02  0.12971401405E+03  0.79132436906E+02 0.  0.
          5    1    3    3  501    0  0.43448386653E+02 -0.88198179539E+02 -0.10388168486E+03  0.14310896417E+03  0.47000000000E+01 0. -1.
        -13    1    4    4    0    0 -0.36180727188E+01  0.17416189269E+02 -0.15836258307E+02  0.23815985725E+02  0.00000000000E+00 0.  1.
         14    1    4    4    0    0  0.37750234699E+02 -0.46684935570E+02  0.35081901197E+02  0.69536344602E+02  0.00000000000E+00 0. -1.
         -5    1    5    5    0  503 -0.10094674279E+03  0.40393212087E+02 -0.37832974771E+02  0.11521840323E+03  0.47000000000E+01 0.  1.
         13    1    6    6    0    0 -0.51229558476E+01  0.15165914078E+02 -0.59289887306E+02  0.61412868058E+02  0.00000000000E+00 0. -1.
        -14    1    6    6    0    0  0.28489150010E+02  0.61907799675E+02 -0.45649988698E+01  0.68301145990E+02  0.00000000000E+00 0.  1.
</event>
<event>
12    1  0.9028446E-003  0.1772784E+03  0.7818608E-02  0.1170756E+00
         21   -1    0    0  503  502  0.00000000000E+00  0.00000000000E+00  0.22190378606E+04  0.22190378606E+04  0.00000000000E+00 0.  1.
         21   -1    0    0  501  503 -0.00000000000E+00 -0.00000000000E+00 -0.18151135072E+02  0.18151135072E+02  0.00000000000E+00 0.  1.
          6    2    1    2  501    0 -0.64078297383E+01 -0.41138203275E+02  0.56709769508E+03  0.59381008526E+03  0.17110584308E+03 0.  0.
         24    2    3    3    0    0 -0.33489041633E+02 -0.82576107199E+02  0.30771293278E+03  0.32970208305E+03  0.77947964524E+02 0.  0.
         -6    2    1    2    0  502  0.64078297383E+01  0.41138203275E+02  0.16337890304E+04  0.16433789104E+04  0.17232015302E+03 0.  0.
        -24    2    5    5    0    0  0.26404511974E+02  0.77372491767E+02  0.70528377624E+03  0.71393989248E+03  0.74841594836E+02 0.  0.
          5    1    3    3  501    0  0.27081211895E+02  0.41437903924E+02  0.25938476230E+03  0.26410800221E+03  0.47000000000E+01 0. -1.
        -13    1    4    4    0    0 -0.47277671638E+01  0.13044503055E+02  0.15030948055E+02  0.20455811931E+02  0.00000000000E+00 0.  1.
         14    1    4    4    0    0 -0.28761274469E+02 -0.95620610254E+02  0.29268198473E+03  0.30924627112E+03  0.00000000000E+00 0. -1.
         -5    1    5    5    0  502 -0.19996682235E+02 -0.36234288492E+02  0.92850525417E+03  0.92943901789E+03  0.47000000000E+01 0.  1.
         11    1    6    6    0    0  0.44356742808E+02  0.43384475399E+02  0.56792804767E+03  0.57130727342E+03  0.00000000000E+00 0. -1.
        -12    1    6    6    0    0 -0.17952230835E+02  0.33988016368E+02  0.13735572857E+03  0.14263261906E+03  0.00000000000E+00 0.  1.
</event>
<event>
12    1  0.9028446E-003  0.2684408E+03  0.7818608E-02  0.1102409E+00
         21   -1    0    0  501  502  0.00000000000E+00  0.00000000000E+00  0.62718507070E+03  0.62718507070E+03  0.00000000000E+00 0.  1.
         21   -1    0    0  502  503 -0.00000000000E+00 -0.00000000000E+00 -0.19803737671E+03  0.19803737671E+03  0.00000000000E+00 0. -1.
          6    2    1    2  501    0  0.11277567906E+03  0.17171272211E+03  0.48265595241E+03  0.55150073390E+03  0.17027236525E+03 0.  0.
         24    2    3    3    0    0  0.14623615787E+03  0.13736687578E+03  0.36247674058E+03  0.42202342407E+03  0.80372324693E+02 0.  0.
         -6    2    1    2    0  503 -0.11277567906E+03 -0.17171272211E+03 -0.53508258424E+02  0.27372171351E+03  0.17279129032E+03 0.  0.
        -24    2    5    5    0    0  0.61500193632E+01 -0.71056290292E+02 -0.48399012420E+02  0.11776263745E+03  0.80241854717E+02 0.  0.
          5    1    3    3  501    0 -0.33460478809E+02  0.34345846323E+02  0.12017921183E+03  0.12947730982E+03  0.47000000000E+01 0. -1.
        -11    1    4    4    0    0  0.64292523720E+02  0.78891669136E+02  0.10818698978E+03  0.14853231575E+03  0.00000000000E+00 0.  1.
         12    1    4    4    0    0  0.81943634149E+02  0.58475206648E+02  0.25428975080E+03  0.27349110832E+03  0.00000000000E+00 0. -1.
         -5    1    5    5    0  503 -0.11892569842E+03 -0.10065643181E+03 -0.51092460043E+01  0.15595907606E+03  0.47000000000E+01 0.  1.
         11    1    6    6    0    0 -0.16368184410E+02 -0.30479502714E+02 -0.60599110517E+02  0.69779436383E+02  0.00000000000E+00 0. -1.
        -12    1    6    6    0    0  0.22518203773E+02 -0.40576787578E+02  0.12200098097E+02  0.47983201070E+02  0.00000000000E+00 0.  1.
</event>
<event>
12    1  0.9028446E-003  0.2433252E+03  0.7818608E-02  0.1117764E+00
         21   -1    0    0  501  502  0.00000000000E+00  0.00000000000E+00  0.31376017996E+03  0.31376017996E+03  0.00000000000E+00 0.  1.
         21   -1    0    0  502  503 -0.00000000000E+00 -0.00000000000E+00 -0.19526776120E+03  0.19526776120E+03  0.00000000000E+00 0. -1.
          6    2    1    2  501    0 -0.16948289589E+03  0.46527269378E+01  0.10876266128E+03  0.26652667857E+03  0.17453095438E+03 0.  0.
         24    2    3    3    0    0 -0.12878330500E+03  0.21670138764E+02  0.14390912540E+03  0.20992797766E+03  0.79405194241E+02 0.  0.
         -6    2    1    2    0  503  0.16948289589E+03 -0.46527269378E+01  0.97297574812E+01  0.24250126258E+03  0.17310717578E+03 0.  0.
        -24    2    5    5    0    0  0.14117923473E+03  0.23337568898E+02 -0.51156500502E+02  0.16960558159E+03  0.75318306691E+02 0.  0.
          5    1    3    3  501    0 -0.40699590891E+02 -0.17017411826E+02 -0.35146464127E+02  0.56598700909E+02  0.47000000000E+01 0. -1.
        -13    1    4    4    0    0 -0.78480660975E+02 -0.23125085233E+02  0.55850591857E+02  0.99061962049E+02  0.00000000000E+00 0.  1.
         14    1    4    4    0    0 -0.50302644021E+02  0.44795223996E+02  0.88058533545E+02  0.11086601562E+03  0.00000000000E+00 0. -1.
         -5    1    5    5    0  503  0.28303661155E+02 -0.27990295835E+02  0.60886257983E+02  0.72895680990E+02  0.47000000000E+01 0.  1.
         11    1    6    6    0    0  0.11994826745E+03  0.43918576304E+01 -0.11196765553E+02  0.12054975254E+03  0.00000000000E+00 0. -1.
        -12    1    6    6    0    0  0.21230967278E+02  0.18945711267E+02 -0.39959734949E+02  0.49055829054E+02  0.00000000000E+00 0.  1.
</event>
<event>
12    1  0.9028446E-003  0.2151070E+03  0.7818608E-02  0.1137640E+00
         21   -1    0    0  503  502  0.00000000000E+00  0.00000000000E+00  0.74158719126E+03  0.74158719126E+03  0.00000000000E+00 0. -1.
         21   -1    0    0  501  503 -0.00000000000E+00 -0.00000000000E+00 -0.84754757037E+02  0.84754757037E+02  0.00000000000E+00 0.  1.
          6    2    1    2  501    0 -0.16482685411E+02 -0.12811365512E+03  0.11564096047E+03  0.24396816125E+03  0.17164744221E+03 0.  0.
         24    2    3    3    0    0 -0.55807687379E+02 -0.31733977772E+02  0.26003133620E+02  0.10651806853E+03  0.80922139427E+02 0.  0.
         -6    2    1    2    0  502  0.16482685411E+02  0.12811365512E+03  0.54119147375E+03  0.58237378705E+03  0.17200647964E+03 0.  0.
        -24    2    5    5    0    0 -0.51875587534E+02  0.10567800133E+03  0.37823338786E+03  0.40417827702E+03  0.80253768569E+02 0.  0.
          5    1    3    3  501    0  0.39325001967E+02 -0.96379677346E+02  0.89637826852E+02  0.13745009272E+03  0.47000000000E+01 0. -1.
        -13    1    4    4    0    0 -0.22757617918E+02 -0.52392910481E+02 -0.41026066052E+01  0.57269168171E+02  0.00000000000E+00 0.  1.
         14    1    4    4    0    0 -0.33050069461E+02  0.20658932710E+02  0.30105740225E+02  0.49248900359E+02  0.00000000000E+00 0. -1.
         -5    1    5    5    0  502  0.68358272945E+02  0.22435653787E+02  0.16295808588E+03  0.17819551003E+03  0.47000000000E+01 0.  1.
         13    1    6    6    0    0  0.10308854604E+02  0.69726125101E+02  0.19700488070E+03  0.20923414641E+03  0.00000000000E+00 0. -1.
        -14    1    6    6    0    0 -0.62184442138E+02  0.35951876230E+02  0.18122850716E+03  0.19494413061E+03  0.00000000000E+00 0.  1.
</event>
<event>
12    1  0.9028446E-003  0.1986943E+03  0.7818608E-02  0.1151515E+00
         21   -1    0    0  503  502  0.00000000000E+00  0.00000000000E+00  0.38855913497E+03  0.38855913497E+03  0.00000000000E+00 0. -1.
         21   -1    0    0  501  503 -0.00000000000E+00 -0.00000000000E+00 -0.10291170210E+03  0.10291170210E+03  0.00000000000E+00 0. -1.
          6    2    1    2  501    0  0.44581400037E+02 -0.75036786315E+02  0.18515063607E+03  0.27158827742E+03  0.17849765787E+03 0.  0.
         24    2    3    3    0    0 -0.22905314585E+02  0.12018231711E+02  0.11274520382E+03  0.13968805213E+03  0.78308234508E+02 0.  0.
         -6    2    1    2    0  502 -0.44581400037E+02  0.75036786315E+02  0.10049679681E+03  0.21988255965E+03  0.17501632307E+03 0.  0.
        -24    2    5    5    0    0  0.28791386257E+02  0.55561972190E+02  0.10627704449E+02  0.10214820649E+03  0.80032689013E+02 0.  0.
          5    1    3    3  501    0  0.67486714621E+02 -0.87055018025E+02  0.72405432242E+02  0.13190022529E+03  0.47000000000E+01 0. -1.
        -11    1    4    4    0    0 -0.40379087176E+02 -0.86205518641E+01  0.10295888079E+03  0.11092932763E+03  0.00000000000E+00 0.  1.
         12    1    4    4    0    0  0.17473772592E+02  0.20638783575E+02  0.97863230375E+01  0.28758724496E+02  0.00000000000E+00 0. -1.
         -5    1    5    5    0  502 -0.73372786294E+02  0.19474814125E+02  0.89869092359E+02  0.11773435316E+03  0.47000000000E+01 0.  1.
         11    1    6    6    0    0 -0.62039297176E+00  0.68746689427E+02  0.12438183224E+02  0.69865589503E+02  0.00000000000E+00 0. -1.
        -12    1    6    6    0    0  0.29411779229E+02 -0.13184717237E+02 -0.18104787757E+01  0.32282616985E+02  0.00000000000E+00 0.  1.
</event>
<event>
12    1  0.9028446E-003  0.1911616E+03  0.7818608E-02  0.1157466E+00
         21   -1    0    0  503  502  0.00000000000E+00  0.00000000000E+00  0.17684216821E+03  0.17684216821E+03  0.00000000000E+00 0. -1.
         21   -1    0    0  501  503 -0.00000000000E+00 -0.00000000000E+00 -0.21427146902E+03  0.21427146902E+03  0.00000000000E+00 0. -1.
          6    2    1    2  501    0  0.39688844347E+02  0.73362488685E+02 -0.56186720245E+02  0.19924785887E+03  0.17200436803E+03 0.  0.
         24    2    3    3    0    0  0.35590105424E+02 -0.24269338324E+02 -0.23808454685E+02  0.96198281547E+02  0.82653556919E+02 0.  0.
         -6    2    1    2    0  502 -0.39688844347E+02 -0.73362488685E+02  0.18757419436E+02  0.19186577836E+03  0.17176547095E+03 0.  0.
        -24    2    5    5    0    0 -0.37702265710E+02  0.14166830620E+02  0.36520731987E+02  0.10240655019E+03  0.86782358389E+02 0.  0.
          5    1    3    3  501    0  0.40987389231E+01  0.97631827008E+02 -0.32378265560E+02  0.10304957732E+03  0.47000000000E+01 0. -1.
        -13    1    4    4    0    0  0.57389482967E+02 -0.32047429779E+02 -0.29978239839E+02  0.72244621768E+02  0.00000000000E+00 0.  1.
         14    1    4    4    0    0 -0.21799377543E+02  0.77780914549E+01  0.61697851537E+01  0.23953659779E+02  0.00000000000E+00 0. -1.
         -5    1    5    5    0  502 -0.19865786369E+01 -0.87529319305E+02 -0.17763312550E+02  0.89459228174E+02  0.47000000000E+01 0.  1.
         11    1    6    6    0    0  0.14837656526E+02 -0.21894078177E+02 -0.42040479741E+01  0.26780230204E+02  0.00000000000E+00 0. -1.
        -12    1    6    6    0    0 -0.52539922237E+02  0.36060908797E+02  0.40724779961E+02  0.75626319987E+02  0.00000000000E+00 0.  1.
</event>
<event>
12    1  0.9028446E-003  0.4636115E+03  0.7818608E-02  0.1023783E+00
         21   -1    0    0  501  502  0.00000000000E+00  0.00000000000E+00  0.16794915625E+03  0.16794915625E+03  0.00000000000E+00 0. -1.
         21   -1    0    0  502  503 -0.00000000000E+00 -0.00000000000E+00 -0.13104188513E+04  0.13104188513E+04  0.00000000000E+00 0.  1.
          6    2    1    2  501    0  0.34158019171E+02 -0.42944110153E+03 -0.45471512511E+03  0.64894532386E+03  0.16964008487E+03 0.  0.
         24    2    3    3    0    0  0.25166437593E+02 -0.43977301471E+03 -0.42923013811E+03  0.61963369594E+03  0.75324309703E+02 0.  0.
         -6    2    1    2    0  503 -0.34158019171E+02  0.42944110153E+03 -0.68775456993E+03  0.82942268369E+03  0.17131611074E+03 0.  0.
        -24    2    5    5    0    0  0.42346906109E+02  0.18652823725E+03 -0.26565784352E+03  0.33642430674E+03  0.77596266631E+02 0.  0.
          5    1    3    3  501    0  0.89915815774E+01  0.10331913175E+02 -0.25484986992E+02  0.29311627916E+02  0.47000000000E+01 0. -1.
        -11    1    4    4    0    0  0.50997894066E+02 -0.34035390669E+03 -0.32858428671E+03  0.47582475815E+03  0.00000000000E+00 0.  1.
         12    1    4    4    0    0 -0.25831456473E+02 -0.99419108014E+02 -0.10064585141E+03  0.14380893779E+03  0.00000000000E+00 0. -1.
         -5    1    5    5    0  503 -0.76504925280E+02  0.24291286428E+03 -0.42209672641E+03  0.49299837694E+03  0.47000000000E+01 0.  1.
         13    1    6    6    0    0 -0.18245113253E+02  0.14860911601E+02 -0.21545380628E+02  0.31905082317E+02  0.00000000000E+00 0. -1.
        -14    1    6    6    0    0  0.60592019362E+02  0.17166732565E+03 -0.24411246289E+03  0.30451922443E+03  0.00000000000E+00 0.  1.
</event>
<event>
12    1  0.9028446E-003  0.4227521E+03  0.7818608E-02  0.1036275E+00
         21   -1    0    0  503  502  0.00000000000E+00  0.00000000000E+00  0.21577117616E+03  0.21577117616E+03  0.00000000000E+00 0. -1.
         21   -1    0    0  501  503 -0.00000000000E+00 -0.00000000000E+00 -0.83914241178E+03  0.83914241178E+03  0.00000000000E+00 0.  1.
          6    2    1    2  501    0 -0.33414893193E+03  0.19248947969E+03 -0.24484628975E+03  0.48746274874E+03  0.17018377509E+03 0.  0.
         24    2    3    3    0    0 -0.19971592421E+03  0.19203435996E+03 -0.16460656307E+03  0.33083278853E+03  0.74775447647E+02 0.  0.
         -6    2    1    2    0  502  0.33414893193E+03 -0.19248947969E+03 -0.37852494587E+03  0.56745083920E+03  0.17323859778E+03 0.  0.
        -24    2    5    5    0    0  0.26351471435E+03 -0.10594744001E+03 -0.20171812835E+03  0.35825844439E+03  0.83630406830E+02 0.  0.
          5    1    3    3  501    0 -0.13443300772E+03  0.45511973327E+00 -0.80239726680E+02  0.15662996021E+03  0.47000000000E+01 0. -1.
        -11    1    4    4    0    0 -0.11139222595E+03  0.14687629098E+03 -0.82049202879E+02  0.20177448934E+03  0.00000000000E+00 0.  1.
         12    1    4    4    0    0 -0.88323698261E+02  0.45158068981E+02 -0.82557360187E+02  0.12905829919E+03  0.00000000000E+00 0. -1.
         -5    1    5    5    0  502  0.70634217576E+02 -0.86542039680E+02 -0.17680681752E+03  0.20919239481E+03  0.47000000000E+01 0.  1.
         11    1    6    6    0    0  0.33661417730E+02  0.10475654634E+02 -0.86698185924E+01  0.36304216533E+02  0.00000000000E+00 0. -1.
        -12    1    6    6    0    0  0.22985329662E+03 -0.11642309465E+03 -0.19304830976E+03  0.32195422786E+03  0.00000000000E+00 0.  1.
</event>
<event>
12    1  0.9028446E-003  0.1972830E+03  0.7818608E-02  0.1152335E+00
         21   -1    0    0  501  502  0.00000000000E+00  0.00000000000E+00  0.39920387844E+03  0.39920387844E+03  0.00000000000E+00 0.  1.
         21   -1    0    0  502  503 -0.00000000000E+00 -0.00000000000E+00 -0.12826987119E+03  0.12826987119E+03  0.00000000000E+00 0.  1.
          6    2    1    2  501    0  0.83992836588E+02  0.47574651093E+02  0.26634596661E+03  0.33145251066E+03  0.17205362207E+03 0.  0.
         24    2    3    3    0    0  0.41912584921E+01  0.57780845582E+02  0.70578335965E+02  0.11974631452E+03  0.77470546471E+02 0.  0.
         -6    2    1    2    0  503 -0.83992836588E+02 -0.47574651093E+02  0.45880406436E+01  0.19602123897E+03  0.17054363660E+03 0.  0.
        -24    2    5    5    0    0 -0.95785546003E+02 -0.47934809285E+02  0.54624898719E+02  0.14439784432E+03  0.79963998895E+02 0.  0.
          5    1    3    3  501    0  0.79801578096E+02 -0.10206194489E+02  0.19576763065E+03  0.21170619613E+03  0.47000000000E+01 0. -1.
        -11    1    4    4    0    0  0.13060701354E+02  0.19833445382E+02  0.76705479642E+02  0.80297435094E+02  0.00000000000E+00 0.  1.
         12    1    4    4    0    0 -0.88694428617E+01  0.37947400200E+02 -0.61271436772E+01  0.39448879430E+02  0.00000000000E+00 0. -1.
         -5    1    5    5    0  503  0.11792709415E+02  0.36015819180E+00 -0.50036858076E+02  0.51623394652E+02  0.47000000000E+01 0.  1.
         11    1    6    6    0    0 -0.39555978970E+02  0.15062261589E+02 -0.25776156445E+01  0.42405085766E+02  0.00000000000E+00 0. -1.
        -12    1    6    6    0    0 -0.56229567033E+02 -0.62997070874E+02  0.57202514364E+02  0.10199275855E+03  0.00000000000E+00 0.  1.
</event>
<event>
12    1  0.9028446E-003  0.1829260E+03  0.7818608E-02  0.1165035E+00
         21   -1    0    0  503  502  0.00000000000E+00  0.00000000000E+00  0.62032647095E+03  0.62032647095E+03  0.00000000000E+00 0. -1.
         21   -1    0    0  501  503 -0.00000000000E+00 -0.00000000000E+00 -0.57643161231E+02  0.57643161231E+02  0.00000000000E+00 0. -1.
          6    2    1    2  501    0  0.26992737723E+02 -0.57776920075E+02  0.36762490383E+03  0.41055666618E+03  0.17129485060E+03 0.  0.
         24    2    3    3    0    0  0.72356183581E+02 -0.37345322667E+02  0.32931793061E+03  0.34758995601E+03  0.75752146275E+02 0.  0.
         -6    2    1    2    0  502 -0.26992737723E+02  0.57776920075E+02  0.19505840588E+03  0.26741296600E+03  0.17145008689E+03 0.  0.
        -24    2    5    5    0    0 -0.79946166896E+02  0.14775335205E+02  0.12501605397E+03  0.16952924404E+03  0.80631573866E+02 0.  0.
          5    1    3    3  501    0 -0.45363445858E+02 -0.20431597408E+02  0.38306973220E+02  0.62966710173E+02  0.47000000000E+01 0. -1.
        -13    1    4    4    0    0  0.34839612027E+02 -0.36794082586E+02  0.74961829666E+02  0.90481373698E+02  0.00000000000E+00 0.  1.
         14    1    4    4    0    0  0.37516571554E+02 -0.55124008083E+00  0.25435610095E+03  0.25710858231E+03  0.00000000000E+00 0. -1.
         -5    1    5    5    0  502  0.52953429173E+02  0.43001584869E+02  0.70042351914E+02  0.97883721957E+02  0.47000000000E+01 0.  1.
         13    1    6    6    0    0 -0.12843183718E+02  0.10014997613E+02 -0.96961157866E+01  0.18954213425E+02  0.00000000000E+00 0. -1.
        -14    1    6    6    0    0 -0.67102983178E+02  0.47603375921E+01  0.13471216976E+03  0.15057503062E+03  0.00000000000E+00 0.  1.
</event>
<event>
12    1  0.9028446E-003  0.2040930E+03  0.7818608E-02  0.1146396E+00
         21   -1    0    0  501  502  0.00000000000E+00  0.00000000000E+00  0.75604791423E+03  0.75604791423E+03  0.00000000000E+00 0.  1.
         21   -1    0    0  502  503 -0.00000000000E+00 -0.00000000000E+00 -0.57112223464E+02  0.57112223464E+02  0.00000000000E+00 0.  1.
          6    2    1    2  501    0  0.10888469711E+03  0.75364753717E+00  0.42723773083E+03  0.47334588741E+03  0.17224344756E+03 0.  0.
         24    2    3    3    0    0  0.26833852626E+02  0.47507228129E+02  0.29649961657E+03  0.31199910901E+03  0.80339461189E+02 0.  0.
         -6    2    1    2    0  503 -0.10888469711E+03 -0.75364753717E+00  0.27169795993E+03  0.33981425028E+03  0.17261951806E+03 0.  0.
        -24    2    5    5    0    0 -0.31556409103E+02 -0.53026854403E+02  0.87156119717E+02  0.13295697323E+03  0.79206775480E+02 0.  0.
          5    1    3    3  501    0  0.82050844486E+02 -0.46753580592E+02  0.13073811427E+03  0.16134677840E+03  0.47000000000E+01 0. -1.
        -13    1    4    4    0    0  0.33704252537E+02  0.46634314600E+02  0.99959893914E+02  0.11533740212E+03  0.00000000000E+00 0.  1.
         14    1    4    4    0    0 -0.68703999108E+01  0.87291352875E+00  0.19653972265E+03  0.19666170688E+03  0.00000000000E+00 0. -1.
         -5    1    5    5    0  503 -0.77328288009E+02  0.52273206866E+02  0.18454184021E+03  0.20685727706E+03  0.47000000000E+01 0.  1.
         13    1    6    6    0    0  0.90171801965E+01 -0.57887275571E+02  0.60208989346E+02  0.84008146092E+02  0.00000000000E+00 0. -1.
        -14    1    6    6    0    0 -0.40573589300E+02  0.48604211681E+01  0.26947130371E+02  0.48948827134E+02  0.00000000000E+00 0.  1.
</event>
<event>
12    1  0.9028446E-003  0.1951491E+03  0.7818608E-02  0.1154750E+00
         21   -1    0    0  503  502  0.00000000000E+00  0.00000000000E+00  0.19532943073E+04  0.19532943073E+04  0.00000000000E+00 0.  1.
         21   -1    0    0  501  503 -0.00000000000E+00 -0.00000000000E+00 -0.19316416573E+02  0.19316416573E+02  0.00000000000E+00 0.  1.
          6    2    1    2  501    0 -0.87229134063E+02  0.20978708695E+02  0.85594736702E+03  0.87705926803E+03  0.16893204696E+03 0.  0.
         24    2    3    3    0    0 -0.82088572918E+02  0.72837224371E+02  0.65302092484E+03  0.66749552605E+03  0.84084207592E+02 0.  0.
         -6    2    1    2    0  502  0.87229134063E+02 -0.20978708695E+02  0.10780305237E+04  0.10955514558E+04  0.17330364767E+03 0.  0.
        -24    2    5    5    0    0  0.10493708098E+03  0.34919984924E+02  0.72502576146E+03  0.73767900998E+03  0.79226073219E+02 0.  0.
          5    1    3    3  501    0 -0.51405611447E+01 -0.51858515676E+02  0.20292644218E+03  0.20956374198E+03  0.47000000000E+01 0. -1.
        -13    1    4    4    0    0 -0.37922239379E+02  0.54690974327E+02  0.17721371530E+03  0.18929844110E+03  0.00000000000E+00 0.  1.
         14    1    4    4    0    0 -0.44166333540E+02  0.18146250043E+02  0.47580720954E+03  0.47819708496E+03  0.00000000000E+00 0. -1.
         -5    1    5    5    0  502 -0.17707946918E+02 -0.55898693619E+02  0.35300476224E+03  0.35787244585E+03  0.47000000000E+01 0.  1.
         13    1    6    6    0    0  0.10317600297E+02 -0.11202295827E+02  0.21647845116E+02  0.26468349134E+02  0.00000000000E+00 0. -1.
        -14    1    6    6    0    0  0.94619480684E+02  0.46122280751E+02  0.70337791634E+03  0.71121066085E+03  0.00000000000E+00 0.  1.
</event>
<event>
12    1  0.9028446E-003  0.2073285E+03  0.7818608E-02  0.1143751E+00
         21   -1    0    0  501  502  0.00000000000E+00  0.00000000000E+00  0.22175865774E+03  0.22175865774E+03  0.00000000000E+00 0. -1.
         21   -1    0    0  502  503 -0.00000000000E+00 -0.00000000000E+00 -0.26770692011E+03  0.26770692011E+03  0.00000000000E+00 0. -1.
          6    2    1    2  501    0  0.35545079165E+02 -0.11046992460E+03  0.10580028426E+03  0.23253618332E+03  0.17150020265E+03 0.  0.
         24    2    3    3    0    0  0.50468739980E+02 -0.52361093221E+02  0.12892542791E+03  0.16806747614E+03  0.79599829000E+02 0.  0.
         -6    2    1    2    0  503 -0.35545079165E+02  0.11046992460E+03 -0.15174854663E+03  0.25692939454E+03  0.17180813566E+03 0.  0.
        -24    2    5    5    0    0  0.16962247423E+02 -0.48238608501E+00 -0.80168882692E+02  0.11475635602E+03  0.80336921536E+02 0.  0.
          5    1    3    3  501    0 -0.14923660815E+02 -0.58108831377E+02 -0.23125143646E+02  0.64468707174E+02  0.47000000000E+01 0. -1.
        -13    1    4    4    0    0 -0.10145126198E+02  0.12947774582E+02  0.34603984913E+02  0.38314543245E+02  0.00000000000E+00 0.  1.
         14    1    4    4    0    0  0.60613866177E+02 -0.65308867803E+02  0.94321442997E+02  0.12975293290E+03  0.00000000000E+00 0. -1.
         -5    1    5    5    0  503 -0.52507326588E+02  0.11095231068E+03 -0.71579663941E+02  0.14217303852E+03  0.47000000000E+01 0.  1.
         11    1    6    6    0    0  0.34306804669E+02  0.27502607022E+02 -0.25193530156E+02  0.50676071289E+02  0.00000000000E+00 0. -1.
        -12    1    6    6    0    0 -0.17344557246E+02 -0.27984993107E+02 -0.54975352535E+02  0.64080284734E+02  0.00000000000E+00 0.  1.
</event>
<event>
12    1  0.9028446E-003  0.2056872E+03  0.7818608E-02  0.1146111E+00
         21   -1    0    0  503  502  0.00000000000E+00  0.00000000000E+00  0.31142941747E+03  0.31142941747E+03  0.00000000000E+00 0.  1.
         21   -1    0    0  501  503 -0.00000000000E+00 -0.00000000000E+00 -0.14239890853E+03  0.14239890853E+03  0.00000000000E+00 0. -1.
          6    2    1    2  501    0  0.76011514347E+02 -0.72839209454E+02  0.23378918755E+02  0.20179337821E+03  0.17055993932E+03 0.  0.
         24    2    3    3    0    0  0.15316809983E+02 -0.92889078553E+02 -0.19016339200E+02  0.12494747861E+03  0.79920370815E+02 0.  0.
         -6    2    1    2    0  502 -0.76011514347E+02  0.72839209454E+02  0.14565159019E+03  0.25203494779E+03  0.17670293840E+03 0.  0.
        -24    2    5    5    0    0  0.37990508333E+01  0.86321388634E+02  0.55101831236E+02  0.13049135761E+03  0.80783461682E+02 0.  0.
          5    1    3    3  501    0  0.60694704364E+02  0.20049869099E+02  0.42395257955E+02  0.76845899603E+02  0.47000000000E+01 0. -1.
        -13    1    4    4    0    0  0.29262361556E+02 -0.78352568946E+02  0.15423679901E+02  0.85048814018E+02  0.00000000000E+00 0.  1.
         14    1    4    4    0    0 -0.13945551573E+02 -0.14536509607E+02 -0.34440019101E+02  0.39898664588E+02  0.00000000000E+00 0. -1.
         -5    1    5    5    0  502 -0.79810565180E+02 -0.13482179180E+02  0.90549758950E+02  0.12154359019E+03  0.47000000000E+01 0.  1.
         13    1    6    6    0    0  0.16069274121E+02  0.92902261004E+02  0.64013951789E+02  0.11395980736E+03  0.00000000000E+00 0. -1.
        -14    1    6    6    0    0 -0.12270223288E+02 -0.65808723706E+01 -0.89121205527E+01  0.16531550243E+02  0.00000000000E+00 0.  1.
</event>
<event>
12    1  0.9028446E-003  0.2443302E+03  0.7818608E-02  0.1117496E+00
         21   -1    0    0  503  502  0.00000000000E+00  0.00000000000E+00  0.49433352972E+03  0.49433352972E+03  0.00000000000E+00 0. -1.
         21   -1    0    0  501  503 -0.00000000000E+00 -0.00000000000E+00 -0.15423886884E+03  0.15423886884E+03  0.00000000000E+00 0. -1.
          6    2    1    2  501    0 -0.19759101440E+02 -0.17254601361E+03  0.14346987295E+02  0.24137614508E+03  0.16701514441E+03 0.  0.
         24    2    3    3    0    0 -0.72894680426E+02 -0.14832070529E+03  0.12036735139E+02  0.18274439103E+03  0.77058181969E+02 0.  0.
         -6    2    1    2    0  502  0.19759101440E+02  0.17254601361E+03  0.32574767358E+03  0.40719625348E+03  0.17185660623E+03 0.  0.
        -24    2    5    5    0    0  0.46010827026E+02  0.18267404079E+03  0.23202255008E+03  0.30922575381E+03  0.79368140279E+02 0.  0.
          5    1    3    3  501    0  0.53135578986E+02 -0.24225308327E+02  0.23102521558E+01  0.58631754048E+02  0.47000000000E+01 0. -1.
        -13    1    4    4    0    0 -0.49567212395E+02 -0.49144628942E+02  0.35330783088E+02  0.78232776584E+02  0.00000000000E+00 0.  1.
         14    1    4    4    0    0 -0.23327468031E+02 -0.99176076344E+02 -0.23294047949E+02  0.10451161444E+03  0.00000000000E+00 0. -1.
         -5    1    5    5    0  502 -0.26251725586E+02 -0.10128027180E+02  0.93725123503E+02  0.97970499675E+02  0.47000000000E+01 0.  1.
         11    1    6    6    0    0  0.28007992594E+02  0.26116404816E+02  0.87029784422E+02  0.95082583190E+02  0.00000000000E+00 0. -1.
        -12    1    6    6    0    0  0.18002834432E+02  0.15655763598E+03  0.14499276566E+03  0.21414317062E+03  0.00000000000E+00 0.  1.
</event>
<event>
12    1  0.9028446E-003  0.1972357E+03  0.7818608E-02  0.1152401E+00
         21   -1    0    0  503  502  0.00000000000E+00  0.00000000000E+00  0.24698670968E+03  0.24698670968E+03  0.00000000000E+00 0.  1.
         21   -1    0    0  501  503 -0.00000000000E+00 -0.00000000000E+00 -0.17129737336E+03  0.17129737336E+03  0.00000000000E+00 0.  1.
          6    2    1    2  501    0  0.97004226035E+02 -0.28222509909E+01 -0.24028774247E+02  0.19727359387E+03  0.17006382295E+03 0.  0.
         24    2    3    3    0    0  0.11807207750E+03 -0.43196535586E+02 -0.19148866641E+02  0.15123186583E+03  0.81837900612E+02 0.  0.
         -6    2    1    2    0  502 -0.97004226035E+02  0.28222509909E+01  0.99718110561E+02  0.22101048917E+03  0.17170949240E+03 0.  0.
        -24    2    5    5    0    0 -0.65930534030E+02 -0.68784129089E+02  0.44255318157E+02  0.12513943335E+03  0.67994506114E+02 0.  0.
          5    1    3    3  501    0 -0.21067851469E+02  0.40374284596E+02 -0.48799076061E+01  0.46041728034E+02  0.47000000000E+01 0. -1.
        -11    1    4    4    0    0  0.81063895931E+02  0.70162681543E+01 -0.32194972217E+02  0.87504854027E+02  0.00000000000E+00 0.  1.
         12    1    4    4    0    0  0.37008181573E+02 -0.50212803741E+02  0.13046105576E+02  0.63727011805E+02  0.00000000000E+00 0. -1.
         -5    1    5    5    0  502 -0.31073692005E+02  0.71606380080E+02  0.55462792404E+02  0.95871055821E+02  0.47000000000E+01 0.  1.
         13    1    6    6    0    0 -0.54892497181E+02 -0.22753158763E+02 -0.13109260616E+01  0.59435772120E+02  0.00000000000E+00 0. -1.
        -14    1    6    6    0    0 -0.11038036849E+02 -0.46030970326E+02  0.45566244218E+02  0.65703661228E+02  0.00000000000E+00 0.  1.
</event>
<event>
12    1  0.9028446E-003  0.1789622E+03  0.7818608E-02  0.1169314E+00
         21   -1    0    0  501  502  0.00000000000E+00  0.00000000000E+00  0.18489808522E+04  0.18489808522E+04  0.00000000000E+00 0. -1.
         21   -1    0    0  502  503 -0.00000000000E+00 -0.00000000000E+00 -0.17128768105E+02  0.17128768105E+02  0.00000000000E+00 0. -1.
          6    2    1    2  501    0 -0.42260657525E+02 -0.10670510314E+02  0.90522320738E+03  0.92274402399E+03  0.17357319974E+03 0.  0.
         24    2    3    3    0    0 -0.55420740133E+02  0.43792356093E+02  0.75231240381E+03  0.75982319831E+03  0.79800444104E+02 0.  0.
         -6    2    1    2    0  503  0.42260657525E+02  0.10670510314E+02  0.92662887667E+03  0.94336559627E+03  0.17145772125E+03 0.  0.
        -24    2    5    5    0    0  0.47307225996E+02 -0.35700972408E+02  0.82849745560E+03  0.83461060528E+03  0.81573864997E+02 0.  0.
          5    1    3    3  501    0  0.13160082608E+02 -0.54462866408E+02  0.15291080358E+03  0.16292082568E+03  0.47000000000E+01 0. -1.
        -13    1    4    4    0    0  0.98744143106E+01 -0.24093546568E+01  0.14614580802E+02  0.17801545435E+02  0.00000000000E+00 0.  1.
         14    1    4    4    0    0 -0.65295154444E+02  0.46201710750E+02  0.73769782300E+03  0.74202165288E+03  0.00000000000E+00 0. -1.
         -5    1    5    5    0  503 -0.50465684710E+01  0.46371482722E+02  0.98131421073E+02  0.10875499099E+03  0.47000000000E+01 0.  1.
         11    1    6    6    0    0  0.27502486771E+02 -0.30556205782E+01  0.71760364380E+02  0.76910815180E+02  0.00000000000E+00 0. -1.
        -12    1    6    6    0    0  0.19804739225E+02 -0.32645351830E+02  0.75673709122E+03  0.75769979010E+03  0.00000000000E+00 0.  1.
</event>
<event>
12    1  0.9028446E-003  0.2691218E+03  0.7818608E-02  0.1101981E+00
         21   -1    0    0  501  502  0.00000000000E+00  0.00000000000E+00  0.39576981991E+03  0.39576981991E+03  0.00000000000E+00 0. -1.
         21   -1    0    0  502  503 -0.00000000000E+00 -0.00000000000E+00 -0.18553854733E+03  0.18553854733E+03  0.00000000000E+00 0.  1.
          6    2    1    2  501    0  0.16113535512E+03 -0.12896016514E+03  0.14513404987E+03  0.30576209890E+03  0.17271723083E+03 0.  0.
         24    2    3    3    0    0  0.73982970705E+02 -0.17781928564E+02  0.11184772974E+03  0.16055119192E+03  0.86470189311E+02 0.  0.
         -6    2    1    2    0  503 -0.16113535512E+03  0.12896016514E+03  0.65097222704E+02  0.27554626834E+03  0.17056603041E+03 0.  0.
        -24    2    5    5    0    0 -0.43610491475E+02  0.99523930524E+02  0.77057184042E+02  0.15371147792E+03  0.76697595248E+02 0.  0.
          5    1    3    3  501    0  0.87152384414E+02 -0.11117823658E+03  0.33286320127E+02  0.14521090698E+03  0.47000000000E+01 0. -1.
        -11    1    4    4    0    0  0.83357661898E+01 -0.43515308971E+02  0.37029502579E+02  0.57742975106E+02  0.00000000000E+00 0.  1.
         12    1    4    4    0    0  0.65647204516E+02  0.25733380408E+02  0.74818227166E+02  0.10280821681E+03  0.00000000000E+00 0. -1.
         -5    1    5    5    0  503 -0.11752486364E+03  0.29436234621E+02 -0.11959961338E+02  0.12183479043E+03  0.47000000000E+01 0.  1.
         13    1    6    6    0    0 -0.42694028022E+02  0.60754093051E+02  0.86295818864E+02  0.11384554539E+03  0.00000000000E+00 0. -1.
        -14    1    6    6    0    0 -0.91646345292E+00  0.38769837473E+02 -0.92386348218E+01  0.39865932528E+02  0.00000000000E+00 0.  1.
</event>
<event>
12    1  0.9028446E-003  0.2727164E+03  0.7818608E-02  0.1099738E+00
         21   -1    0    0  503  502  0.00000000000E+00  0.00000000000E+00  0.12809051611E+03  0.12809051611E+03  0.00000000000E+00 0. -1.
         21   -1    0    0  501  503 -0.00000000000E+00 -0.00000000000E+00 -0.62419141521E+03  0.62419141521E+03  0.00000000000E+00 0.  1.
          6    2    1    2  501    0 -0.17336401774E+02 -0.21063554640E+03 -0.34746841702E+03  0.44171089156E+03  0.17235523391E+03 0.  0.
         24    2    3    3    0    0  0.34914822778E+02 -0.78248504918E+02 -0.92263733833E+02  0.14946435258E+03  0.80530259782E+02 0.  0.
         -6    2    1    2    0  502  0.17336401774E+02  0.21063554640E+03 -0.14863248208E+03  0.31057103976E+03  0.17232200026E+03 0.  0.
        -24    2    5    5    0    0  0.75228313493E+02  0.13123880539E+03 -0.70786936521E+02  0.18512250494E+03  0.79853793026E+02 0.  0.
          5    1    3    3  501    0 -0.52251224552E+02 -0.13238704148E+03 -0.25520468319E+03  0.29224653898E+03  0.47000000000E+01 0. -1.
        -11    1    4    4    0    0 -0.49528762197E+01  0.64942469164E+01 -0.42760551440E+02  0.43533561597E+02  0.00000000000E+00 0.  1.
         12    1    4    4    0    0  0.39867698997E+02 -0.84742751834E+02 -0.49503182393E+02  0.10593079099E+03  0.00000000000E+00 0. -1.
         -5    1    5    5    0  502 -0.57891911719E+02  0.79396741009E+02 -0.77845545561E+02  0.12544853482E+03  0.47000000000E+01 0.  1.
         13    1    6    6    0    0  0.79736679804E+02  0.95475510660E+02 -0.25052257144E+02  0.12689021566E+03  0.00000000000E+00 0. -1.
        -14    1    6    6    0    0 -0.45083663114E+01  0.35763294732E+02 -0.45734679377E+02  0.58232289278E+02  0.00000000000E+00 0.  1.
</event>
<event>
12    1  0.9028446E-003  0.2242944E+03  0.7818608E-02  0.1132790E+00
         21   -1    0    0  503  502  0.00000000000E+00  0.00000000000E+00  0.94384081961E+03  0.94384081961E+03  0.00000000000E+00 0.  1.
         21   -1    0    0  501  503 -0.00000000000E+00 -0.00000000000E+00 -0.52032217566E+02  0.52032217566E+02  0.00000000000E+00 0.  1.
          6    2    1    2  501    0 -0.38326842763E+02  0.11916756401E+03  0.51449661546E+03  0.55692848878E+03  0.17260567520E+03 0.  0.
         24    2    3    3    0    0  0.39947518474E+02  0.60436711567E+02  0.34045389593E+03  0.35720581386E+03  0.80241746408E+02 0.  0.
         -6    2    1    2    0  502  0.38326842763E+02 -0.11916756401E+03  0.37731198658E+03  0.43894454839E+03  0.18611320790E+03 0.  0.
        -24    2    5    5    0    0 -0.39373899706E+02 -0.91060641362E+02  0.28661418473E+03  0.31616187151E+03  0.89265299673E+02 0.  0.
          5    1    3    3  501    0 -0.78274361237E+02  0.58730852444E+02  0.17404271953E+03  0.19972267492E+03  0.47000000000E+01 0. -1.
        -13    1    4    4    0    0  0.19875692889E+02  0.77190369990E+02  0.22129646690E+03  0.23521378074E+03  0.00000000000E+00 0.  1.
         14    1    4    4    0    0  0.20071825585E+02 -0.16753658423E+02  0.11915742903E+03  0.12199203312E+03  0.00000000000E+00 0. -1.
         -5    1    5    5    0  502  0.77700742469E+02 -0.28106922649E+02  0.90697801855E+02  0.12278267688E+03  0.47000000000E+01 0.  1.
         11    1    6    6    0    0  0.58538545195E+01 -0.55433635918E+02  0.22513442572E+03  0.23193245837E+03  0.00000000000E+00 0. -1.
        -12    1    6    6    0    0 -0.45227754226E+02 -0.35627005444E+02  0.61479759008E+02  0.84229413134E+02  0.00000000000E+00 0.  1.
</event>
<event>
12    1  0.9028446E-003  0.1973370E+03  0.7818608E-02  0.1152102E+00
         21   -1    0    0  503  502  0.00000000000E+00  0.00000000000E+00  0.15302483511E+03  0.15302483511E+03  0.00000000000E+00 0. -1.
         21   -1    0    0  501  503 -0.00000000000E+00 -0.00000000000E+00 -0.28206328661E+03  0.28206328661E+03  0.00000000000E+00 0. -1.
          6    2    1    2  501    0 -0.36001643662E+02 -0.86702037637E+02 -0.13319370700E+03  0.23770737524E+03  0.17306319939E+03 0.  0.
         24    2    3    3    0    0  0.20235490407E+02 -0.29180446903E+02 -0.12904494509E+03  0.15701877088E+03  0.82105560114E+02 0.  0.
         -6    2    1    2    0  502  0.36001643662E+02  0.86702037637E+02  0.41552555018E+01  0.19738074647E+03  0.17357572196E+03 0.  0.
        -24    2    5    5    0    0  0.53878622333E+02  0.95452767896E+02 -0.45457031628E+02  0.14371855605E+03  0.81083566685E+02 0.  0.
          5    1    3    3  501    0 -0.56237134069E+02 -0.57521590734E+02 -0.41487619137E+01  0.80688604364E+02  0.47000000000E+01 0. -1.
        -11    1    4    4    0    0  0.35497969303E+01  0.44431514792E+01  0.10809731788E+02  0.12214456788E+02  0.00000000000E+00 0.  1.
         12    1    4    4    0    0  0.16685693476E+02 -0.33623598382E+02 -0.13985467687E+03  0.14480431409E+03  0.00000000000E+00 0. -1.
         -5    1    5    5    0  502 -0.17876978671E+02 -0.87507302585E+01  0.49612287130E+02  0.53662190421E+02  0.47000000000E+01 0.  1.
         13    1    6    6    0    0  0.47675137250E+02  0.15762302988E+02  0.29013813283E+01  0.50296987195E+02  0.00000000000E+00 0. -1.
        -14    1    6    6    0    0  0.62034850832E+01  0.79690464908E+02 -0.48358412956E+02  0.93421568859E+02  0.00000000000E+00 0.  1.
</event>
<event>
12    1  0.9028446E-003  0.2738758E+03  0.7818608E-02  0.1099082E+00
         21   -1    0    0  501  502  0.00000000000E+00  0.00000000000E+00  0.43897033421E+03  0.43897033421E+03  0.00000000000E+00 0. -1.
         21   -1    0    0  502  503 -0.00000000000E+00 -0.00000000000E+00 -0.17162758577E+03  0.17162758577E+03  0.00000000000E+00 0. -1.
          6    2    1    2  501    0  0.16219770306E+03  0.14058375032E+03  0.15393407072E+03  0.31417009415E+03  0.17010368661E+03 0.  0.
         24    2    3    3    0    0  0.12248767618E+03  0.17001211143E+03  0.12915124519E+03  0.25867961646E+03  0.79547162054E+02 0.  0.
         -6    2    1    2    0  503 -0.16219770306E+03 -0.14058375032E+03  0.11340867772E+03  0.29642782584E+03  0.17010597290E+03 0.  0.
        -24    2    5    5    0    0 -0.13407617770E+03 -0.50390826470E+02  0.20131809379E+02  0.16358111768E+03  0.76405729459E+02 0.  0.
          5    1    3    3  501    0  0.39710026886E+02 -0.29428361110E+02  0.24782825526E+02  0.55490477687E+02  0.47000000000E+01 0. -1.
        -13    1    4    4    0    0  0.46828434761E+02  0.11438906802E+02  0.32683815070E+02  0.58240730237E+02  0.00000000000E+00 0.  1.
         14    1    4    4    0    0  0.75659241416E+02  0.15857320462E+03  0.96467430125E+02  0.20043888623E+03  0.00000000000E+00 0. -1.
         -5    1    5    5    0  503 -0.28121525367E+02 -0.90192923847E+02  0.93276868341E+02  0.13284670816E+03  0.47000000000E+01 0.  1.
         11    1    6    6    0    0 -0.61677467760E+02 -0.59545299277E+02  0.27989615830E+02  0.90184096656E+02  0.00000000000E+00 0. -1.
        -12    1    6    6    0    0 -0.72398709936E+02  0.91544728074E+01 -0.78578064512E+01  0.73397021023E+02  0.00000000000E+00 0.  1.
</event>
<event>
12    1  0.9028446E-003  0.3070543E+03  0.7818608E-02  0.1081880E+00
         21   -1    0    0  503  502  0.00000000000E+00  0.00000000000E+00  0.58284411051E+03  0.58284411051E+03  0.00000000000E+00 0.  1.
         21   -1    0    0  501  503 -0.00000000000E+00 -0.00000000000E+00 -0.16217250939E+03  0.16217250939E+03  0.00000000000E+00 0. -1.
          6    2    1    2  501    0  0.17502708489E+03 -0.18403510244E+03  0.23843889449E+03  0.38876140636E+03  0.17256571298E+03 0.  0.
         24    2    3    3    0    0  0.53047504090E+02 -0.29583375393E+02  0.32943565719E+02  0.10418316709E+03  0.77972046227E+02 0.  0.
         -6    2    1    2    0  502 -0.17502708489E+03  0.18403510244E+03  0.18223270662E+03  0.35625521354E+03  0.17089651382E+03 0.  0.
        -24    2    5    5    0    0 -0.62001204463E+02  0.17976733108E+02  0.40313612438E+02  0.11026059782E+03  0.79780322102E+02 0.  0.
          5    1    3    3  501    0  0.12197958080E+03 -0.15445172705E+03  0.20549532877E+03  0.28457823927E+03  0.47000000000E+01 0. -1.
        -11    1    4    4    0    0  0.66350132784E+02  0.53776867314E-01  0.22398763788E+02  0.70028905687E+02  0.00000000000E+00 0.  1.
         12    1    4    4    0    0 -0.13302628694E+02 -0.29637152260E+02  0.10544801931E+02  0.34154261403E+02  0.00000000000E+00 0. -1.
         -5    1    5    5    0  502 -0.11302588043E+03  0.16605836933E+03  0.14191909418E+03  0.24599461572E+03  0.47000000000E+01 0.  1.
         11    1    6    6    0    0  0.65451105296E+01 -0.15915253927E+02 -0.88513952708E+01  0.19351510991E+02  0.00000000000E+00 0. -1.
        -12    1    6    6    0    0 -0.68546314993E+02  0.33891987034E+02  0.49165007709E+02  0.90909086824E+02  0.00000000000E+00 0.  1.
</event>
<event>
12    1  0.9028446E-003  0.2268890E+03  0.7818608E-02  0.1130291E+00
         21   -1    0    0  503  502  0.00000000000E+00  0.00000000000E+00  0.72032016338E+02  0.72032016338E+02  0.00000000000E+00 0.  1.
         21   -1    0    0  501  503 -0.00000000000E+00 -0.00000000000E+00 -0.74186353396E+03  0.74186353396E+03  0.00000000000E+00 0.  1.
          6    2    1    2  501    0  0.41436036997E+02 -0.12870835182E+03 -0.23284911967E+03  0.32511124867E+03  0.18219721867E+03 0.  0.
         24    2    3    3    0    0 -0.43059813869E+02 -0.10033869321E+03 -0.11401568940E+03  0.17649139638E+03  0.78915363799E+02 0.  0.
         -6    2    1    2    0  502 -0.41436036997E+02  0.12870835182E+03 -0.43698239794E+03  0.48878430162E+03  0.17226053642E+03 0.  0.
        -24    2    5    5    0    0 -0.76709565265E+02  0.13868843553E+03 -0.32033478939E+03  0.36642181370E+03  0.80819111071E+02 0.  0.
          5    1    3    3  501    0  0.84495850866E+02 -0.28369658606E+02 -0.11883343028E+03  0.14861985229E+03  0.47000000000E+01 0. -1.
        -13    1    4    4    0    0 -0.20865597456E+02 -0.66992752568E+02 -0.17976041633E+02  0.72433004402E+02  0.00000000000E+00 0.  1.
         14    1    4    4    0    0 -0.22194216412E+02 -0.33345940642E+02 -0.96039647763E+02  0.10405839198E+03  0.00000000000E+00 0. -1.
         -5    1    5    5    0  502  0.35273528268E+02 -0.99800837110E+01 -0.11664760856E+03  0.12236248792E+03  0.47000000000E+01 0.  1.
         11    1    6    6    0    0 -0.53813366794E+02  0.10917052431E+03 -0.30030768962E+03  0.32403516826E+03  0.00000000000E+00 0. -1.
        -12    1    6    6    0    0 -0.22896198471E+02  0.29517911216E+02 -0.20027099768E+02  0.42386645445E+02  0.00000000000E+00 0.  1.
</event>
<event>
12    1  0.9028446E-003  0.1859680E+03  0.7818608E-02  0.1163185E+00
         21   -1    0    0  501  502  0.00000000000E+00  0.00000000000E+00  0.34139060178E+02  0.34139060178E+02  0.00000000000E+00 0.  1.
         21   -1    0    0  502  503 -0.00000000000E+00 -0.00000000000E+00 -0.99083962485E+03  0.99083962485E+03  0.00000000000E+00 0.  1.
          6    2    1    2  501    0  0.36201536422E+02 -0.48918949458E+02 -0.45149128139E+03  0.48662888014E+03  0.17105459642E+03 0.  0.
         24    2    3    3    0    0  0.72115203365E+02 -0.38206175639E+02 -0.19189739816E+03  0.22430154796E+03  0.82621175147E+02 0.  0.
         -6    2    1    2    0  503 -0.36201536422E+02  0.48918949458E+02 -0.50520928328E+03  0.53834980489E+03  0.17572842018E+03 0.  0.
        -24    2    5    5    0    0  0.25775571463E+02 -0.19239950584E+02 -0.16999235851E+03  0.19067283670E+03  0.80150938367E+02 0.  0.
          5    1    3    3  501    0 -0.35913666943E+02 -0.10712773819E+02 -0.25959388323E+03  0.26232733218E+03  0.47000000000E+01 0. -1.
        -11    1    4    4    0    0 -0.33608495256E+01 -0.10694962516E+01 -0.98675292219E+02  0.98738302731E+02  0.00000000000E+00 0.  1.
         12    1    4    4    0    0  0.75476052891E+02 -0.37136679388E+02 -0.93222105939E+02  0.12556324523E+03  0.00000000000E+00 0. -1.
         -5    1    5    5    0  503 -0.61977107884E+02  0.68158900042E+02 -0.33521692477E+03  0.34767696819E+03  0.47000000000E+01 0.  1.
         13    1    6    6    0    0 -0.19303744762E+02 -0.25402396347E+02 -0.11476569280E+03  0.11911792705E+03  0.00000000000E+00 0. -1.
        -14    1    6    6    0    0  0.45079316225E+02  0.61624457630E+01 -0.55226665711E+02  0.71554909647E+02  0.00000000000E+00 0.  1.
</event>
<event>
12    1  0.9028446E-003  0.1903305E+03  0.7818608E-02  0.1158447E+00
         21   -1    0    0  503  502  0.00000000000E+00  0.00000000000E+00  0.27786896449E+02  0.27786896449E+02  0.00000000000E+00 0.  1.
         21   -1    0    0  501  503 -0.00000000000E+00 -0.00000000000E+00 -0.13952128663E+04  0.13952128663E+04  0.00000000000E+00 0.  1.
          6    2    1    2  501    0 -0.50893977164E+02  0.68626833207E+02 -0.49524327306E+03  0.53055780241E+03  0.17007599193E+03 0.  0.
         24    2    3    3    0    0 -0.39125993199E+02  0.11178615992E+03 -0.34115139505E+03  0.37003487633E+03  0.80712740371E+02 0.  0.
         -6    2    1    2    0  502  0.50893977164E+02 -0.68626833207E+02 -0.87218269677E+03  0.89244196032E+03  0.16867174291E+03 0.  0.
        -24    2    5    5    0    0  0.79514509097E+02 -0.38806043467E+02 -0.37423976216E+03  0.39276439381E+03  0.79874922838E+02 0.  0.
          5    1    3    3  501    0 -0.11767983965E+02 -0.43159326710E+02 -0.15409187801E+03  0.16052292608E+03  0.47000000000E+01 0. -1.
        -13    1    4    4    0    0  0.22063750875E+02  0.24534264644E+02 -0.12142713917E+03  0.12583039924E+03  0.00000000000E+00 0.  1.
         14    1    4    4    0    0 -0.61189744073E+02  0.87251895274E+02 -0.21972425588E+03  0.24420447709E+03  0.00000000000E+00 0. -1.
         -5    1    5    5    0  502 -0.28620531933E+02 -0.29820789741E+02 -0.49794293461E+03  0.49967756651E+03  0.47000000000E+01 0.  1.
         11    1    6    6    0    0  0.39273328174E+01 -0.20846105992E+02 -0.17028776433E+02  0.27202266539E+02  0.00000000000E+00 0. -1.
        -12    1    6    6    0    0  0.75587176280E+02 -0.17959937475E+02 -0.35721098573E+03  0.36556212727E+03  0.00000000000E+00 0.  1.
</event>
<event>
12    1  0.9028446E-003  0.1864627E+03  0.7818608E-02  0.1162560E+00
         21   -1    0    0  501  502  0.00000000000E+00  0.00000000000E+00  0.16019868912E+03  0.16019868912E+03  0.00000000000E+00 0.  1.
         21   -1    0    0  502  503 -0.00000000000E+00 -0.00000000000E+00 -0.21418844591E+03  0.21418844591E+03  0.00000000000E+00 0.  1.
          6    2    1    2  501    0  0.53120114039E+02  0.31088281187E+02 -0.42751782545E+02  0.19130090540E+03  0.17601162960E+03 0.  0.
         24    2    3    3    0    0  0.16574718707E+02  0.12637323922E+02 -0.94166473588E+02  0.12541035829E+03  0.80162397428E+02 0.  0.
         -6    2    1    2    0  503 -0.53120114039E+02 -0.31088281187E+02 -0.11237974239E+02  0.18308622963E+03  0.17206408013E+03 0.  0.
        -24    2    5    5    0    0 -0.73384056955E+01 -0.76746300368E+02 -0.26096907261E+02  0.11657685115E+03  0.83458174184E+02 0.  0.
          5    1    3    3  501    0  0.36545395332E+02  0.18450957265E+02  0.51414691043E+02  0.65890547114E+02  0.47000000000E+01 0. -1.
        -13    1    4    4    0    0  0.38484060049E+02 -0.16973457747E+02 -0.30860719594E+02  0.52168047305E+02  0.00000000000E+00 0.  1.
         14    1    4    4    0    0 -0.21909341342E+02  0.29610781669E+02 -0.63305753994E+02  0.73242310981E+02  0.00000000000E+00 0. -1.
         -5    1    5    5    0  503 -0.45781708343E+02  0.45658019181E+02  0.14858933022E+02  0.66509378474E+02  0.47000000000E+01 0.  1.
         11    1    6    6    0    0 -0.12012439483E+02  0.11851109137E+02 -0.22047327812E+02  0.27763864173E+02  0.00000000000E+00 0. -1.
        -12    1    6    6    0    0  0.46740337878E+01 -0.88597409506E+02 -0.40495794487E+01  0.88812986982E+02  0.00000000000E+00 0.  1.
</event>
<event>
12    1  0.9028446E-003  0.2291706E+03  0.7818608E-02  0.1127802E+00
         21   -1    0    0  501  502  0.00000000000E+00  0.00000000000E+00  0.24831272226E+03  0.24831272226E+03  0.00000000000E+00 0. -1.
         21   -1    0    0  502  503 -0.00000000000E+00 -0.00000000000E+00 -0.20853304435E+03  0.20853304435E+03  0.00000000000E+00 0. -1.
          6    2    1    2  501    0  0.14525480745E+03  0.41165205286E+02  0.18620433758E+02  0.22992584577E+03  0.17241125481E+03 0.  0.
         24    2    3    3    0    0  0.13791355729E+03  0.67320179213E+02  0.57836119125E+02  0.18198904786E+03  0.78884986225E+02 0.  0.
         -6    2    1    2    0  503 -0.14525480745E+03 -0.41165205286E+02  0.21159244150E+02  0.22691992084E+03  0.16808153869E+03 0.  0.
        -24    2    5    5    0    0 -0.82363224893E+02  0.33264717429E+02  0.43366265857E+02  0.12686790255E+03  0.79527287406E+02 0.  0.
          5    1    3    3  501    0  0.73412501587E+01 -0.26154973926E+02 -0.39215685367E+02  0.47936797909E+02  0.47000000000E+01 0. -1.
        -13    1    4    4    0    0  0.52966139794E+02 -0.13909777603E+02  0.23043799243E+02  0.59413050428E+02  0.00000000000E+00 0.  1.
         14    1    4    4    0    0  0.84947417500E+02  0.81229956816E+02  0.34792319881E+02  0.12257599743E+03  0.00000000000E+00 0. -1.
         -5    1    5    5    0  503 -0.62891582559E+02 -0.74429922715E+02 -0.22207021707E+02  0.10005201830E+03  0.47000000000E+01 0.  1.
         13    1    6    6    0    0 -0.48184122384E+02 -0.12651816361E+02  0.48334254542E+02  0.69411658021E+02  0.00000000000E+00 0. -1.
        -14    1    6    6    0    0 -0.34179102509E+02  0.45916533789E+02 -0.49679886853E+01  0.57456244527E+02  0.00000000000E+00 0.  1.
</event>
<event>
12    1  0.9028446E-003  0.2725137E+03  0.7818608E-02  0.1100014E+00
         21   -1    0    0  501  502  0.00000000000E+00  0.00000000000E+00  0.22693871487E+04  0.22693871487E+04  0.00000000000E+00 0. -1.
         21   -1    0    0  502  503 -0.00000000000E+00 -0.00000000000E+00 -0.37906673285E+02  0.37906673285E+02  0.00000000000E+00 0. -1.
          6    2    1    2  501    0  0.18704156356E+03 -0.99254222465E+02  0.68145114805E+03  0.73349122780E+03  0.16969904804E+03 0.  0.
         24    2    3    3    0    0  0.11493658560E+03 -0.59699716453E+02  0.23782038628E+03  0.28227727680E+03  0.79670885598E+02 0.  0.
         -6    2    1    2    0  503 -0.18704156356E+03  0.99254222465E+02  0.15500293274E+04  0.15738025942E+04  0.17154516194E+03 0.  0.
        -24    2    5    5    0    0 -0.18640920348E+03  0.12358437355E+03  0.14897412369E+04  0.15086174733E+04  0.81094015377E+02 0.  0.
          5    1    3    3  501    0  0.72104977963E+02 -0.39554506012E+02  0.44363076177E+03  0.45121395100E+03  0.47000000000E+01 0. -1.
        -11    1    4    4    0    0  0.46963290926E+02 -0.96781499843E+01  0.16157966638E+03  0.16854437359E+03  0.00000000000E+00 0.  1.
         12    1    4    4    0    0  0.67973294674E+02 -0.50021566469E+02  0.76240719898E+02  0.11373290320E+03  0.00000000000E+00 0. -1.
         -5    1    5    5    0  503 -0.63236008373E+00 -0.24330151089E+02  0.60288090487E+02  0.65185120893E+02  0.47000000000E+01 0.  1.
         11    1    6    6    0    0 -0.13587513996E+03  0.75284256405E+02  0.12247264112E+04  0.12345381951E+04  0.00000000000E+00 0. -1.
        -12    1    6    6    0    0 -0.50534063523E+02  0.48300117149E+02  0.26501482572E+03  0.27407927821E+03  0.00000000000E+00 0.  1.
</event>
<event>
12    1  0.9028446E-003  0.1838984E+03  0.7818608E-02  0.1164755E+00
         21   -1    0    0  503  502  0.00000000000E+00  0.00000000000E+00  0.30040754822E+02  0.30040754822E+02  0.00000000000E+00 0.  1.
         21   -1    0    0  501  503 -0.00000000000E+00 -0.00000000000E+00 -0.14376436296E+04  0.14376436296E+04  0.00000000000E+00 0.  1.
          6    2    1    2  501    0 -0.53130099346E+02  0.27001640696E+02 -0.10591579268E+04  0.10750042541E+04  0.17397337829E+03 0.  0.
         24    2    3    3    0    0 -0.74060378625E+02  0.36778278792E+01 -0.10143978297E+04  0.10201623620E+04  0.78929220503E+02 0.  0.
         -6    2    1    2    0  502  0.53130099346E+02 -0.27001640696E+02 -0.34844494799E+03  0.39268013035E+03  0.17097341001E+03 0.  0.
        -24    2    5    5    0    0  0.30453072745E+02 -0.25123713409E+02 -0.35701746036E+03  0.36791418367E+03  0.79629070877E+02 0.  0.
          5    1    3    3  501    0  0.20930279279E+02  0.23323812817E+02 -0.44760097083E+02  0.54841892071E+02  0.47000000000E+01 0. -1.
        -11    1    4    4    0    0  0.40198054819E+01 -0.23106749190E+02 -0.14874480583E+03  0.15058252872E+03  0.00000000000E+00 0.  1.
         12    1    4    4    0    0 -0.78080184107E+02  0.26784577070E+02 -0.86565302390E+03  0.86957983331E+03  0.00000000000E+00 0. -1.
         -5    1    5    5    0  502  0.22677026601E+02 -0.18779272871E+01  0.85725123680E+01  0.24765946674E+02  0.47000000000E+01 0.  1.
         11    1    6    6    0    0 -0.26077378285E+02  0.16997916066E+01 -0.11596741431E+03  0.11887539751E+03  0.00000000000E+00 0. -1.
        -12    1    6    6    0    0  0.56530451030E+02 -0.26823505016E+02 -0.24105004605E+03  0.24903878617E+03  0.00000000000E+00 0.  1.
</event>
<event>
12    1  0.9028446E-003  0.2400044E+03  0.7818608E-02  0.1120175E+00
         21   -1    0    0  501  502  0.00000000000E+00  0.00000000000E+00  0.16153364676E+04  0.16153364676E+04  0.00000000000E+00 0. -1.
         21   -1    0    0  502  503 -0.00000000000E+00 -0.00000000000E+00 -0.41181313226E+02  0.41181313226E+02  0.00000000000E+00 0. -1.
          6    2    1    2  501    0 -0.53838164449E+01  0.16674485276E+03  0.11028504474E+04  0.11286634646E+04  0.17253775104E+03 0.  0.
         24    2    3    3    0    0  0.38720388022E+02  0.14885457388E+03  0.63010136870E+03  0.65350136135E+03  0.79870782104E+02 0.  0.
         -6    2    1    2    0  503  0.53838164449E+01 -0.16674485276E+03  0.47130470697E+03  0.52785431625E+03  0.16931987765E+03 0.  0.
        -24    2    5    5    0    0  0.56729433704E+02 -0.73562384901E+02  0.16570411737E+03  0.20422929390E+03  0.74980643175E+02 0.  0.
          5    1    3    3  501    0 -0.44104204467E+02  0.17890278882E+02  0.47274907868E+03  0.47516210320E+03  0.47000000000E+01 0. -1.
        -13    1    4    4    0    0  0.49345782600E+02  0.44443369941E+02  0.29342985590E+03  0.30085095932E+03  0.00000000000E+00 0.  1.
         14    1    4    4    0    0 -0.10625394578E+02  0.10441120394E+03  0.33667151280E+03  0.35265040203E+03  0.00000000000E+00 0. -1.
         -5    1    5    5    0  503 -0.51345617259E+02 -0.93182467862E+02  0.30560058960E+03  0.32362502235E+03  0.47000000000E+01 0.  1.
         11    1    6    6    0    0 -0.26789638203E+01 -0.25168543995E+02  0.44542997979E+01  0.25699673941E+02  0.00000000000E+00 0. -1.
        -12    1    6    6    0    0  0.59408397525E+02 -0.48393840906E+02  0.16124981757E+03  0.17852961996E+03  0.00000000000E+00 0.  1.
</event>
<event>
12    1  0.9028446E-003  0.2206104E+03  0.7818608E-02  0.1134427E+00
         21   -1    0    0  503  502  0.00000000000E+00  0.00000000000E+00  0.44220464452E+03  0.44220464452E+03  0.00000000000E+00 0.  1.
         21   -1    0    0  501  503 -0.00000000000E+00 -0.00000000000E+00 -0.12790825124E+03  0.12790825124E+03  0.00000000000E+00 0. -1.
          6    2    1    2  501    0 -0.64968036609E+02 -0.12099146610E+03  0.41489550488E+02  0.21926743087E+03  0.16582232295E+03 0.  0.
         24    2    3    3    0    0  0.18742647169E+02 -0.95553670608E+02  0.16687663179E+02  0.12820819941E+03  0.81713361853E+02 0.  0.
         -6    2    1    2    0  502  0.64968036609E+02  0.12099146610E+03  0.27280684279E+03  0.35084546490E+03  0.17265336984E+03 0.  0.
        -24    2    5    5    0    0  0.11736173174E+02  0.23967176916E+02  0.20915926765E+03  0.22309395690E+03  0.72877644228E+02 0.  0.
          5    1    3    3  501    0 -0.83710683778E+02 -0.25437795495E+02  0.24801887310E+02  0.91059231450E+02  0.47000000000E+01 0. -1.
        -11    1    4    4    0    0 -0.74618014805E+01 -0.34200421161E+02  0.43907891818E+02  0.56153808890E+02  0.00000000000E+00 0.  1.
         12    1    4    4    0    0  0.26204448650E+02 -0.61353249447E+02 -0.27220228640E+02  0.72054390525E+02  0.00000000000E+00 0. -1.
         -5    1    5    5    0  502  0.53231863435E+02  0.97024289186E+02  0.63647575137E+02  0.12775150801E+03  0.47000000000E+01 0.  1.
         11    1    6    6    0    0  0.22894945229E+02 -0.25386005830E+01  0.16586189024E+02  0.28385289787E+02  0.00000000000E+00 0. -1.
        -12    1    6    6    0    0 -0.11158772055E+02  0.26505777499E+02  0.19257307863E+03  0.19470866711E+03  0.00000000000E+00 0.  1.
</event>
<event>
12    1  0.9028446E-003  0.2179213E+03  0.7818608E-02  0.1137910E+00
         21   -1    0    0  503  502  0.00000000000E+00  0.00000000000E+00  0.24399851126E+03  0.24399851126E+03  0.00000000000E+00 0.  1.
         21   -1    0    0  501  503 -0.00000000000E+00 -0.00000000000E+00 -0.19539249066E+03  0.19539249066E+03  0.00000000000E+00 0. -1.
          6    2    1    2  501    0 -0.86124670060E+02 -0.68605826751E+02  0.77837199011E+02  0.21951795652E+03  0.17322033780E+03 0.  0.
         24    2    3    3    0    0 -0.29340311127E+02  0.39575773401E+02  0.37315579098E+01  0.76544329325E+02  0.58463784774E+02 0.  0.
         -6    2    1    2    0  502  0.86124670060E+02  0.68605826751E+02 -0.29231178410E+02  0.21987304540E+03  0.18805710846E+03 0.  0.
        -24    2    5    5    0    0  0.89504041512E+00  0.19342696061E+02 -0.73093178436E+02  0.11199853098E+03  0.82620319649E+02 0.  0.
          5    1    3    3  501    0 -0.56784358934E+02 -0.10818160015E+03  0.74105641101E+02  0.14297362720E+03  0.47000000000E+01 0. -1.
        -13    1    4    4    0    0  0.46542717658E+01  0.34776534353E+02  0.17918062951E+02  0.39397037543E+02  0.00000000000E+00 0.  1.
         14    1    4    4    0    0 -0.33994582892E+02  0.47992390481E+01 -0.14186505041E+02  0.37147291782E+02  0.00000000000E+00 0. -1.
         -5    1    5    5    0  502  0.85229629645E+02  0.49263130690E+02  0.43862000026E+02  0.10787451442E+03  0.47000000000E+01 0.  1.
         11    1    6    6    0    0  0.80153771275E+01 -0.56654977735E+01 -0.83438599578E+02  0.84013951431E+02  0.00000000000E+00 0. -1.
        -12    1    6    6    0    0 -0.71203367123E+01  0.25008193835E+02  0.10345421142E+02  0.27984579546E+02  0.00000000000E+00 0.  1.
</event>
<event>
12    1  0.9028446E-003  0.1990911E+03  0.7818608E-02  0.1150527E+00
         21   -1    0    0  503  502  0.00000000000E+00  0.00000000000E+00  0.90156404339E+02  0.90156404339E+02  0.00000000000E+00 0.  1.
         21   -1    0    0  501  503 -0.00000000000E+00 -0.00000000000E+00 -0.43990106082E+03  0.43990106082E+03  0.00000000000E+00 0.  1.
          6    2    1    2  501    0  0.88315262972E+02  0.48028805538E+02 -0.18327189690E+03  0.27053783989E+03  0.17174336314E+03 0.  0.
         24    2    3    3    0    0  0.69598141329E+02 -0.35100761915E+02 -0.91119889138E+02  0.14493951919E+03  0.81416615401E+02 0.  0.
         -6    2    1    2    0  502 -0.88315262972E+02 -0.48028805538E+02 -0.16647275958E+03  0.25951962527E+03  0.17184558296E+03 0.  0.
        -24    2    5    5    0    0 -0.44583219095E+01  0.20329804129E+02 -0.10790817606E+03  0.13640672374E+03  0.80804964270E+02 0.  0.
          5    1    3    3  501    0  0.18717121643E+02  0.83129567453E+02 -0.92152007759E+02  0.12559832070E+03  0.47000000000E+01 0. -1.
        -13    1    4    4    0    0  0.56577200368E+02 -0.41180742070E+02 -0.10419384867E+03  0.12551171746E+03  0.00000000000E+00 0.  1.
         14    1    4    4    0    0  0.13020940961E+02  0.60799801546E+01  0.13073959534E+02  0.19427801731E+02  0.00000000000E+00 0. -1.
         -5    1    5    5    0  502 -0.83856941062E+02 -0.68358609667E+02 -0.58564583524E+02  0.12311290153E+03  0.47000000000E+01 0.  1.
         13    1    6    6    0    0  0.22081379212E+02 -0.55733995874E+01 -0.50321447954E+00  0.22779449416E+02  0.00000000000E+00 0. -1.
        -14    1    6    6    0    0 -0.26539701122E+02  0.25903203717E+02 -0.10740496158E+03  0.11362727432E+03  0.00000000000E+00 0.  1.
</event>
<event>
12    1  0.9028446E-003  0.2184587E+03  0.7818608E-02  0.1135114E+00
         21   -1    0    0  501  502  0.00000000000E+00  0.00000000000E+00  0.16845849643E+03  0.16845849643E+03  0.00000000000E+00 0.  1.
         21   -1    0    0  502  503 -0.00000000000E+00 -0.00000000000E+00 -0.31136588031E+03  0.31136588031E+03  0.00000000000E+00 0. -1.
          6    2    1    2  501    0 -0.44749784657E+02  0.12578481475E+03  0.13098323770E+01  0.21805579526E+03  0.17240142499E+03 0.  0.
         24    2    3    3    0    0 -0.19762987774E+02  0.18866673031E+02 -0.14100300765E+02  0.10708106277E+03  0.10257196735E+03 0.  0.
         -6    2    1    2    0  503  0.44749784657E+02 -0.12578481475E+03 -0.14421721626E+03  0.26176858148E+03  0.17291564978E+03 0.  0.
        -24    2    5    5    0    0  0.83460020599E+02 -0.87195319246E+02 -0.14835954299E+03  0.20675148959E+03  0.78530412667E+02 0.  0.
          5    1    3    3  501    0 -0.24986796883E+02  0.10691814172E+03  0.15410133142E+02  0.11097473249E+03  0.47000000000E+01 0. -1.
        -13    1    4    4    0    0  0.14419236799E+02 -0.37323230502E+02 -0.96585339839E+01  0.41160966992E+02  0.00000000000E+00 0.  1.
         14    1    4    4    0    0 -0.34182224573E+02  0.56189903534E+02 -0.44417667810E+01  0.65920095783E+02  0.00000000000E+00 0. -1.
         -5    1    5    5    0  503 -0.38710235942E+02 -0.38589495507E+02  0.41423267302E+01  0.55017091898E+02  0.47000000000E+01 0.  1.
         13    1    6    6    0    0  0.48798028667E+02 -0.47235525471E+02 -0.13661493115E+03  0.15256500870E+03  0.00000000000E+00 0. -1.
        -14    1    6    6    0    0  0.34661991932E+02 -0.39959793775E+02 -0.11744611842E+02  0.54186480884E+02  0.00000000000E+00 0.  1.
</event>
<event>
12    1  0.9028446E-003  0.2804195E+03  0.7818608E-02  0.1095527E+00
         21   -1    0    0  503  502  0.00000000000E+00  0.00000000000E+00  0.37475870149E+03  0.37475870149E+03  0.00000000000E+00 0.  1.
         21   -1    0    0  501  503 -0.00000000000E+00 -0.00000000000E+00 -0.21121476050E+03  0.21121476050E+03  0.00000000000E+00 0.  1.
          6    2    1    2  501    0 -0.22005710229E+03 -0.20504212484E+02  0.10853769955E+03  0.30069172441E+03  0.17259643655E+03 0.  0.
         24    2    3    3    0    0 -0.23950994633E+03 -0.10058603522E+01  0.96712997292E+02  0.27035177615E+03  0.79816369745E+02 0.  0.
         -6    2    1    2    0  502  0.22005710229E+03  0.20504212484E+02  0.55006241445E+02  0.28528173757E+03  0.17179764898E+03 0.  0.
        -24    2    5    5    0    0  0.17285676355E+03  0.25543771497E+02  0.10251637020E+03  0.21795736259E+03  0.80398139168E+02 0.  0.
          5    1    3    3  501    0  0.19452844036E+02 -0.19498352132E+02  0.11824702259E+02  0.30339948261E+02  0.47000000000E+01 0. -1.
        -13    1    4    4    0    0 -0.20608301282E+03  0.23022281190E+02  0.61812031389E+02  0.21638151684E+03  0.00000000000E+00 0.  1.
         14    1    4    4    0    0 -0.33426933506E+02 -0.24028141542E+02  0.34900965903E+02  0.53970259315E+02  0.00000000000E+00 0. -1.
         -5    1    5    5    0  502  0.47200338745E+02 -0.50395590134E+01 -0.47510128755E+02  0.67324374984E+02  0.47000000000E+01 0.  1.
         11    1    6    6    0    0  0.93025373985E+01 -0.61497096840E+01 -0.11548111960E+02  0.16053504947E+02  0.00000000000E+00 0. -1.
        -12    1    6    6    0    0  0.16355422615E+03  0.31693481181E+02  0.11406448216E+03  0.20190385764E+03  0.00000000000E+00 0.  1.
</event>
<event>
12    1  0.9028446E-003  0.1792206E+03  0.7818608E-02  0.1169007E+00
         21   -1    0    0  501  502  0.00000000000E+00  0.00000000000E+00  0.28260463872E+02  0.28260463872E+02  0.00000000000E+00 0. -1.
         21   -1    0    0  502  503 -0.00000000000E+00 -0.00000000000E+00 -0.11252377746E+04  0.11252377746E+04  0.00000000000E+00 0. -1.
          6    2    1    2  501    0  0.84329579060E+01 -0.47770015980E+02 -0.53744315724E+03  0.56596228066E+03  0.17063137655E+03 0.  0.
         24    2    3    3    0    0 -0.41584862406E+02  0.20433284680E+02 -0.28106138863E+03  0.29594899609E+03  0.80271316197E+02 0.  0.
         -6    2    1    2    0  503 -0.84329579060E+01  0.47770015980E+02 -0.55953415347E+03  0.58753595779E+03  0.17253099314E+03 0.  0.
        -24    2    5    5    0    0 -0.11337415969E+02  0.79160344570E+02 -0.23245751852E+03  0.25891002495E+03  0.81258882286E+02 0.  0.
          5    1    3    3  501    0  0.50017820312E+02 -0.68203300660E+02 -0.25638176861E+03  0.27001328457E+03  0.47000000000E+01 0. -1.
        -11    1    4    4    0    0 -0.36511422841E+02  0.14231769967E+01 -0.27172504354E+03  0.27417076561E+03  0.00000000000E+00 0.  1.
         12    1    4    4    0    0 -0.50734395648E+01  0.19010107683E+02 -0.93363450954E+01  0.21778230481E+02  0.00000000000E+00 0. -1.
         -5    1    5    5    0  503  0.29044580630E+01 -0.31390328590E+02 -0.32707663495E+03  0.32862593284E+03  0.47000000000E+01 0.  1.
         11    1    6    6    0    0 -0.12123556402E+02  0.79336102888E+02 -0.23910444733E+03  0.25221446147E+03  0.00000000000E+00 0. -1.
        -12    1    6    6    0    0  0.78614043282E+00 -0.17575831789E+00  0.66469288087E+01  0.66955634830E+01  0.00000000000E+00 0.  1.
</event>
<event>
12    1  0.9028446E-003  0.2380484E+03  0.7818608E-02  0.1121157E+00
         21   -1    0    0  503  502  0.00000000000E+00  0.00000000000E+00  0.20002348286E+03  0.20002348286E+03  0.00000000000E+00 0.  1.
         21   -1    0    0  501  503 -0.00000000000E+00 -0.00000000000E+00 -0.40218280401E+03  0.40218280401E+03  0.00000000000E+00 0. -1.
          6    2    1    2  501    0  0.16454795456E+02  0.16390995445E+03  0.62953832002E+02  0.24590301025E+03  0.17137056930E+03 0.  0.
         24    2    3    3    0    0  0.38688665670E+02  0.13233341285E+03 -0.14482288964E+02  0.15924352840E+03  0.78357001186E+02 0.  0.
         -6    2    1    2    0  502 -0.16454795456E+02 -0.16390995445E+03 -0.26511315315E+03  0.35630327662E+03  0.17184239144E+03 0.  0.
        -24    2    5    5    0    0  0.92419923141E+01 -0.13427802234E+02 -0.11800591185E+03  0.14424707303E+03  0.81339428030E+02 0.  0.
          5    1    3    3  501    0 -0.22233870214E+02  0.31576541597E+02  0.77436120966E+02  0.86659481848E+02  0.47000000000E+01 0. -1.
        -13    1    4    4    0    0 -0.22170266966E+01  0.87841342101E+02  0.19357516025E+02  0.89976274740E+02  0.00000000000E+00 0.  1.
         14    1    4    4    0    0  0.40905692367E+02  0.44492070752E+02 -0.33839804989E+02  0.69267253660E+02  0.00000000000E+00 0. -1.
         -5    1    5    5    0  502 -0.25696787770E+02 -0.15048215222E+03 -0.14710724131E+03  0.21205620359E+03  0.47000000000E+01 0.  1.
         11    1    6    6    0    0  0.41863631304E+00  0.12558661293E+02 -0.11605608152E+03  0.11673435350E+03  0.00000000000E+00 0. -1.
        -12    1    6    6    0    0  0.88233560011E+01 -0.25986463527E+02 -0.19498303315E+01  0.27512719532E+02  0.00000000000E+00 0.  1.
</event>
<event>
12    1  0.9028446E-003  0.2024424E+03  0.7818608E-02  0.1148595E+00
         21   -1    0    0  503  502  0.00000000000E+00  0.00000000000E+00  0.50080691087E+02  0.50080691087E+02  0.00000000000E+00 0. -1.
         21   -1    0    0  501  503 -0.00000000000E+00 -0.00000000000E+00 -0.86539704527E+03  0.86539704527E+03  0.00000000000E+00 0. -1.
          6    2    1    2  501    0  0.10177319626E+03  0.23046089166E+02 -0.53645783938E+03  0.57338463952E+03  0.17347629722E+03 0.  0.
         24    2    3    3    0    0  0.28271357439E+02  0.56007204735E+02 -0.41816914742E+03  0.43019504459E+03  0.79159736618E+02 0.  0.
         -6    2    1    2    0  502 -0.10177319626E+03 -0.23046089166E+02 -0.27885851480E+03  0.34209309684E+03  0.16845388071E+03 0.  0.
        -24    2    5    5    0    0 -0.11552978485E+03 -0.63896678033E+02 -0.20023300497E+03  0.25230403773E+03  0.78320843471E+02 0.  0.
          5    1    3    3  501    0  0.73501838819E+02 -0.32961115569E+02 -0.11828869197E+03  0.14318959493E+03  0.47000000000E+01 0. -1.
        -13    1    4    4    0    0  0.19100443763E+01 -0.12335367622E+02 -0.19316138103E+03  0.19356427533E+03  0.00000000000E+00 0.  1.
         14    1    4    4    0    0  0.26361313063E+02  0.68342572357E+02 -0.22500776639E+03  0.23663076925E+03  0.00000000000E+00 0. -1.
         -5    1    5    5    0  502  0.13756588594E+02  0.40850588867E+02 -0.78625509834E+02  0.89789059118E+02  0.47000000000E+01 0.  1.
         13    1    6    6    0    0  0.12757194426E+01 -0.20215113422E+02 -0.53731465924E+01  0.20955881634E+02  0.00000000000E+00 0. -1.
        -14    1    6    6    0    0 -0.11680550429E+03 -0.43681564612E+02 -0.19485985838E+03  0.23134815609E+03  0.00000000000E+00 0.  1.
</event>
<event>
12    1  0.9028446E-003  0.2492404E+03  0.7818608E-02  0.1113892E+00
         21   -1    0    0  503  502  0.00000000000E+00  0.00000000000E+00  0.39504701538E+03  0.39504701538E+03  0.00000000000E+00 0. -1.
         21   -1    0    0  501  503 -0.00000000000E+00 -0.00000000000E+00 -0.24197386271E+03  0.24197386271E+03  0.00000000000E+00 0.  1.
          6    2    1    2  501    0  0.17835742678E+03 -0.10156501575E+02  0.26554259641E+03  0.36418900711E+03  0.17379941364E+03 0.  0.
         24    2    3    3    0    0  0.12004315638E+03  0.38815083423E+02  0.24396451424E+03  0.28490171998E+03  0.75718793897E+02 0.  0.
         -6    2    1    2    0  502 -0.17835742678E+03  0.10156501575E+02 -0.11246944374E+03  0.27283187098E+03  0.17283902289E+03 0.  0.
        -24    2    5    5    0    0 -0.19189159854E+03 -0.21847844384E+02 -0.11155531465E+03  0.23775513228E+03  0.82360189436E+02 0.  0.
          5    1    3    3  501    0  0.58314270399E+02 -0.48971584998E+02  0.21578082175E+02  0.79287287126E+02  0.47000000000E+01 0. -1.
        -13    1    4    4    0    0  0.37016491847E+02 -0.22071508012E+02  0.88487307111E+02  0.98424466747E+02  0.00000000000E+00 0.  1.
         14    1    4    4    0    0  0.83026664529E+02  0.60886591435E+02  0.15547720713E+03  0.18647725324E+03  0.00000000000E+00 0. -1.
         -5    1    5    5    0  502  0.13534171767E+02  0.32004345959E+02 -0.91412909704E+00  0.35076738698E+02  0.47000000000E+01 0.  1.
         13    1    6    6    0    0 -0.13889234083E+02  0.25964985049E+01  0.12944570665E+02  0.19162842628E+02  0.00000000000E+00 0. -1.
        -14    1    6    6    0    0 -0.17800236446E+03 -0.24444342889E+02 -0.12449988531E+03  0.21859228965E+03  0.00000000000E+00 0.  1.
</event>
<event>
12    1  0.9028446E-003  0.2148851E+03  0.7818608E-02  0.1138170E+00
         21   -1    0    0  503  502  0.00000000000E+00  0.00000000000E+00  0.37385024361E+03  0.37385024361E+03  0.00000000000E+00 0.  1.
         21   -1    0    0  501  503 -0.00000000000E+00 -0.00000000000E+00 -0.12997528604E+03  0.12997528604E+03  0.00000000000E+00 0.  1.
          6    2    1    2  501    0  0.19922767560E+02  0.12817798275E+03  0.61222807908E+02  0.22343641590E+03  0.17131575471E+03 0.  0.
         24    2    3    3    0    0 -0.16007239415E+01  0.14151843854E+03  0.56864825125E+01  0.16221875598E+03  0.79073117707E+02 0.  0.
         -6    2    1    2    0  502 -0.19922767560E+02 -0.12817798275E+03  0.18265214966E+03  0.28038911376E+03  0.16861119598E+03 0.  0.
        -24    2    5    5    0    0  0.22053697955E+02 -0.99788285479E+02  0.51629848325E+02  0.13982975969E+03  0.80266138222E+02 0.  0.
          5    1    3    3  501    0  0.21523491502E+02 -0.13340455792E+02  0.55536325395E+02  0.61217659916E+02  0.47000000000E+01 0. -1.
        -13    1    4    4    0    0  0.12320596951E+02  0.12470993860E+03  0.30699598076E+02  0.12902259964E+03  0.00000000000E+00 0.  1.
         14    1    4    4    0    0 -0.13921320893E+02  0.16808499938E+02 -0.25013115564E+02  0.33196156340E+02  0.00000000000E+00 0. -1.
         -5    1    5    5    0  502 -0.41976465515E+02 -0.28389697270E+02  0.13102230134E+03  0.14055935407E+03  0.47000000000E+01 0.  1.
         13    1    6    6    0    0  0.29372664234E+02 -0.90560211438E+02  0.69887714356E+02  0.11810248904E+03  0.00000000000E+00 0. -1.
        -14    1    6    6    0    0 -0.73189662795E+01 -0.92280740415E+01 -0.18257866031E+02  0.21727270651E+02  0.00000000000E+00 0.  1.
</event>
<event>
12    1  0.9028446E-003  0.1724339E+03  0.7818608E-02  0.1175418E+00
         21   -1    0    0  503  502  0.00000000000E+00  0.00000000000E+00  0.69788530052E+03  0.69788530052E+03  0.00000000000E+00 0.  1.
         21   -1    0    0  501  503 -0.00000000000E+00 -0.00000000000E+00 -0.44911604714E+02  0.44911604714E+02  0.00000000000E+00 0.  1.
          6    2    1    2  501    0 -0.13041167247E+02 -0.33319507878E+01  0.24055359951E+03  0.29578035005E+03  0.17157740906E+03 0.  0.
         24    2    3    3    0    0  0.27467368317E+02 -0.50017504981E+02  0.19539712901E+03  0.21908824321E+03  0.81014894689E+02 0.  0.
         -6    2    1    2    0  502  0.13041167247E+02  0.33319507878E+01  0.41242009629E+03  0.44701655518E+03  0.17190779749E+03 0.  0.
        -24    2    5    5    0    0  0.18438737401E+01 -0.54671643450E+02  0.33505469657E+03  0.34956250754E+03  0.83306113321E+02 0.  0.
          5    1    3    3  501    0 -0.40508535564E+02  0.46685554194E+02  0.45156470501E+02  0.76692106843E+02  0.47000000000E+01 0. -1.
        -13    1    4    4    0    0 -0.14871216619E+02 -0.24511116307E+01  0.11755522005E+03  0.11851747042E+03  0.00000000000E+00 0.  1.
         14    1    4    4    0    0  0.42338584936E+02 -0.47566393351E+02  0.77841908955E+02  0.10057077279E+03  0.00000000000E+00 0. -1.
         -5    1    5    5    0  502  0.11197293507E+02  0.58003594238E+02  0.77365399718E+02  0.97454047633E+02  0.47000000000E+01 0.  1.
         13    1    6    6    0    0  0.36503927822E+02 -0.13474025177E+02  0.20740774766E+03  0.21102620664E+03  0.00000000000E+00 0. -1.
        -14    1    6    6    0    0 -0.34660054082E+02 -0.41197618273E+02  0.12764694891E+03  0.13853630090E+03  0.00000000000E+00 0.  1.
</event>
<event>
12    1  0.9028446E-003  0.1768554E+03  0.7818608E-02  0.1171016E+00
         21   -1    0    0  503  502  0.00000000000E+00  0.00000000000E+00  0.71154514666E+03  0.71154514666E+03  0.00000000000E+00 0. -1.
         21   -1    0    0  501  503 -0.00000000000E+00 -0.00000000000E+00 -0.44534299135E+02  0.44534299135E+02  0.00000000000E+00 0. -1.
          6    2    1    2  501    0 -0.38120259032E+02  0.50541667045E+01  0.28622782379E+03  0.33645830840E+03  0.17262423767E+03 0.  0.
         24    2    3    3    0    0  0.31643259213E+02  0.10525369045E+01  0.82612784659E+02  0.12113498017E+03  0.82743021122E+02 0.  0.
         -6    2    1    2    0  502  0.38120259032E+02 -0.50541667045E+01  0.38078302374E+03  0.41962113740E+03  0.17206826853E+03 0.  0.
        -24    2    5    5    0    0  0.74209679881E+02 -0.15950966873E+02  0.35963507104E+03  0.37614111377E+03  0.79895201458E+02 0.  0.
          5    1    3    3  501    0 -0.69763518245E+02  0.40016298000E+01  0.20361503913E+03  0.21532332823E+03  0.47000000000E+01 0. -1.
        -13    1    4    4    0    0  0.32823398163E+02 -0.35317628922E+02  0.28763124187E+02  0.56142922017E+02  0.00000000000E+00 0.  1.
         14    1    4    4    0    0 -0.11801389496E+01  0.36370165826E+02  0.53849660472E+02  0.64992058154E+02  0.00000000000E+00 0. -1.
         -5    1    5    5    0  502 -0.36089420849E+02  0.10896800169E+02  0.21147952696E+02  0.43480023625E+02  0.47000000000E+01 0.  1.
         11    1    6    6    0    0 -0.30110171803E+01  0.21397620920E+02  0.43442462819E+02  0.48519810194E+02  0.00000000000E+00 0. -1.
        -12    1    6    6    0    0  0.77220697062E+02 -0.37348587793E+02  0.31619260822E+03  0.32762130358E+03  0.00000000000E+00 0.  1.
</event>
<event>
12    1  0.9028446E-003  0.2272683E+03  0.7818608E-02  0.1129792E+00
         21   -1    0    0  501  502  0.00000000000E+00  0.00000000000E+00  0.17150570201E+03  0.17150570201E+03  0.00000000000E+00 0.  1.
         21   -1    0    0  502  503 -0.00000000000E+00 -0.00000000000E+00 -0.29238958581E+03  0.29238958581E+03  0.00000000000E+00 0.  1.
          6    2    1    2  501    0  0.12349824494E+03 -0.77960556584E+02 -0.63595389713E+02  0.23599846552E+03  0.17412994357E+03 0.  0.
         24    2    3    3    0    0  0.43172811700E+02 -0.10334539024E+03 -0.62600508256E+02  0.15162047790E+03  0.80782326854E+02 0.  0.
         -6    2    1    2    0  503 -0.12349824494E+03  0.77960556584E+02 -0.57288494086E+02  0.22789682229E+03  0.16530373610E+03 0.  0.
        -24    2    5    5    0    0 -0.26957571460E+02  0.76048108969E+02 -0.69260066612E+02  0.13048446352E+03  0.75625477566E+02 0.  0.
          5    1    3    3  501    0  0.80325433244E+02  0.25384833655E+02 -0.99488145747E+00  0.84377987619E+02  0.47000000000E+01 0. -1.
        -13    1    4    4    0    0  0.38874624032E+02 -0.44853095407E+01 -0.18476479463E+02  0.43275104722E+02  0.00000000000E+00 0.  1.
         14    1    4    4    0    0  0.42981876679E+01 -0.98860080699E+02 -0.44124028793E+02  0.10834537318E+03  0.00000000000E+00 0. -1.
         -5    1    5    5    0  503 -0.96540673484E+02  0.19124476157E+01  0.11971572526E+02  0.97412358772E+02  0.47000000000E+01 0.  1.
         11    1    6    6    0    0 -0.36236672928E+02  0.21530258686E+02 -0.61620434622E+02  0.74657393920E+02  0.00000000000E+00 0. -1.
        -12    1    6    6    0    0  0.92791014677E+01  0.54517850282E+02 -0.76396319896E+01  0.55827069603E+02  0.00000000000E+00 0.  1.
</event>
<event>
12    1  0.9028446E-003  0.2123277E+03  0.7818608E-02  0.1139766E+00
         21   -1    0    0  503  502  0.00000000000E+00  0.00000000000E+00  0.67373448133E+02  0.67373448133E+02  0.00000000000E+00 0. -1.
         21   -1    0    0  501  503 -0.00000000000E+00 -0.00000000000E+00 -0.69544881976E+03  0.69544881976E+03  0.00000000000E+00 0.  1.
          6    2    1    2  501    0  0.66994691606E+02 -0.10375465202E+03 -0.38898934139E+03  0.44316559580E+03  0.17271282832E+03 0.  0.
         24    2    3    3    0    0  0.37963785566E+02 -0.49979710070E+02 -0.36320195653E+03  0.37667035457E+03  0.77625217266E+02 0.  0.
         -6    2    1    2    0  502 -0.66994691606E+02  0.10375465202E+03 -0.23908603024E+03  0.31965667210E+03  0.17252519132E+03 0.  0.
        -24    2    5    5    0    0  0.62888676149E+01 -0.57512919959E+01 -0.79352117507E+02  0.11253582644E+03  0.79340572627E+02 0.  0.
          5    1    3    3  501    0  0.29030906040E+02 -0.53774941952E+02 -0.25787384861E+02  0.66495241224E+02  0.47000000000E+01 0. -1.
        -11    1    4    4    0    0  0.45012237289E+02  0.18190166879E+01 -0.12701323985E+03  0.13476562405E+03  0.00000000000E+00 0.  1.
         12    1    4    4    0    0 -0.70484517226E+01 -0.51798726758E+02 -0.23618871667E+03  0.24190473052E+03  0.00000000000E+00 0. -1.
         -5    1    5    5    0  502 -0.73283559221E+02  0.10950594402E+03 -0.15973391273E+03  0.20712084565E+03  0.47000000000E+01 0.  1.
         13    1    6    6    0    0  0.38626950618E+02 -0.56125280243E+01 -0.67730372807E+02  0.78172534725E+02  0.00000000000E+00 0. -1.
        -14    1    6    6    0    0 -0.32338083003E+02 -0.13876397164E+00 -0.11621744701E+02  0.34363291718E+02  0.00000000000E+00 0.  1.
</event>
<event>
12    1  0.9028446E-003  0.2258995E+03  0.7818608E-02  0.1129674E+00
         21   -1    0    0  501  502  0.00000000000E+00  0.00000000000E+00  0.11617436191E+04  0.11617436191E+04  0.00000000000E+00 0. -1.
         21   -1    0    0  502  503 -0.00000000000E+00 -0.00000000000E+00 -0.58401344373E+02  0.58401344373E+02  0.00000000000E+00 0.  1.
          6    2    1    2  501    0  0.65940476504E+02 -0.13017527700E+03  0.85727444248E+03  0.88653824721E+03  0.17244374404E+03 0.  0.
         24    2    3    3    0    0  0.24033608266E+02 -0.12283688827E+03  0.80658468327E+03  0.82019384848E+03  0.80452360728E+02 0.  0.
         -6    2    1    2    0  503 -0.65940476504E+02  0.13017527700E+03  0.24606783230E+03  0.33360671631E+03  0.17161093757E+03 0.  0.
        -24    2    5    5    0    0 -0.48042591201E+01  0.13450989303E+03  0.13505627803E+03  0.20671274028E+03  0.79837124999E+02 0.  0.
          5    1    3    3  501    0  0.41906868239E+02 -0.73383887294E+01  0.50689759206E+02  0.66344398732E+02  0.47000000000E+01 0. -1.
        -11    1    4    4    0    0 -0.18624821745E+02 -0.46972497182E+02  0.16031561988E+03  0.16809044427E+03  0.00000000000E+00 0.  1.
         12    1    4    4    0    0  0.42658430010E+02 -0.75864391087E+02  0.64626906339E+03  0.65210340421E+03  0.00000000000E+00 0. -1.
         -5    1    5    5    0  503 -0.61136217384E+02 -0.43346160367E+01  0.11101155427E+03  0.12689397603E+03  0.47000000000E+01 0.  1.
         11    1    6    6    0    0  0.23438576543E+02  0.10824704177E+02  0.42284563777E+02  0.49543167286E+02  0.00000000000E+00 0. -1.
        -12    1    6    6    0    0 -0.28242835663E+02  0.12368518886E+03  0.92771714249E+02  0.15716957299E+03  0.00000000000E+00 0.  1.
</event>
<event>
12    1  0.9028446E-003  0.2019907E+03  0.7818608E-02  0.1149119E+00
         21   -1    0    0  503  502  0.00000000000E+00  0.00000000000E+00  0.25769988866E+03  0.25769988866E+03  0.00000000000E+00 0. -1.
         21   -1    0    0  501  503 -0.00000000000E+00 -0.00000000000E+00 -0.15502203235E+03  0.15502203235E+03  0.00000000000E+00 0. -1.
          6    2    1    2  501    0  0.93738122812E+02  0.15724427524E+02  0.39478690281E+02  0.20581259504E+03  0.17823064832E+03 0.  0.
         24    2    3    3    0    0  0.22892215068E+02 -0.43685390629E+01  0.75901399169E+02  0.12352302296E+03  0.94624400448E+02 0.  0.
         -6    2    1    2    0  502 -0.93738122812E+02 -0.15724427524E+02  0.63199166032E+02  0.20690932597E+03  0.17257821791E+03 0.  0.
        -24    2    5    5    0    0 -0.10009716041E+03 -0.33375635058E+02 -0.55944410222E+01  0.13544847754E+03  0.84744426131E+02 0.  0.
          5    1    3    3  501    0  0.70845907744E+02  0.20092966587E+02 -0.36422708888E+02  0.82289572080E+02  0.47000000000E+01 0. -1.
        -13    1    4    4    0    0 -0.26562796719E+02  0.27277790080E+02  0.37002703530E+02  0.53092938039E+02  0.00000000000E+00 0.  1.
         14    1    4    4    0    0  0.49455011786E+02 -0.31646329143E+02  0.38898695639E+02  0.70430084917E+02  0.00000000000E+00 0. -1.
         -5    1    5    5    0  502  0.63590376024E+01  0.17651207534E+02  0.68793607054E+02  0.71460848429E+02  0.47000000000E+01 0.  1.
         13    1    6    6    0    0 -0.57092067957E+02 -0.61169422906E+02  0.19200457674E+01  0.83695215503E+02  0.00000000000E+00 0. -1.
        -14    1    6    6    0    0 -0.43005092458E+02  0.27793787849E+02 -0.75144867896E+01  0.51753262042E+02  0.00000000000E+00 0.  1.
</event>
<event>
12    1  0.9028446E-003  0.2044416E+03  0.7818608E-02  0.1146250E+00
         21   -1    0    0  501  502  0.00000000000E+00  0.00000000000E+00  0.50112249173E+03  0.50112249173E+03  0.00000000000E+00 0. -1.
         21   -1    0    0  502  503 -0.00000000000E+00 -0.00000000000E+00 -0.95137657167E+02  0.95137657167E+02  0.00000000000E+00 0. -1.
          6    2    1    2  501    0  0.47269015701E+02  0.98183133486E+02  0.30992111081E+03  0.37127817020E+03  0.17298004855E+03 0.  0.
         24    2    3    3    0    0  0.82078483164E+02  0.38206164871E+02  0.12483220617E+03  0.17356896857E+03  0.79665040769E+02 0.  0.
         -6    2    1    2    0  503 -0.47269015701E+02 -0.98183133486E+02  0.96063723753E+02  0.22498197869E+03  0.17179745100E+03 0.  0.
        -24    2    5    5    0    0  0.33808584541E+02 -0.16432903261E+02  0.36375335445E+02  0.95207285085E+02  0.79549993126E+02 0.  0.
          5    1    3    3  501    0 -0.34809467463E+02  0.59976968615E+02  0.18508890463E+03  0.19770920163E+03  0.47000000000E+01 0. -1.
        -13    1    4    4    0    0  0.28849488261E+02 -0.17476466913E+02  0.97969554482E+01  0.35124068738E+02  0.00000000000E+00 0.  1.
         14    1    4    4    0    0  0.53228994903E+02  0.55682631785E+02  0.11503525073E+03  0.13844489983E+03  0.00000000000E+00 0. -1.
         -5    1    5    5    0  503 -0.81077600241E+02 -0.81750230225E+02  0.59688388308E+02  0.12977469361E+03  0.47000000000E+01 0.  1.
         11    1    6    6    0    0  0.56753502878E+02 -0.25656382403E+02  0.19484302650E+02  0.65259850572E+02  0.00000000000E+00 0. -1.
        -12    1    6    6    0    0 -0.22944918338E+02  0.92234791418E+01  0.16891032795E+02  0.29947434513E+02  0.00000000000E+00 0.  1.
</event>
<event>
12    1  0.9028446E-003  0.2834855E+03  0.7818608E-02  0.1094169E+00
         21   -1    0    0  503  502  0.00000000000E+00  0.00000000000E+00  0.45106900106E+03  0.45106900106E+03  0.00000000000E+00 0. -1.
         21   -1    0    0  501  503 -0.00000000000E+00 -0.00000000000E+00 -0.21027383935E+03  0.21027383935E+03  0.00000000000E+00 0.  1.
          6    2    1    2  501    0 -0.22116761219E+03 -0.17387988261E+02 -0.11732585354E+02  0.28372822306E+03  0.17648398279E+03 0.  0.
         24    2    3    3    0    0 -0.21220156409E+03  0.33695183356E+02  0.41345375101E+01  0.22928801706E+03  0.79943925250E+02 0.  0.
         -6    2    1    2    0  502  0.22116761219E+03  0.17387988261E+02  0.25252774707E+03  0.37761461735E+03  0.17206127217E+03 0.  0.
        -24    2    5    5    0    0  0.51583307360E+02  0.39133282500E-02  0.15079991217E+03  0.17904048787E+03  0.81572330924E+02 0.  0.
          5    1    3    3  501    0 -0.89660481026E+01 -0.51083171617E+02 -0.15867122864E+02  0.54440205998E+02  0.47000000000E+01 0. -1.
        -13    1    4    4    0    0 -0.11374599213E+03 -0.18255843154E+02 -0.15528639459E+02  0.11624355973E+03  0.00000000000E+00 0.  1.
         14    1    4    4    0    0 -0.98455571962E+02  0.51951026511E+02  0.19663176969E+02  0.11304445734E+03  0.00000000000E+00 0. -1.
         -5    1    5    5    0  502  0.16958430483E+03  0.17384074933E+02  0.10172783490E+03  0.19857412948E+03  0.47000000000E+01 0.  1.
         11    1    6    6    0    0  0.37786066687E+02  0.23840777060E+02  0.14385919035E+03  0.15063743271E+03  0.00000000000E+00 0. -1.
        -12    1    6    6    0    0  0.13797240672E+02 -0.23836863732E+02  0.69407218199E+01  0.28403055155E+02  0.00000000000E+00 0.  1.
</event>
<event>
12    1  0.9028446E-003  0.2111913E+03  0.7818608E-02  0.1140745E+00
         21   -1    0    0  501  502  0.00000000000E+00  0.00000000000E+00  0.93959193241E+03  0.93959193241E+03  0.00000000000E+00 0.  1.
         21   -1    0    0  502  503 -0.00000000000E+00 -0.00000000000E+00 -0.51583752427E+02  0.51583752427E+02  0.00000000000E+00 0.  1.
          6    2    1    2  501    0 -0.48101350940E+02  0.11155244299E+03  0.58567813117E+03  0.62238681443E+03  0.17201391208E+03 0.  0.
         24    2    3    3    0    0 -0.58634479250E+02  0.11588811901E+03  0.58987078060E+03  0.60937093229E+03  0.80730025570E+02 0.  0.
         -6    2    1    2    0  503  0.48101350940E+02 -0.11155244299E+03  0.30233004881E+03  0.36878887040E+03  0.17275440666E+03 0.  0.
        -24    2    5    5    0    0  0.79560718820E+02 -0.24182756223E+02  0.20672365782E+03  0.23542535968E+03  0.75998128948E+02 0.  0.
          5    1    3    3  501    0  0.10533128310E+02 -0.43356760267E+01 -0.41926494335E+01  0.13015882140E+02  0.47000000000E+01 0. -1.
        -11    1    4    4    0    0 -0.64865992823E+02  0.12459897967E+03  0.56660518362E+03  0.58375845764E+03  0.00000000000E+00 0.  1.
         12    1    4    4    0    0  0.62315135734E+01 -0.87108606606E+01  0.23265596981E+02  0.25612474651E+02  0.00000000000E+00 0. -1.
         -5    1    5    5    0  503 -0.31459367880E+02 -0.87369686762E+02  0.95606390997E+02  0.13336351072E+03  0.47000000000E+01 0.  1.
         13    1    6    6    0    0 -0.70719215850E+01 -0.10303198510E+02  0.81920624091E+02  0.82868308936E+02  0.00000000000E+00 0. -1.
        -14    1    6    6    0    0  0.86632640405E+02 -0.13879557713E+02  0.12480303372E+03  0.15255705075E+03  0.00000000000E+00 0.  1.
</event>
<event>
12    1  0.9028446E-003  0.2386782E+03  0.7818608E-02  0.1121024E+00
         21   -1    0    0  501  502  0.00000000000E+00  0.00000000000E+00  0.17342962468E+03  0.17342962468E+03  0.00000000000E+00 0.  1.
         21   -1    0    0  502  503 -0.00000000000E+00 -0.00000000000E+00 -0.38209575219E+03  0.38209575219E+03  0.00000000000E+00 0. -1.
          6    2    1    2  501    0  0.16223084836E+03  0.32268974879E+02  0.20470432364E+01  0.23868699001E+03  0.17206729473E+03 0.  0.
         24    2    3    3    0    0  0.14985577757E+02 -0.16762869019E+01 -0.30398564790E+02  0.84064035723E+02  0.76911064758E+02 0.  0.
         -6    2    1    2    0  503 -0.16223084836E+03 -0.32268974879E+02 -0.21071317074E+03  0.31683838686E+03  0.16919334550E+03 0.  0.
        -24    2    5    5    0    0 -0.35333747709E+02 -0.45426645758E+02 -0.14101917297E+03  0.17138962687E+03  0.78587169310E+02 0.  0.
          5    1    3    3  501    0  0.14724527060E+03  0.33945261781E+02  0.32445608027E+02  0.15462295429E+03  0.47000000000E+01 0. -1.
        -13    1    4    4    0    0  0.48845601632E+01 -0.34664012894E+02  0.41354765004E+01  0.35249891969E+02  0.00000000000E+00 0.  1.
         14    1    4    4    0    0  0.10101017594E+02  0.32987725993E+02 -0.34534041291E+02  0.48814143754E+02  0.00000000000E+00 0. -1.
         -5    1    5    5    0  503 -0.12689710065E+03  0.13157670879E+02 -0.69693997775E+02  0.14544875999E+03  0.47000000000E+01 0.  1.
         11    1    6    6    0    0 -0.18081477221E+02  0.20991842268E+02 -0.52757930079E+02  0.59590237846E+02  0.00000000000E+00 0. -1.
        -12    1    6    6    0    0 -0.17252270488E+02 -0.66418488026E+02 -0.88261242890E+02  0.11179938902E+03  0.00000000000E+00 0.  1.
</event>
<event>
12    1  0.9028446E-003  0.1783423E+03  0.7818608E-02  0.1169537E+00
         21   -1    0    0  503  502  0.00000000000E+00  0.00000000000E+00  0.14546330064E+02  0.14546330064E+02  0.00000000000E+00 0.  1.
         21   -1    0    0  501  503 -0.00000000000E+00 -0.00000000000E+00 -0.22255007883E+04  0.22255007883E+04  0.00000000000E+00 0.  1.
          6    2    1    2  501    0  0.71093498171E+01 -0.42994971585E+02 -0.94475382592E+03  0.96134855247E+03  0.17243009397E+03 0.  0.
         24    2    3    3    0    0 -0.25598693297E+02 -0.80804944802E+02 -0.79112583409E+03  0.79972225500E+03  0.80565920694E+02 0.  0.
         -6    2    1    2    0  502 -0.71093498171E+01  0.42994971585E+02 -0.12662006324E+04  0.12786985659E+04  0.17293603069E+03 0.  0.
        -24    2    5    5    0    0 -0.32803599177E+02  0.53061195719E+02 -0.43169339865E+03  0.44372195762E+03  0.81476491273E+02 0.  0.
          5    1    3    3  501    0  0.32708043115E+02  0.37809973216E+02 -0.15362799184E+03  0.16162629747E+03  0.47000000000E+01 0. -1.
        -11    1    4    4    0    0  0.59329411017E+01 -0.84080824080E+02 -0.61746499257E+03  0.62319162528E+03  0.00000000000E+00 0.  1.
         12    1    4    4    0    0 -0.31531634399E+02  0.32758792779E+01 -0.17366084152E+03  0.17653062972E+03  0.00000000000E+00 0. -1.
         -5    1    5    5    0  502  0.25694249360E+02 -0.10066224134E+02 -0.83450723371E+03  0.83497660831E+03  0.47000000000E+01 0.  1.
         11    1    6    6    0    0 -0.57129246657E+02  0.32547397722E+02 -0.21886281876E+03  0.22852574769E+03  0.00000000000E+00 0. -1.
        -12    1    6    6    0    0  0.24325647480E+02  0.20513797997E+02 -0.21283057989E+03  0.21519620993E+03  0.00000000000E+00 0.  1.
</event>
<event>
12    1  0.9028446E-003  0.2314377E+03  0.7818608E-02  0.1126144E+00
         21   -1    0    0  501  502  0.00000000000E+00  0.00000000000E+00  0.44630917876E+03  0.44630917876E+03  0.00000000000E+00 0.  1.
         21   -1    0    0  502  503 -0.00000000000E+00 -0.00000000000E+00 -0.13851568245E+03  0.13851568245E+03  0.00000000000E+00 0.  1.
          6    2    1    2  501    0 -0.10184347820E+03  0.11334956572E+03  0.26419411207E+03  0.34931621793E+03  0.17030288652E+03 0.  0.
         24    2    3    3    0    0 -0.20686404259E+01  0.75487938868E+02  0.77881148968E+02  0.13455325264E+03  0.79601483928E+02 0.  0.
         -6    2    1    2    0  503  0.10184347820E+03 -0.11334956572E+03  0.43599384240E+02  0.23550864328E+03  0.17419298681E+03 0.  0.
        -24    2    5    5    0    0  0.29358823598E+02 -0.10865762822E+03 -0.23884828864E+02  0.13625015020E+03  0.72973952110E+02 0.  0.
          5    1    3    3  501    0 -0.99774837773E+02  0.37861626852E+02  0.18631296310E+03  0.21476296529E+03  0.47000000000E+01 0. -1.
        -13    1    4    4    0    0 -0.12440447939E+02  0.79684927921E+02  0.88071382612E+02  0.11941951649E+03  0.00000000000E+00 0.  1.
         14    1    4    4    0    0  0.10371807513E+02 -0.41969890532E+01 -0.10190233645E+02  0.15133736152E+02  0.00000000000E+00 0. -1.
         -5    1    5    5    0  503  0.72484654601E+02 -0.46919375018E+01  0.67484213104E+02  0.99258493079E+02  0.47000000000E+01 0.  1.
         11    1    6    6    0    0 -0.24089537297E+02 -0.44624535465E+02 -0.10183757972E+02  0.51723919989E+02  0.00000000000E+00 0. -1.
        -12    1    6    6    0    0  0.53448360895E+02 -0.64033092753E+02 -0.13701070892E+02  0.84526230210E+02  0.00000000000E+00 0.  1.
</event>
<event>
12    1  0.9028446E-003  0.2046644E+03  0.7818608E-02  0.1148872E+00
         21   -1    0    0  503  502  0.00000000000E+00  0.00000000000E+00  0.72209548448E+02  0.72209548448E+02  0.00000000000E+00 0. -1.
         21   -1    0    0  501  503 -0.00000000000E+00 -0.00000000000E+00 -0.56750295122E+03  0.56750295122E+03  0.00000000000E+00 0.  1.
          6    2    1    2  501    0 -0.10891411712E+02  0.75700025404E+02 -0.16968886881E+03  0.25512723937E+03  0.17448919558E+03 0.  0.
         24    2    3    3    0    0 -0.33869760396E+02  0.70863969952E+02 -0.33205989610E+02  0.11655935617E+03  0.79464349599E+02 0.  0.
         -6    2    1    2    0  502  0.10891411712E+02 -0.75700025404E+02 -0.32560453396E+03  0.38458526030E+03  0.18983780764E+03 0.  0.
        -24    2    5    5    0    0  0.61966093783E+02 -0.79746701847E+02 -0.30339504860E+03  0.32854643466E+03  0.75464368937E+02 0.  0.
          5    1    3    3  501    0  0.22978348684E+02  0.48360554527E+01 -0.13648287920E+03  0.13856788320E+03  0.47000000000E+01 0. -1.
        -13    1    4    4    0    0 -0.32065924198E+00  0.22091196342E+02 -0.50304265451E+02  0.54942177794E+02  0.00000000000E+00 0.  1.
         14    1    4    4    0    0 -0.33549101154E+02  0.48772773610E+02  0.17098275841E+02  0.61617178372E+02  0.00000000000E+00 0. -1.
         -5    1    5    5    0  502 -0.51074682071E+02  0.40466764428E+01 -0.22209485361E+02  0.56038825638E+02  0.47000000000E+01 0.  1.
         11    1    6    6    0    0  0.33465163539E+02 -0.48070548160E+02 -0.69903645042E+02  0.91198762937E+02  0.00000000000E+00 0. -1.
        -12    1    6    6    0    0  0.28500930243E+02 -0.31676153687E+02 -0.23349140356E+03  0.23734767172E+03  0.00000000000E+00 0.  1.
</event>
<event>
12    1  0.9028446E-003  0.1851475E+03  0.7818608E-02  0.1164384E+00
         21   -1    0    0  503  502  0.00000000000E+00  0.00000000000E+00  0.93439708370E+03  0.93439708370E+03  0.00000000000E+00 0.  1.
         21   -1    0    0  501  503 -0.00000000000E+00 -0.00000000000E+00 -0.38190587102E+02  0.38190587102E+02  0.00000000000E+00 0.  1.
          6    2    1    2  501    0 -0.15196820540E+02  0.45009360207E+02  0.31122691531E+03  0.35900744670E+03  0.17253222341E+03 0.  0.
         24    2    3    3    0    0 -0.28208149715E+02  0.85054641684E+02  0.28452530715E+03  0.30892765903E+03  0.80322203148E+02 0.  0.
         -6    2    1    2    0  502  0.15196820540E+02 -0.45009360207E+02  0.58497958129E+03  0.61358022410E+03  0.17894914088E+03 0.  0.
        -24    2    5    5    0    0 -0.54952227722E+02 -0.21095544297E+01  0.23552423867E+03  0.25455040808E+03  0.79372827219E+02 0.  0.
          5    1    3    3  501    0  0.13011329174E+02 -0.40045281476E+02  0.26701608155E+02  0.50079787674E+02  0.47000000000E+01 0. -1.
        -13    1    4    4    0    0 -0.39529579427E+02  0.69001043999E+02  0.12468906963E+03  0.14788879541E+03  0.00000000000E+00 0.  1.
         14    1    4    4    0    0  0.11321429712E+02  0.16053597685E+02  0.15983623752E+03  0.16103886362E+03  0.00000000000E+00 0. -1.
         -5    1    5    5    0  502  0.70149048263E+02 -0.42899805778E+02  0.34945534262E+03  0.35902981602E+03  0.47000000000E+01 0.  1.
         11    1    6    6    0    0  0.14866328696E+02  0.12146754973E+02  0.20774588098E+02  0.28286655792E+02  0.00000000000E+00 0. -1.
        -12    1    6    6    0    0 -0.69818556418E+02 -0.14256309403E+02  0.21474965057E+03  0.22626375229E+03  0.00000000000E+00 0.  1.
</event>
<event>
12    1  0.9028446E-003  0.3159245E+03  0.7818608E-02  0.1078323E+00
         21   -1    0    0  501  502  0.00000000000E+00  0.00000000000E+00  0.92331093182E+03  0.92331093182E+03  0.00000000000E+00 0.  1.
         21   -1    0    0  502  503 -0.00000000000E+00 -0.00000000000E+00 -0.12535056192E+03  0.12535056192E+03  0.00000000000E+00 0. -1.
          6    2    1    2  501    0  0.12684578840E+03  0.22329373910E+03  0.60935412520E+03  0.68638235872E+03  0.18400637083E+03 0.  0.
         24    2    3    3    0    0  0.10594370295E+03  0.24621821757E+03  0.50214892620E+03  0.57467974648E+03  0.79093539954E+02 0.  0.
         -6    2    1    2    0  503 -0.12684578840E+03 -0.22329373910E+03  0.18860624469E+03  0.36227913501E+03  0.17240623008E+03 0.  0.
        -24    2    5    5    0    0 -0.16916561525E+02 -0.10548062085E+03  0.30931962738E+02  0.13678493343E+03  0.79630397888E+02 0.  0.
          5    1    3    3  501    0  0.20902085453E+02 -0.22924478479E+02  0.10720519900E+03  0.11170261225E+03  0.47000000000E+01 0. -1.
        -13    1    4    4    0    0  0.30429125987E+02  0.16549279987E+03  0.32216444540E+03  0.36346076597E+03  0.00000000000E+00 0.  1.
         14    1    4    4    0    0  0.75514576963E+02  0.80725417703E+02  0.17998448081E+03  0.21121898051E+03  0.00000000000E+00 0. -1.
         -5    1    5    5    0  503 -0.10992922688E+03 -0.11781311825E+03  0.15767428196E+03  0.22549420158E+03  0.47000000000E+01 0.  1.
         11    1    6    6    0    0 -0.35880270641E+02 -0.56355762437E+02 -0.13174924065E+02  0.68095112932E+02  0.00000000000E+00 0. -1.
        -12    1    6    6    0    0  0.18963709116E+02 -0.49124858408E+02  0.44106886803E+02  0.68689820501E+02  0.00000000000E+00 0.  1.
</event>
<event>
12    1  0.9028446E-003  0.2091798E+03  0.7818608E-02  0.1142867E+00
         21   -1    0    0  501  502  0.00000000000E+00  0.00000000000E+00  0.15600010392E+03  0.15600010392E+03  0.00000000000E+00 0. -1.
         21   -1    0    0  502  503 -0.00000000000E+00 -0.00000000000E+00 -0.28883511103E+03  0.28883511103E+03  0.00000000000E+00 0. -1.
          6    2    1    2  501    0 -0.90450976525E+02 -0.67422322034E+02 -0.20325366726E+02  0.21016492050E+03  0.17615057370E+03 0.  0.
         24    2    3    3    0    0 -0.13041291808E+03 -0.72055932137E+02 -0.25523316071E+02  0.16932944826E+03  0.76298334370E+02 0.  0.
         -6    2    1    2    0  503  0.90450976525E+02  0.67422322034E+02 -0.11250964038E+03  0.23467029444E+03  0.17229213346E+03 0.  0.
        -24    2    5    5    0    0  0.83864573302E+02  0.72974466813E+02 -0.14873416237E+03  0.19714013308E+03  0.66210584891E+02 0.  0.
          5    1    3    3  501    0  0.39961941557E+02  0.46336101032E+01  0.51979493448E+01  0.40835472239E+02  0.47000000000E+01 0. -1.
        -11    1    4    4    0    0  0.93839137904E+01 -0.12024459601E+02 -0.21631470773E+01  0.15405345565E+02  0.00000000000E+00 0.  1.
         12    1    4    4    0    0 -0.13979683187E+03 -0.60031472537E+02 -0.23360168993E+02  0.15392410270E+03  0.00000000000E+00 0. -1.
         -5    1    5    5    0  503  0.65864032226E+01 -0.55521447786E+01  0.36224521989E+02  0.37530161369E+02  0.47000000000E+01 0.  1.
         13    1    6    6    0    0  0.53141164984E+02  0.71990979317E+01 -0.85177489808E+02  0.10065294430E+03  0.00000000000E+00 0. -1.
        -14    1    6    6    0    0  0.30723408318E+02  0.65775368881E+02 -0.63556672561E+02  0.96487188772E+02  0.00000000000E+00 0.  1.
</event>
<event>
12    1  0.9028446E-003  0.1804009E+03  0.7818608E-02  0.1167494E+00
         21   -1    0    0  503  502  0.00000000000E+00  0.00000000000E+00  0.85543001788E+02  0.85543001788E+02  0.00000000000E+00 0.  1.
         21   -1    0    0  501  503 -0.00000000000E+00 -0.00000000000E+00 -0.58960584197E+03  0.58960584197E+03  0.00000000000E+00 0.  1.
          6    2    1    2  501    0  0.47927623328E+02 -0.25684432263E+02 -0.45327545178E+03  0.48773525633E+03  0.17166915258E+03 0.  0.
         24    2    3    3    0    0  0.33573203442E+02 -0.88249132227E+02 -0.32715162650E+03  0.34613829184E+03  0.62196953515E+02 0.  0.
         -6    2    1    2    0  502 -0.47927623328E+02  0.25684432263E+02 -0.50787388400E+02  0.18741358742E+03  0.17201089149E+03 0.  0.
        -24    2    5    5    0    0 -0.86825170065E+02 -0.21414533932E+02 -0.27933062826E+02  0.12202442963E+03  0.78182562045E+02 0.  0.
          5    1    3    3  501    0  0.14354419886E+02  0.62564699964E+02 -0.12612382527E+03  0.14159696449E+03  0.47000000000E+01 0. -1.
        -13    1    4    4    0    0  0.34025746856E+02 -0.13506584969E+02 -0.80994080849E+02  0.88883184119E+02  0.00000000000E+00 0.  1.
         14    1    4    4    0    0 -0.45254341428E+00 -0.74742547258E+02 -0.24615754565E+03  0.25725510772E+03  0.00000000000E+00 0. -1.
         -5    1    5    5    0  502  0.38897546737E+02  0.47098966195E+02 -0.22854325574E+02  0.65389157788E+02  0.47000000000E+01 0.  1.
         13    1    6    6    0    0 -0.51712473419E+02 -0.49066135947E+02 -0.41733351169E+01  0.71407859020E+02  0.00000000000E+00 0. -1.
        -14    1    6    6    0    0 -0.35112696646E+02  0.27651602014E+02 -0.23759727709E+02  0.50616570612E+02  0.00000000000E+00 0.  1.
</event>
<event>
12    1  0.9028446E-003  0.2163973E+03  0.7818608E-02  0.1137657E+00
         21   -1    0    0  503  502  0.00000000000E+00  0.00000000000E+00  0.11691048999E+03  0.11691048999E+03  0.00000000000E+00 0.  1.
         21   -1    0    0  501  503 -0.00000000000E+00 -0.00000000000E+00 -0.41224604158E+03  0.41224604158E+03  0.00000000000E+00 0. -1.
          6    2    1    2  501    0  0.19219354816E+02  0.12973688455E+03 -0.88632510101E+02  0.23384507386E+03  0.17212423975E+03 0.  0.
         24    2    3    3    0    0  0.33879373572E+01  0.15632278105E+03 -0.46330042748E+02  0.18122347738E+03  0.79039141554E+02 0.  0.
         -6    2    1    2    0  502 -0.19219354816E+02 -0.12973688455E+03 -0.20670304149E+03  0.29531145771E+03  0.16517162857E+03 0.  0.
        -24    2    5    5    0    0  0.31284364087E+02 -0.92904971820E+02 -0.19268528678E+03  0.23107904482E+03  0.81607965242E+02 0.  0.
          5    1    3    3  501    0  0.15831417459E+02 -0.26585896503E+02 -0.42302467354E+02  0.52621596478E+02  0.47000000000E+01 0. -1.
        -11    1    4    4    0    0  0.27105953899E+02  0.14283172987E+02 -0.27231236465E+01  0.30759667907E+02  0.00000000000E+00 0.  1.
         12    1    4    4    0    0 -0.23718016542E+02  0.14203960806E+03 -0.43606919101E+02  0.15046380947E+03  0.00000000000E+00 0. -1.
         -5    1    5    5    0  502 -0.50503718903E+02 -0.36831912726E+02 -0.14017754710E+02  0.64232412886E+02  0.47000000000E+01 0.  1.
         11    1    6    6    0    0 -0.24929047349E+02 -0.48344296784E+02 -0.66315657091E+02  0.85769428170E+02  0.00000000000E+00 0. -1.
        -12    1    6    6    0    0  0.56213411435E+02 -0.44560675036E+02 -0.12636962968E+03  0.14530961665E+03  0.00000000000E+00 0.  1.
</event>
<event>
12    1  0.9028446E-003  0.2029502E+03  0.7818608E-02  0.1147330E+00
         21   -1    0    0  503  502  0.00000000000E+00  0.00000000000E+00  0.70370178218E+02  0.70370178218E+02  0.00000000000E+00 0. -1.
         21   -1    0    0  501  503 -0.00000000000E+00 -0.00000000000E+00 -0.62978445193E+03  0.62978445193E+03  0.00000000000E+00 0.  1.
          6    2    1    2  501    0  0.10575237522E+03 -0.21282129929E+02 -0.37371922643E+03  0.42527033009E+03  0.17190782278E+03 0.  0.
         24    2    3    3    0    0  0.60756138640E+02  0.52173976250E+02 -0.25752577096E+03  0.28055174132E+03  0.77306692263E+02 0.  0.
         -6    2    1    2    0  502 -0.10575237522E+03  0.21282129929E+02 -0.18569504728E+03  0.27488430006E+03  0.17158739439E+03 0.  0.
        -24    2    5    5    0    0 -0.72361098469E+02  0.50983890141E+02 -0.19527341082E+03  0.22893860417E+03  0.80285078791E+02 0.  0.
          5    1    3    3  501    0  0.44996236583E+02 -0.73456106179E+02 -0.11619345546E+03  0.14471858876E+03  0.47000000000E+01 0. -1.
        -13    1    4    4    0    0 -0.90918641822E+01  0.10047208592E+02 -0.11919548367E+03  0.11996320987E+03  0.00000000000E+00 0.  1.
         14    1    4    4    0    0  0.69848002823E+02  0.42126767658E+02 -0.13833028729E+03  0.16058853145E+03  0.00000000000E+00 0. -1.
         -5    1    5    5    0  502 -0.33391276755E+02 -0.29701760212E+02  0.95783635404E+01  0.45945695893E+02  0.47000000000E+01 0.  1.
         11    1    6    6    0    0 -0.83944590631E+02  0.20649655003E+02 -0.13141752531E+03  0.15730120313E+03  0.00000000000E+00 0. -1.
        -12    1    6    6    0    0  0.11583492162E+02  0.30334235138E+02 -0.63855885512E+02  0.71637401032E+02  0.00000000000E+00 0.  1.
</event>
<event>
12    1  0.9028446E-003  0.1777276E+03  0.7818608E-02  0.1170405E+00
         21   -1    0    0  501  502  0.00000000000E+00  0.00000000000E+00  0.65248701879E+02  0.65248701879E+02  0.00000000000E+00 0. -1.
         21   -1    0    0  502  503 -0.00000000000E+00 -0.00000000000E+00 -0.60590103769E+03  0.60590103769E+03  0.00000000000E+00 0. -1.
          6    2    1    2  501    0 -0.38799948458E+02 -0.22683549016E+02 -0.11822558448E+03  0.21345816613E+03  0.17195092459E+03 0.  0.
         24    2    3    3    0    0 -0.47975769023E+01  0.95305811302E+01 -0.14138331306E+03  0.16099597169E+03  0.76266722542E+02 0.  0.
         -6    2    1    2    0  503  0.38799948458E+02  0.22683549016E+02 -0.42242675134E+03  0.45769157344E+03  0.17034446500E+03 0.  0.
        -24    2    5    5    0    0  0.20372312408E+02 -0.53326803233E+02 -0.22532309835E+03  0.24558525237E+03  0.79264358149E+02 0.  0.
          5    1    3    3  501    0 -0.34002371555E+02 -0.32214130146E+02  0.23157728585E+02  0.52462194442E+02  0.47000000000E+01 0. -1.
        -13    1    4    4    0    0  0.44665554289E+01 -0.31408813673E+02 -0.38547729238E+02  0.49923853248E+02  0.00000000000E+00 0.  1.
         14    1    4    4    0    0 -0.92641323311E+01  0.40939394803E+02 -0.10283558383E+03  0.11107211844E+03  0.00000000000E+00 0. -1.
         -5    1    5    5    0  503  0.18427636050E+02  0.76010352249E+02 -0.19710365298E+03  0.21210632107E+03  0.47000000000E+01 0.  1.
         11    1    6    6    0    0  0.73262884705E+01  0.16931234261E+02 -0.96707576461E+02  0.98451493342E+02  0.00000000000E+00 0. -1.
        -12    1    6    6    0    0  0.13046023937E+02 -0.70258037494E+02 -0.12861552189E+03  0.14713375902E+03  0.00000000000E+00 0.  1.
</event>
<event>
12    1  0.9028446E-003  0.3197112E+03  0.7818608E-02  0.1075818E+00
         21   -1    0    0  501  502  0.00000000000E+00  0.00000000000E+00  0.21721574291E+03  0.21721574291E+03  0.00000000000E+00 0. -1.
         21   -1    0    0  502  503 -0.00000000000E+00 -0.00000000000E+00 -0.54203291073E+03  0.54203291073E+03  0.00000000000E+00 0.  1.
          6    2    1    2  501    0 -0.95688344127E+02 -0.25173613706E+03 -0.24199376220E+02  0.32062572519E+03  0.17230178160E+03 0.  0.
         24    2    3    3    0    0 -0.14151041928E+02 -0.19233348384E+03 -0.53878196926E+02  0.21536448229E+03  0.79287950749E+02 0.  0.
         -6    2    1    2    0  503  0.95688344127E+02  0.25173613706E+03 -0.30061779160E+03  0.43862292845E+03  0.17173140317E+03 0.  0.
        -24    2    5    5    0    0  0.45334069585E+02  0.21793871095E+03 -0.15694878746E+03  0.28260789159E+03  0.75377973628E+02 0.  0.
          5    1    3    3  501    0 -0.81537302198E+02 -0.59402653218E+02  0.29678820706E+02  0.10526124290E+03  0.47000000000E+01 0.  1.
        -13    1    4    4    0    0  0.30342553045E+02 -0.75042709194E+02 -0.62680271471E+01  0.81187233558E+02  0.00000000000E+00 0.  1.
         14    1    4    4    0    0 -0.44493594973E+02 -0.11729077464E+03 -0.47610169778E+02  0.13417724873E+03  0.00000000000E+00 0. -1.
         -5    1    5    5    0  503  0.50354274541E+02  0.33797426109E+02 -0.14366900414E+03  0.15601503686E+03  0.47000000000E+01 0.  1.
         13    1    6    6    0    0  0.14091215303E+02  0.17234686673E+02  0.50134486348E+01  0.22819540763E+02  0.00000000000E+00 0. -1.
        -14    1    6    6    0    0  0.31242854282E+02  0.20070402427E+03 -0.16196223609E+03  0.25978835082E+03  0.00000000000E+00 0.  1.
</event>
<event>
12    1  0.9028446E-003  0.2096993E+03  0.7818608E-02  0.1143509E+00
         21   -1    0    0  503  502  0.00000000000E+00  0.00000000000E+00  0.18815105970E+02  0.18815105970E+02  0.00000000000E+00 0. -1.
         21   -1    0    0  501  503 -0.00000000000E+00 -0.00000000000E+00 -0.29258253046E+04  0.29258253046E+04  0.00000000000E+00 0.  1.
          6    2    1    2  501    0 -0.29105213588E+02 -0.11407804271E+03 -0.21867459707E+04  0.21967775767E+04  0.17353059615E+03 0.  0.
         24    2    3    3    0    0  0.48004607276E+02 -0.85944434290E+02 -0.13736508000E+04  0.13795363204E+04  0.80703474613E+02 0.  0.
         -6    2    1    2    0  502  0.29105213588E+02  0.11407804271E+03 -0.72026422796E+03  0.74786283391E+03  0.16327077808E+03 0.  0.
        -24    2    5    5    0    0  0.61200454891E+02  0.87335852819E+02 -0.34152161777E+03  0.36679419966E+03  0.80795560725E+02 0.  0.
          5    1    3    3  501    0 -0.77109820864E+02 -0.28133608421E+02 -0.81309517069E+03  0.81724125629E+03  0.47000000000E+01 0. -1.
        -13    1    4    4    0    0  0.27606281228E+02 -0.17800074350E+02 -0.89757543705E+03  0.89817627146E+03  0.00000000000E+00 0.  1.
         14    1    4    4    0    0  0.20398326047E+02 -0.68144359940E+02 -0.47607536295E+03  0.48136004893E+03  0.00000000000E+00 0. -1.
         -5    1    5    5    0  502 -0.32095241303E+02  0.26742189892E+02 -0.37874261019E+03  0.38106863425E+03  0.47000000000E+01 0.  1.
         13    1    6    6    0    0  0.19649905948E+02  0.88972705501E+02 -0.25521475751E+03  0.27099231276E+03  0.00000000000E+00 0. -1.
        -14    1    6    6    0    0  0.41550548943E+02 -0.16368526817E+01 -0.86306860264E+02  0.95801886896E+02  0.00000000000E+00 0.  1.
</event>
<event>
12    1  0.9028446E-003  0.3040780E+03  0.7818608E-02  0.1084891E+00
         21   -1    0    0  501  502  0.00000000000E+00  0.00000000000E+00  0.13391906211E+03  0.13391906211E+03  0.00000000000E+00 0.  1.
         21   -1    0    0  502  503 -0.00000000000E+00 -0.00000000000E+00 -0.66470707212E+03  0.66470707212E+03  0.00000000000E+00 0. -1.
          6    2    1    2  501    0 -0.14143642540E+03 -0.18647878685E+03 -0.22812171864E+03  0.36959196121E+03  0.17256911339E+03 0.  0.
         24    2    3    3    0    0 -0.14588672856E+02 -0.11355518981E+03 -0.80971180231E+02  0.16202613000E+03  0.81169725057E+02 0.  0.
         -6    2    1    2    0  503  0.14143642540E+03  0.18647878685E+03 -0.30266629136E+03  0.42903417302E+03  0.19412582856E+03 0.  0.
        -24    2    5    5    0    0  0.81001449066E+02  0.12456214219E+03 -0.29833230245E+03  0.34227628744E+03  0.77935436329E+02 0.  0.
          5    1    3    3  501    0 -0.12684775254E+03 -0.72923597047E+02 -0.14715053841E+03  0.20756583121E+03  0.47000000000E+01 0. -1.
        -13    1    4    4    0    0  0.63703429093E+01 -0.77351110314E+02 -0.90396751462E+02  0.11914423280E+03  0.00000000000E+00 0.  1.
         14    1    4    4    0    0 -0.20959015766E+02 -0.36204079492E+02  0.94255712312E+01  0.42881897192E+02  0.00000000000E+00 0. -1.
         -5    1    5    5    0  503  0.60434976334E+02  0.61916644662E+02 -0.43339889097E+01  0.86757885581E+02  0.47000000000E+01 0.  1.
         13    1    6    6    0    0 -0.71243034797E+01  0.23629079402E+02 -0.99463490825E+02  0.10247963261E+03  0.00000000000E+00 0. -1.
        -14    1    6    6    0    0  0.88125752545E+02  0.10093306279E+03 -0.19886881163E+03  0.23979665482E+03  0.00000000000E+00 0.  1.
</event>
<event>
12    1  0.9028446E-003  0.1891160E+03  0.7818608E-02  0.1159385E+00
         21   -1    0    0  501  502  0.00000000000E+00  0.00000000000E+00  0.13349107737E+03  0.13349107737E+03  0.00000000000E+00 0.  1.
         21   -1    0    0  502  503 -0.00000000000E+00 -0.00000000000E+00 -0.26815846177E+03  0.26815846177E+03  0.00000000000E+00 0.  1.
          6    2    1    2  501    0 -0.57250986018E+02  0.53098542157E+02 -0.54902231024E+02  0.19640011752E+03  0.17164387728E+03 0.  0.
         24    2    3    3    0    0 -0.10084146423E+03  0.28670641536E+02 -0.16039956208E+02  0.13292399190E+03  0.80128027756E+02 0.  0.
         -6    2    1    2    0  503  0.57250986018E+02 -0.53098542157E+02 -0.79765153377E+02  0.20524942162E+03  0.17224318508E+03 0.  0.
        -24    2    5    5    0    0 -0.15848166933E+02 -0.18111338676E+02  0.11278876207E+02  0.83271161708E+02  0.78915704013E+02 0.  0.
          5    1    3    3  501    0  0.43590478214E+02  0.24427900621E+02 -0.38862274816E+02  0.63476125618E+02  0.47000000000E+01 0. -1.
        -13    1    4    4    0    0 -0.54436067104E+02  0.45659576670E+02  0.17532714633E+02  0.73181134357E+02  0.00000000000E+00 0.  1.
         14    1    4    4    0    0 -0.46405397128E+02 -0.16988935134E+02 -0.33572670841E+02  0.59742857540E+02  0.00000000000E+00 0. -1.
         -5    1    5    5    0  503  0.73099152952E+02 -0.34987203481E+02 -0.91044029584E+02  0.12197825992E+03  0.47000000000E+01 0.  1.
         13    1    6    6    0    0  0.20470133937E+02  0.16092049835E+02  0.19733618201E+02  0.32671029041E+02  0.00000000000E+00 0. -1.
        -14    1    6    6    0    0 -0.36318300870E+02 -0.34203388511E+02 -0.84547419945E+01  0.50600132667E+02  0.00000000000E+00 0.  1.
</event>
<event>
12    1  0.9028446E-003  0.2270433E+03  0.7818608E-02  0.1129562E+00
         21   -1    0    0  503  502  0.00000000000E+00  0.00000000000E+00  0.86497640202E+02  0.86497640202E+02  0.00000000000E+00 0. -1.
         21   -1    0    0  501  503 -0.00000000000E+00 -0.00000000000E+00 -0.58646266069E+03  0.58646266069E+03  0.00000000000E+00 0.  1.
          6    2    1    2  501    0  0.14187109487E+03  0.62116296524E+01 -0.27404587806E+03  0.35587888548E+03  0.17715147742E+03 0.  0.
         24    2    3    3    0    0  0.30624585389E+01  0.45409352645E+01 -0.15715710617E+03  0.17434182664E+03  0.75277604589E+02 0.  0.
         -6    2    1    2    0  502 -0.14187109487E+03 -0.62116296524E+01 -0.22591914243E+03  0.31708141541E+03  0.17127513883E+03 0.  0.
        -24    2    5    5    0    0 -0.72497342165E+02 -0.69053796562E+02 -0.12627104959E+03  0.18028343328E+03  0.80829740272E+02 0.  0.
          5    1    3    3  501    0  0.13880863633E+03  0.16706943879E+01 -0.11688877189E+03  0.18153705884E+03  0.47000000000E+01 0. -1.
        -11    1    4    4    0    0 -0.26135667164E+02 -0.38358738044E+01 -0.18139257828E+02  0.32044027532E+02  0.00000000000E+00 0.  1.
         12    1    4    4    0    0  0.29198125703E+02  0.83768090689E+01 -0.13901784834E+03  0.14229779911E+03  0.00000000000E+00 0. -1.
         -5    1    5    5    0  502 -0.69373752702E+02  0.62842166910E+02 -0.99648092843E+02  0.13679798212E+03  0.47000000000E+01 0.  1.
         13    1    6    6    0    0 -0.54917944873E+01  0.14540696667E+02 -0.11842181975E+01  0.15588266067E+02  0.00000000000E+00 0. -1.
        -14    1    6    6    0    0 -0.67005547677E+02 -0.83594493229E+02 -0.12508683139E+03  0.16469516722E+03  0.00000000000E+00 0.  1.
</event>
<event>
12    1  0.9028446E-003  0.2195313E+03  0.7818608E-02  0.1135239E+00
         21   -1    0    0  501  502  0.00000000000E+00  0.00000000000E+00  0.78968773024E+03  0.78968773024E+03  0.00000000000E+00 0.  1.
         21   -1    0    0  502  503 -0.00000000000E+00 -0.00000000000E+00 -0.92095615068E+02  0.92095615068E+02  0.00000000000E+00 0. -1.
          6    2    1    2  501    0  0.18034710302E+02  0.13526060255E+03  0.61359903940E+03  0.65168839697E+03  0.17196890480E+03 0.  0.
         24    2    3    3    0    0 -0.16758259524E+02  0.12532404311E+03  0.28185936085E+03  0.31794809331E+03  0.75228556399E+02 0.  0.
         -6    2    1    2    0  503 -0.18034710302E+02 -0.13526060255E+03  0.83993075777E+02  0.23009494834E+03  0.16513075757E+03 0.  0.
        -24    2    5    5    0    0 -0.12483857204E+02 -0.10563938828E+03 -0.79146428234E+01  0.13325824536E+03  0.79872344017E+02 0.  0.
          5    1    3    3  501    0  0.34792969826E+02  0.99365594359E+01  0.33173967855E+03  0.33374030366E+03  0.47000000000E+01 0. -1.
        -13    1    4    4    0    0 -0.32418138590E+02  0.59807841680E+02  0.20373586743E+03  0.21479342940E+03  0.00000000000E+00 0.  1.
         14    1    4    4    0    0  0.15659879065E+02  0.65516201434E+02  0.78123493417E+02  0.10315466391E+03  0.00000000000E+00 0. -1.
         -5    1    5    5    0  503 -0.55508530982E+01 -0.29621214268E+02  0.91907718600E+02  0.96836702975E+02  0.47000000000E+01 0.  1.
         13    1    6    6    0    0 -0.15737626692E+02 -0.72687860516E+02  0.32370649376E+02  0.81111385768E+02  0.00000000000E+00 0. -1.
        -14    1    6    6    0    0  0.32537694882E+01 -0.32951527767E+02 -0.40285292199E+02  0.52146859595E+02  0.00000000000E+00 0.  1.
</event>
<event>
12    1  0.9028446E-003  0.1828751E+03  0.7818608E-02  0.1165520E+00
         21   -1    0    0  501  502  0.00000000000E+00  0.00000000000E+00  0.11308070398E+03  0.11308070398E+03  0.00000000000E+00 0. -1.
         21   -1    0    0  502  503 -0.00000000000E+00 -0.00000000000E+00 -0.30821055085E+03  0.30821055085E+03  0.00000000000E+00 0. -1.
          6    2    1    2  501    0  0.48923201089E+02 -0.35238503643E+02 -0.49601705028E+02  0.18757831152E+03  0.17055809000E+03 0.  0.
         24    2    3    3    0    0  0.56342681339E+01 -0.33144661901E+02  0.32637034797E+02  0.94499762872E+02  0.82065312724E+02 0.  0.
         -6    2    1    2    0  503 -0.48923201089E+02  0.35238503643E+02 -0.14552814184E+03  0.23371294332E+03  0.17265013195E+03 0.  0.
        -24    2    5    5    0    0 -0.52288113442E+02  0.85528789995E+02 -0.11764863635E+03  0.17592200663E+03  0.84012677955E+02 0.  0.
          5    1    3    3  501    0  0.43288932955E+02 -0.20938417417E+01 -0.82238739826E+02  0.93078548645E+02  0.47000000000E+01 0. -1.
        -11    1    4    4    0    0  0.35703261393E+02 -0.43840515807E+02  0.24110854194E+02  0.61465819691E+02  0.00000000000E+00 0.  1.
         12    1    4    4    0    0 -0.30068993259E+02  0.10695853906E+02  0.85261806032E+01  0.33033943181E+02  0.00000000000E+00 0. -1.
         -5    1    5    5    0  503  0.33649123530E+01 -0.50290286352E+02 -0.27879505494E+02  0.57790936686E+02  0.47000000000E+01 0.  1.
         11    1    6    6    0    0  0.10934132876E+01  0.25246523188E+02  0.81575255087E+01  0.26554240869E+02  0.00000000000E+00 0. -1.
        -12    1    6    6    0    0 -0.53381526730E+02  0.60282266806E+02 -0.12580616186E+03  0.14936776576E+03  0.00000000000E+00 0.  1.
</event>
<event>
12    1  0.9028446E-003  0.1899714E+03  0.7818608E-02  0.1158494E+00
         21   -1    0    0  501  502  0.00000000000E+00  0.00000000000E+00  0.90042823417E+02  0.90042823417E+02  0.00000000000E+00 0. -1.
         21   -1    0    0  502  503 -0.00000000000E+00 -0.00000000000E+00 -0.40137758177E+03  0.40137758177E+03  0.00000000000E+00 0. -1.
          6    2    1    2  501    0 -0.81179621414E+02  0.14618357028E+02 -0.14586117994E+03  0.23950911668E+03  0.17112950028E+03 0.  0.
         24    2    3    3    0    0 -0.11007527400E+02 -0.93370949857E+01 -0.14389822837E+03  0.16518597332E+03  0.79820790859E+02 0.  0.
         -6    2    1    2    0  503  0.81179621414E+02 -0.14618357028E+02 -0.16547357841E+03  0.25191128850E+03  0.17109636123E+03 0.  0.
        -24    2    5    5    0    0  0.97152993726E+02  0.26146178177E+02 -0.76105730094E+02  0.15228399171E+03  0.85299502662E+02 0.  0.
          5    1    3    3  501    0 -0.70172094013E+02  0.23955452014E+02 -0.19629515687E+01  0.74323143356E+02  0.47000000000E+01 0. -1.
        -13    1    4    4    0    0  0.11477836134E+02  0.19315759319E+02 -0.70124654686E+01  0.23537500979E+02  0.00000000000E+00 0.  1.
         14    1    4    4    0    0 -0.22485363534E+02 -0.28652854305E+02 -0.13688576290E+03  0.14164847234E+03  0.00000000000E+00 0. -1.
         -5    1    5    5    0  503 -0.15973372312E+02 -0.40764535204E+02 -0.89367848319E+02  0.99627296795E+02  0.47000000000E+01 0.  1.
         13    1    6    6    0    0 -0.98794313394E+01 -0.14117990815E+01  0.84890217176E+01  0.13101901769E+02  0.00000000000E+00 0. -1.
        -14    1    6    6    0    0  0.10703242507E+03  0.27557977258E+02 -0.84594751811E+02  0.13918208994E+03  0.00000000000E+00 0.  1.
</event>
<event>
12    1  0.9028446E-003  0.1763285E+03  0.7818608E-02  0.1171462E+00
         21   -1    0    0  503  502  0.00000000000E+00  0.00000000000E+00  0.33639591002E+03  0.33639591002E+03  0.00000000000E+00 0.  1.
         21   -1    0    0  501  503 -0.00000000000E+00 -0.00000000000E+00 -0.96210584170E+02  0.96210584170E+02  0.00000000000E+00 0.  1.
          6    2    1    2  501    0 -0.36946012678E+02  0.15571923592E+02  0.76590258969E+02  0.19224409970E+03  0.17170973602E+03 0.  0.
         24    2    3    3    0    0 -0.16890104152E+02  0.25905079206E+02 -0.23084385295E+02  0.89939953743E+02  0.81240123633E+02 0.  0.
         -6    2    1    2    0  502  0.36946012678E+02 -0.15571923592E+02  0.16359506688E+03  0.24036239449E+03  0.17147373594E+03 0.  0.
        -24    2    5    5    0    0  0.57474584036E+02  0.11085040494E+02  0.32088277220E+02  0.10453845807E+03  0.80451387485E+02 0.  0.
          5    1    3    3  501    0 -0.20055908526E+02 -0.10333155614E+02  0.99674644264E+02  0.10230414596E+03  0.47000000000E+01 0. -1.
        -11    1    4    4    0    0  0.22407228161E+02  0.34880496127E+02  0.35763331587E+01  0.41611573423E+02  0.00000000000E+00 0.  1.
         12    1    4    4    0    0 -0.39297332312E+02 -0.89754169214E+01 -0.26660718454E+02  0.48328380319E+02  0.00000000000E+00 0. -1.
         -5    1    5    5    0  502 -0.20528571358E+02 -0.26656964086E+02  0.13150678966E+03  0.13582393641E+03  0.47000000000E+01 0.  1.
         13    1    6    6    0    0  0.11218776876E+02  0.41806055172E+02  0.80356811579E+01  0.44024758663E+02  0.00000000000E+00 0. -1.
        -14    1    6    6    0    0  0.46255807159E+02 -0.30721014679E+02  0.24052596062E+02  0.60513699409E+02  0.00000000000E+00 0.  1.
</event>
<event>
12    1  0.9028446E-003  0.1872621E+03  0.7818608E-02  0.1161855E+00
         21   -1    0    0  501  502  0.00000000000E+00  0.00000000000E+00  0.33585503331E+03  0.33585503331E+03  0.00000000000E+00 0.  1.
         21   -1    0    0  502  503 -0.00000000000E+00 -0.00000000000E+00 -0.10727997413E+03  0.10727997413E+03  0.00000000000E+00 0.  1.
          6    2    1    2  501    0  0.98572655766E+01  0.72110151513E+02  0.65225244508E+02  0.19463899074E+03  0.16832398688E+03 0.  0.
         24    2    3    3    0    0  0.16922384644E+02  0.11179050015E+03  0.31486251671E+02  0.14186725955E+03  0.79695999041E+02 0.  0.
         -6    2    1    2    0  503 -0.98572655766E+01 -0.72110151513E+02  0.16334981467E+03  0.24849601669E+03  0.17254004962E+03 0.  0.
        -24    2    5    5    0    0  0.63297144539E+01  0.26143122861E+02  0.52881202034E+02  0.99697062981E+02  0.80122123539E+02 0.  0.
          5    1    3    3  501    0 -0.70651190670E+01 -0.39680348636E+02  0.33738992837E+02  0.52771731191E+02  0.47000000000E+01 0. -1.
        -11    1    4    4    0    0 -0.31268237309E+02  0.42728300757E+02  0.21176236484E+02  0.57024936139E+02  0.00000000000E+00 0.  1.
         12    1    4    4    0    0  0.48190621953E+02  0.69062199392E+02  0.10310015187E+02  0.84842323414E+02  0.00000000000E+00 0. -1.
         -5    1    5    5    0  503 -0.16186980031E+02 -0.98253274375E+02  0.11046861264E+03  0.14879895371E+03  0.47000000000E+01 0.  1.
         13    1    6    6    0    0 -0.21151072287E+02 -0.24814646383E+00 -0.12100462420E+02  0.24369050583E+02  0.00000000000E+00 0. -1.
        -14    1    6    6    0    0  0.27480786741E+02  0.26391269325E+02  0.64981664454E+02  0.75328012397E+02  0.00000000000E+00 0.  1.
</event>
<event>
12    1  0.9028446E-003  0.2301407E+03  0.7818608E-02  0.1126703E+00
         21   -1    0    0  501  502  0.00000000000E+00  0.00000000000E+00  0.31475057285E+02  0.31475057285E+02  0.00000000000E+00 0. -1.
         21   -1    0    0  502  503 -0.00000000000E+00 -0.00000000000E+00 -0.19205962389E+04  0.19205962389E+04  0.00000000000E+00 0.  1.
          6    2    1    2  501    0  0.14861657433E+03  0.38502713143E+02 -0.12912109968E+04  0.13113987218E+04  0.17020994122E+03 0.  0.
         24    2    3    3    0    0  0.83021851003E+02  0.48209835799E+02 -0.11309577014E+04  0.11379049044E+04  0.80903851587E+02 0.  0.
         -6    2    1    2    0  503 -0.14861657433E+03 -0.38502713143E+02 -0.59791018482E+03  0.64067257443E+03  0.17145090676E+03 0.  0.
        -24    2    5    5    0    0 -0.14246121237E+03 -0.83791007867E+02 -0.49150736811E+03  0.52477362049E+03  0.80571271738E+02 0.  0.
          5    1    3    3  501    0  0.65594723326E+02 -0.97071226553E+01 -0.16025329540E+03  0.17349381731E+03  0.47000000000E+01 0. -1.
        -11    1    4    4    0    0  0.93440787534E+02  0.37737633720E+02 -0.75985116491E+03  0.76650447004E+03  0.00000000000E+00 0.  1.
         12    1    4    4    0    0 -0.10418936532E+02  0.10472202079E+02 -0.37110653648E+03  0.37140043441E+03  0.00000000000E+00 0. -1.
         -5    1    5    5    0  503 -0.61553619581E+01  0.45288294723E+02 -0.10640281672E+03  0.11589895394E+03  0.47000000000E+01 0.  1.
         13    1    6    6    0    0 -0.14044472224E+03 -0.91853505383E+02 -0.41248226113E+03  0.44531270160E+03  0.00000000000E+00 0. -1.
        -14    1    6    6    0    0 -0.20164901295E+01  0.80624975168E+01 -0.79025106976E+02  0.79460918892E+02  0.00000000000E+00 0.  1.
</event>
<event>
12    1  0.9028446E-003  0.1783407E+03  0.7818608E-02  0.1169567E+00
         21   -1    0    0  503  502  0.00000000000E+00  0.00000000000E+00  0.12273394400E+03  0.12273394400E+03  0.00000000000E+00 0. -1.
         21   -1    0    0  501  503 -0.00000000000E+00 -0.00000000000E+00 -0.26193840550E+03  0.26193840550E+03  0.00000000000E+00 0. -1.
          6    2    1    2  501    0  0.51226116597E+02  0.64683059641E+01 -0.46705926486E+02  0.18377096163E+03  0.17007165774E+03 0.  0.
         24    2    3    3    0    0  0.99966121549E+02  0.75984150401E+01 -0.23807826158E+02  0.12970361263E+03  0.78773429362E+02 0.  0.
         -6    2    1    2    0  502 -0.51226116597E+02 -0.64683059641E+01 -0.92498535013E+02  0.20090138787E+03  0.17070276702E+03 0.  0.
        -24    2    5    5    0    0  0.55165902215E+01 -0.33584105671E+02 -0.10702885543E+03  0.13618491716E+03  0.77024871597E+02 0.  0.
          5    1    3    3  501    0 -0.48740004952E+02 -0.11301090760E+01 -0.22898100328E+02  0.54067349000E+02  0.47000000000E+01 0. -1.
        -13    1    4    4    0    0  0.29813283675E+01  0.28184540493E+02 -0.60502970600E+01  0.28980385369E+02  0.00000000000E+00 0.  1.
         14    1    4    4    0    0  0.96984793181E+02 -0.20586125453E+02 -0.17757529098E+02  0.10072322726E+03  0.00000000000E+00 0. -1.
         -5    1    5    5    0  502 -0.56742706818E+02  0.27115799706E+02  0.14530320418E+02  0.64716470718E+02  0.47000000000E+01 0.  1.
         13    1    6    6    0    0 -0.33576761344E+02 -0.36861050488E+01 -0.55174999117E+02  0.64693638021E+02  0.00000000000E+00 0. -1.
        -14    1    6    6    0    0  0.39093351565E+02 -0.29898000622E+02 -0.51853856313E+02  0.71491279135E+02  0.00000000000E+00 0.  1.
</event>
<event>
12    1  0.9028446E-003  0.1998436E+03  0.7818608E-02  0.1150028E+00
         21   -1    0    0  501  502  0.00000000000E+00  0.00000000000E+00  0.12116849108E+03  0.12116849108E+03  0.00000000000E+00 0.  1.
         21   -1    0    0  502  503 -0.00000000000E+00 -0.00000000000E+00 -0.37512520586E+03  0.37512520586E+03  0.00000000000E+00 0.  1.
          6    2    1    2  501    0 -0.54789263835E+01  0.10011763719E+03 -0.39177641711E+02  0.20292106708E+03  0.17201311562E+03 0.  0.
         24    2    3    3    0    0  0.29014336474E+02  0.12765789965E+03 -0.44738055994E+02  0.15818562872E+03  0.76699598525E+02 0.  0.
         -6    2    1    2    0  503  0.54789263835E+01 -0.10011763719E+03 -0.21477907306E+03  0.29337262985E+03  0.17286957456E+03 0.  0.
        -24    2    5    5    0    0 -0.12439945867E+02  0.35626331747E+01 -0.14803196621E+03  0.16868120786E+03  0.79827578293E+02 0.  0.
          5    1    3    3  501    0 -0.34493262858E+02 -0.27540262461E+02  0.55604142830E+01  0.44735438368E+02  0.47000000000E+01 0. -1.
        -11    1    4    4    0    0 -0.82013166664E+01  0.26817052918E+02  0.18385066488E+02  0.33532470712E+02  0.00000000000E+00 0.  1.
         12    1    4    4    0    0  0.37215653140E+02  0.10084084673E+03 -0.63123122483E+02  0.12465315800E+03  0.00000000000E+00 0. -1.
         -5    1    5    5    0  503  0.17918872251E+02 -0.10368027036E+03 -0.66747106856E+02  0.12469142199E+03  0.47000000000E+01 0.  1.
         11    1    6    6    0    0 -0.33042143159E+02 -0.20084154244E+02 -0.12181246915E+03  0.12780232438E+03  0.00000000000E+00 0. -1.
        -12    1    6    6    0    0  0.20602197291E+02  0.23646787418E+02 -0.26219497060E+02  0.40878883479E+02  0.00000000000E+00 0.  1.
</event>
<event>
12    1  0.9028446E-003  0.2829629E+03  0.7818608E-02  0.1094175E+00
         21   -1    0    0  501  502  0.00000000000E+00  0.00000000000E+00  0.94503639093E+02  0.94503639093E+02  0.00000000000E+00 0.  1.
         21   -1    0    0  502  503 -0.00000000000E+00 -0.00000000000E+00 -0.12672415702E+04  0.12672415702E+04  0.00000000000E+00 0. -1.
          6    2    1    2  501    0 -0.21859010720E+03  0.46385572817E+02 -0.19295553923E+03  0.34192092847E+03  0.17246688051E+03 0.  0.
         24    2    3    3    0    0 -0.41934035867E+02  0.43205159158E+02 -0.10316051369E+03  0.14367179434E+03  0.79839487483E+02 0.  0.
         -6    2    1    2    0  503  0.21859010720E+03 -0.46385572817E+02 -0.97978239189E+03  0.10198242808E+04  0.17359369806E+03 0.  0.
        -24    2    5    5    0    0  0.19485934260E+03  0.21167050396E+02 -0.74805938204E+03  0.77724615036E+03  0.78105901049E+02 0.  0.
          5    1    3    3  501    0 -0.17665607133E+03  0.31804136599E+01 -0.89795025538E+02  0.19824913412E+03  0.47000000000E+01 0. -1.
        -11    1    4    4    0    0 -0.60822684413E+02  0.10418280738E+02 -0.70450413173E+02  0.93654686103E+02  0.00000000000E+00 0.  1.
         12    1    4    4    0    0  0.18888648546E+02  0.32786878419E+02 -0.32710100522E+02  0.50017108238E+02  0.00000000000E+00 0. -1.
         -5    1    5    5    0  503  0.23730764600E+02 -0.67552623213E+02 -0.23172300985E+03  0.24257813047E+03  0.47000000000E+01 0.  1.
         13    1    6    6    0    0  0.11723916579E+03 -0.22909381977E+02 -0.37063048744E+03  0.38940572672E+03  0.00000000000E+00 0. -1.
        -14    1    6    6    0    0  0.77620176805E+02  0.44076432373E+02 -0.37742889460E+03  0.38784042365E+03  0.00000000000E+00 0.  1.
</event>
<event>
12    1  0.9028446E-003  0.1998385E+03  0.7818608E-02  0.1149990E+00
         21   -1    0    0  503  502  0.00000000000E+00  0.00000000000E+00  0.32486807969E+02  0.32486807969E+02  0.00000000000E+00 0.  1.
         21   -1    0    0  501  503 -0.00000000000E+00 -0.00000000000E+00 -0.14567114698E+04  0.14567114698E+04  0.00000000000E+00 0.  1.
          6    2    1    2  501    0 -0.79374403251E+02  0.61984007705E+02 -0.41656433866E+03  0.46201870058E+03  0.17260683167E+03 0.  0.
         24    2    3    3    0    0 -0.56152368725E+02  0.84276966649E+02 -0.17708719950E+03  0.22034199694E+03  0.83276790072E+02 0.  0.
         -6    2    1    2    0  502  0.79374403251E+02 -0.61984007705E+02 -0.10076603232E+04  0.10271795772E+04  0.17197745143E+03 0.  0.
        -24    2    5    5    0    0 -0.68266466440E+01  0.16226560278E+02 -0.45795112386E+03  0.46526338437E+03  0.80255097206E+02 0.  0.
          5    1    3    3  501    0 -0.23222034526E+02 -0.22292958944E+02 -0.23947713916E+03  0.24167670364E+03  0.47000000000E+01 0. -1.
        -11    1    4    4    0    0 -0.50645312239E+02  0.19214975816E+02 -0.12693472013E+03  0.13800936969E+03  0.00000000000E+00 0.  1.
         12    1    4    4    0    0 -0.55070564858E+01  0.65061990833E+02 -0.50152479378E+02  0.82332627251E+02  0.00000000000E+00 0. -1.
         -5    1    5    5    0  502  0.86201049895E+02 -0.78210567983E+02 -0.54970919935E+03  0.56191619286E+03  0.47000000000E+01 0.  1.
         13    1    6    6    0    0  0.17257674451E+02  0.39245757414E+01 -0.20944874300E+02  0.27421111970E+02  0.00000000000E+00 0. -1.
        -14    1    6    6    0    0 -0.24084321095E+02  0.12301984536E+02 -0.43700624956E+03  0.43784227240E+03  0.00000000000E+00 0.  1.
</event>
<event>
12    1  0.9028446E-003  0.2898966E+03  0.7818608E-02  0.1090460E+00
         21   -1    0    0  503  502  0.00000000000E+00  0.00000000000E+00  0.37747113113E+03  0.37747113113E+03  0.00000000000E+00 0.  1.
         21   -1    0    0  501  503 -0.00000000000E+00 -0.00000000000E+00 -0.25028622455E+03  0.25028622455E+03  0.00000000000E+00 0.  1.
          6    2    1    2  501    0 -0.13228280577E+03  0.19151703632E+03 -0.41311507416E+02  0.29282537138E+03  0.17280781688E+03 0.  0.
         24    2    3    3    0    0 -0.64571881858E+02  0.12710571367E+03 -0.92990368405E+02  0.18593111346E+03  0.74818313015E+02 0.  0.
         -6    2    1    2    0  502  0.13228280577E+03 -0.19151703632E+03  0.16849641399E+03  0.33493198430E+03  0.17207811212E+03 0.  0.
        -24    2    5    5    0    0  0.11216139909E+02 -0.31944090070E+02  0.69637292295E+02  0.11151336667E+03  0.80247440978E+02 0.  0.
          5    1    3    3  501    0 -0.67710923915E+02  0.64411322645E+02  0.51678860989E+02  0.10689425792E+03  0.47000000000E+01 0. -1.
        -11    1    4    4    0    0 -0.43305618065E+02  0.30665093379E+02 -0.63731965952E+02  0.82930621558E+02  0.00000000000E+00 0.  1.
         12    1    4    4    0    0 -0.21266263793E+02  0.96440620295E+02 -0.29258402453E+02  0.10300049191E+03  0.00000000000E+00 0. -1.
         -5    1    5    5    0  502  0.12106666586E+03 -0.15957294625E+03  0.98859121697E+02  0.22341861762E+03  0.47000000000E+01 0.  1.
         13    1    6    6    0    0  0.33410474982E+02 -0.39468456193E+02  0.17909376387E+02  0.54724442760E+02  0.00000000000E+00 0. -1.
        -14    1    6    6    0    0 -0.22194335073E+02  0.75243661234E+01  0.51727915908E+02  0.56788923912E+02  0.00000000000E+00 0.  1.
</event>
<event>
12    1  0.9028446E-003  0.2085068E+03  0.7818608E-02  0.1142806E+00
         21   -1    0    0  501  502  0.00000000000E+00  0.00000000000E+00  0.34524022702E+03  0.34524022702E+03  0.00000000000E+00 0.  1.
         21   -1    0    0  502  503 -0.00000000000E+00 -0.00000000000E+00 -0.12649359976E+03  0.12649359976E+03  0.00000000000E+00 0. -1.
          6    2    1    2  501    0  0.79927024195E+02 -0.87007668609E+02  0.12713168585E+03  0.24398750904E+03  0.17148986976E+03 0.  0.
         24    2    3    3    0    0  0.16323612957E+01 -0.60231461144E+02  0.10981725203E+02  0.10129930742E+03  0.80687408437E+02 0.  0.
         -6    2    1    2    0  503 -0.79927024195E+02  0.87007668609E+02  0.91614941412E+02  0.22774631774E+03  0.17180344631E+03 0.  0.
        -24    2    5    5    0    0  0.27762006341E+02  0.10054086189E+02  0.30993736869E+02  0.82089867199E+02  0.70045134924E+02 0.  0.
          5    1    3    3  501    0  0.78294662899E+02 -0.26776207465E+02  0.11614996065E+03  0.14268820162E+03  0.47000000000E+01 0. -1.
        -11    1    4    4    0    0  0.19780389333E+01  0.14419110038E+02  0.21445859664E+02  0.25918106972E+02  0.00000000000E+00 0.  1.
         12    1    4    4    0    0 -0.34567763768E+00 -0.74650571182E+02 -0.10464134461E+02  0.75381200447E+02  0.00000000000E+00 0. -1.
         -5    1    5    5    0  503 -0.10768903054E+03  0.76953582420E+02  0.60621204543E+02  0.14565645054E+03  0.47000000000E+01 0.  1.
         13    1    6    6    0    0  0.69279134522E+01  0.33217429015E+01 -0.22774022974E+02  0.24035101063E+02  0.00000000000E+00 0. -1.
        -14    1    6    6    0    0  0.20834092889E+02  0.67323432870E+01  0.53767759842E+02  0.58054766136E+02  0.00000000000E+00 0.  1.
</event>
<event>
12    1  0.9028446E-003  0.2355164E+03  0.7818608E-02  0.1123080E+00
         21   -1    0    0  501  502  0.00000000000E+00  0.00000000000E+00  0.21448633141E+03  0.21448633141E+03  0.00000000000E+00 0. -1.
         21   -1    0    0  502  503 -0.00000000000E+00 -0.00000000000E+00 -0.25818794982E+03  0.25818794982E+03  0.00000000000E+00 0.  1.
          6    2    1    2  501    0  0.14213111297E+03  0.70634448001E+02 -0.52146122884E+01  0.23403393391E+03  0.17191338377E+03 0.  0.
         24    2    3    3    0    0  0.55741294207E+02  0.21318837771E+02  0.59838997448E+02  0.11508313594E+03  0.78114261422E+02 0.  0.
         -6    2    1    2    0  503 -0.14213111297E+03 -0.70634448001E+02 -0.38487006125E+02  0.23864034732E+03  0.17400427353E+03 0.  0.
        -24    2    5    5    0    0 -0.57938339539E+02 -0.38752886425E+02 -0.86496503322E+02  0.13650387543E+03  0.79328592112E+02 0.  0.
          5    1    3    3  501    0  0.86389818768E+02  0.49315610231E+02 -0.65053609737E+02  0.11895079798E+03  0.47000000000E+01 0. -1.
        -11    1    4    4    0    0  0.36662491738E+01  0.41305123407E+02  0.33934487538E+02  0.53582684211E+02  0.00000000000E+00 0.  1.
         12    1    4    4    0    0  0.52075045033E+02 -0.19986285637E+02  0.25904509910E+02  0.61500451725E+02  0.00000000000E+00 0. -1.
         -5    1    5    5    0  503 -0.84192773436E+02 -0.31881561576E+02  0.48009497197E+02  0.10213647188E+03  0.47000000000E+01 0.  1.
         11    1    6    6    0    0  0.16106662777E+02 -0.25004498988E+02 -0.18419875942E+02  0.34984873662E+02  0.00000000000E+00 0. -1.
        -12    1    6    6    0    0 -0.74045002316E+02 -0.13748387437E+02 -0.68076627380E+02  0.10151900177E+03  0.00000000000E+00 0.  1.
</event>
<event>
12    1  0.9028446E-003  0.1975187E+03  0.7818608E-02  0.1152448E+00
         21   -1    0    0  503  502  0.00000000000E+00  0.00000000000E+00  0.76694893808E+02  0.76694893808E+02  0.00000000000E+00 0.  1.
         21   -1    0    0  501  503 -0.00000000000E+00 -0.00000000000E+00 -0.51978382033E+03  0.51978382033E+03  0.00000000000E+00 0.  1.
          6    2    1    2  501    0  0.87139461756E+02  0.30188580578E+02 -0.27584557432E+03  0.33766609195E+03  0.17153125834E+03 0.  0.
         24    2    3    3    0    0  0.16802220791E+02  0.10258025510E+02 -0.25158124475E+03  0.26049483965E+03  0.64628918178E+02 0.  0.
         -6    2    1    2    0  502 -0.87139461756E+02 -0.30188580578E+02 -0.16724335220E+03  0.25881262219E+03  0.17466825229E+03 0.  0.
        -24    2    5    5    0    0 -0.53216069933E+02 -0.87339055550E+02 -0.95252770433E+02  0.16072232111E+03  0.79363174739E+02 0.  0.
          5    1    3    3  501    0  0.70337240965E+02  0.19930555068E+02 -0.24264329575E+02  0.77171252301E+02  0.47000000000E+01 0. -1.
        -11    1    4    4    0    0 -0.26502496502E+01 -0.17837471198E+02 -0.22290772251E+02  0.28671897906E+02  0.00000000000E+00 0.  1.
         12    1    4    4    0    0  0.19452470441E+02  0.28095496708E+02 -0.22929047250E+03  0.23182294174E+03  0.00000000000E+00 0. -1.
         -5    1    5    5    0  502 -0.33923391823E+02  0.57150474971E+02 -0.71990581771E+02  0.98090301080E+02  0.47000000000E+01 0.  1.
         13    1    6    6    0    0 -0.52390881891E+02 -0.17651201718E+02 -0.21686285836E+02  0.59385725732E+02  0.00000000000E+00 0. -1.
        -14    1    6    6    0    0 -0.82518804271E+00 -0.69687853832E+02 -0.73566484597E+02  0.10133659538E+03  0.00000000000E+00 0.  1.
</event>
<event>
12    1  0.9028446E-003  0.2187462E+03  0.7818608E-02  0.1136341E+00
         21   -1    0    0  501  502  0.00000000000E+00  0.00000000000E+00  0.11563468504E+03  0.11563468504E+03  0.00000000000E+00 0. -1.
         21   -1    0    0  502  503 -0.00000000000E+00 -0.00000000000E+00 -0.41341343343E+03  0.41341343343E+03  0.00000000000E+00 0.  1.
          6    2    1    2  501    0  0.12084871044E+03  0.16931808820E+02 -0.19574548753E+03  0.28767560662E+03  0.17190073237E+03 0.  0.
         24    2    3    3    0    0  0.10274050810E+03 -0.31145292212E+02 -0.63451595388E+02  0.14567885126E+03  0.75303263643E+02 0.  0.
         -6    2    1    2    0  503 -0.12084871044E+03 -0.16931808820E+02 -0.10203326086E+03  0.24137251185E+03  0.18154560360E+03 0.  0.
        -24    2    5    5    0    0 -0.50067802507E+02 -0.37820690208E+02 -0.12734143991E+03  0.16321321156E+03  0.80532730319E+02 0.  0.
          5    1    3    3  501    0  0.18108202347E+02  0.48077101031E+02 -0.13229389214E+03  0.14199675537E+03  0.47000000000E+01 0. -1.
        -13    1    4    4    0    0  0.97821922577E+01 -0.33462975625E+02 -0.32536025741E+02  0.47687052688E+02  0.00000000000E+00 0.  1.
         14    1    4    4    0    0  0.92958315840E+02  0.23176834139E+01 -0.30915569647E+02  0.97991798569E+02  0.00000000000E+00 0. -1.
         -5    1    5    5    0  503 -0.70780907938E+02  0.20888881388E+02  0.25308179054E+02  0.78159300286E+02  0.47000000000E+01 0.  1.
         11    1    6    6    0    0  0.18020680999E+02  0.77230111518E+01 -0.18207971165E+02  0.26756682508E+02  0.00000000000E+00 0. -1.
        -12    1    6    6    0    0 -0.68088483505E+02 -0.45543701360E+02 -0.10913346875E+03  0.13645652905E+03  0.00000000000E+00 0.  1.
</event>
<event>
12    1  0.9028446E-003  0.1974867E+03  0.7818608E-02  0.1156282E+00
         21   -1    0    0  501  502  0.00000000000E+00  0.00000000000E+00  0.75741539172E+02  0.75741539172E+02  0.00000000000E+00 0. -1.
         21   -1    0    0  502  503 -0.00000000000E+00 -0.00000000000E+00 -0.48189218727E+03  0.48189218727E+03  0.00000000000E+00 0.  1.
          6    2    1    2  501    0  0.29713184190E+02 -0.58853266523E+02 -0.16184508395E+03  0.25533280113E+03  0.18615699783E+03 0.  0.
         24    2    3    3    0    0  0.17391025433E+01  0.46055289363E+02 -0.89008603659E+02  0.12450620902E+03  0.73858989996E+02 0.  0.
         -6    2    1    2    0  503 -0.29713184190E+02  0.58853266523E+02 -0.24430556415E+03  0.30230092531E+03  0.16539062995E+03 0.  0.
        -24    2    5    5    0    0 -0.75738647410E+01 -0.28928502596E+02 -0.92439604500E+02  0.12543615167E+03  0.79340569548E+02 0.  0.
          5    1    3    3  501    0  0.27974081646E+02 -0.10490855589E+03 -0.72836480288E+02  0.13082659211E+03  0.47000000000E+01 0. -1.
        -13    1    4    4    0    0  0.34232111706E+02  0.24714666460E+02 -0.68724641645E+02  0.80658096799E+02  0.00000000000E+00 0.  1.
         14    1    4    4    0    0 -0.32493009163E+02  0.21340622903E+02 -0.20283962015E+02  0.43848112221E+02  0.00000000000E+00 0. -1.
         -5    1    5    5    0  503 -0.22139319449E+02  0.87781769119E+02 -0.15186595965E+03  0.17686477364E+03  0.47000000000E+01 0.  1.
         13    1    6    6    0    0 -0.22729065267E+02 -0.51653833473E+02 -0.71096358546E+02  0.90771257119E+02  0.00000000000E+00 0. -1.
        -14    1    6    6    0    0  0.15155200526E+02  0.22725330877E+02 -0.21343245953E+02  0.34664894551E+02  0.00000000000E+00 0.  1.
</event>
<event>
12    1  0.9028446E-003  0.2168566E+03  0.7818608E-02  0.1137745E+00
         21   -1    0    0  503  502  0.00000000000E+00  0.00000000000E+00  0.25311097298E+04  0.25311097298E+04  0.00000000000E+00 0. -1.
         21   -1    0    0  501  503 -0.00000000000E+00 -0.00000000000E+00 -0.27361555855E+02  0.27361555855E+02  0.00000000000E+00 0.  1.
          6    2    1    2  501    0 -0.50488470570E+02 -0.10817687453E+03  0.51550609549E+03  0.55926140644E+03  0.18103995252E+03 0.  0.
         24    2    3    3    0    0 -0.40265361090E+02 -0.73635646809E+02  0.51074442312E+03  0.52262301260E+03  0.72328692537E+02 0.  0.
         -6    2    1    2    0  502  0.50488470570E+02  0.10817687453E+03  0.19882420784E+04  0.19992098792E+04  0.17170398003E+03 0.  0.
        -24    2    5    5    0    0 -0.18416199035E+02  0.11242361713E+03  0.13907329180E+04  0.13977074477E+04  0.80435278354E+02 0.  0.
          5    1    3    3  501    0 -0.10223109481E+02 -0.34541227717E+02  0.47616723678E+01  0.36638393843E+02  0.47000000000E+01 0. -1.
        -13    1    4    4    0    0 -0.43010945923E+02 -0.86114384815E+02  0.41426586251E+03  0.42530204982E+03  0.00000000000E+00 0.  1.
         14    1    4    4    0    0  0.27455848335E+01  0.12478738007E+02  0.96478560617E+02  0.97320962783E+02  0.00000000000E+00 0. -1.
         -5    1    5    5    0  502  0.68904669605E+02 -0.42467426080E+01  0.59750916043E+03  0.60150243151E+03  0.47000000000E+01 0.  1.
         11    1    6    6    0    0 -0.12263304740E+01  0.92833179703E+02  0.12998472861E+04  0.13031586513E+04  0.00000000000E+00 0. -1.
        -12    1    6    6    0    0 -0.17189868561E+02  0.19590437431E+02  0.90885631854E+02  0.94548796383E+02  0.00000000000E+00 0.  1.
</event>
<event>
12    1  0.9028446E-003  0.1774577E+03  0.7818608E-02  0.1170743E+00
         21   -1    0    0  501  502  0.00000000000E+00  0.00000000000E+00  0.65958438818E+03  0.65958438818E+03  0.00000000000E+00 0.  1.
         21   -1    0    0  502  503 -0.00000000000E+00 -0.00000000000E+00 -0.49393039210E+02  0.49393039210E+02  0.00000000000E+00 0.  1.
          6    2    1    2  501    0 -0.28325206577E+02 -0.44299166709E+02  0.37742127619E+03  0.41627770319E+03  0.16755767054E+03 0.  0.
         24    2    3    3    0    0 -0.66318730700E+02 -0.45630023193E+02  0.16420508655E+03  0.19964780549E+03  0.80097832242E+02 0.  0.
         -6    2    1    2    0  503  0.28325206577E+02  0.44299166709E+02  0.23277007279E+03  0.29269972421E+03  0.16948890307E+03 0.  0.
        -24    2    5    5    0    0  0.75307413823E+02  0.71970765819E+01  0.19098910477E+03  0.21954487352E+03  0.77460369629E+02 0.  0.
          5    1    3    3  501    0  0.37993524123E+02  0.13308564842E+01  0.21321618963E+03  0.21662989770E+03  0.47000000000E+01 0. -1.
        -11    1    4    4    0    0 -0.87121180636E+01 -0.51250531678E+02  0.10320046041E+03  0.11555454568E+03  0.00000000000E+00 0.  1.
         12    1    4    4    0    0 -0.57606612636E+02  0.56205084843E+01  0.61004626141E+02  0.84093259811E+02  0.00000000000E+00 0. -1.
         -5    1    5    5    0  503 -0.46982207246E+02  0.37102090127E+02  0.41780968023E+02  0.73154850683E+02  0.47000000000E+01 0.  1.
         13    1    6    6    0    0  0.53274323977E+02 -0.75210081016E+01  0.42099913710E+02  0.68316336937E+02  0.00000000000E+00 0. -1.
        -14    1    6    6    0    0  0.22033089846E+02  0.14718084684E+02  0.14888919106E+03  0.15122853659E+03  0.00000000000E+00 0.  1.
</event>
<event>
12    1  0.9028446E-003  0.3200086E+03  0.7818608E-02  0.1075685E+00
         21   -1    0    0  503  502  0.00000000000E+00  0.00000000000E+00  0.50641633407E+03  0.50641633407E+03  0.00000000000E+00 0.  1.
         21   -1    0    0  501  503 -0.00000000000E+00 -0.00000000000E+00 -0.20219297402E+03  0.20219297402E+03  0.00000000000E+00 0. -1.
          6    2    1    2  501    0  0.17123942562E+03 -0.20769734624E+03  0.14119521276E+03  0.34977365147E+03  0.17304447589E+03 0.  0.
         24    2    3    3    0    0  0.39605140114E+02 -0.27821874764E+02  0.16976284040E+02  0.94557659396E+02  0.79437603764E+02 0.  0.
         -6    2    1    2    0  502 -0.17123942562E+03  0.20769734624E+03  0.16302814729E+03  0.35883565661E+03  0.17240569343E+03 0.  0.
        -24    2    5    5    0    0 -0.14376412882E+03  0.22852555834E+03  0.12534617790E+03  0.30754504178E+03  0.77331965298E+02 0.  0.
          5    1    3    3  501    0  0.13163428550E+03 -0.17987547148E+03  0.12421892872E+03  0.25521599208E+03  0.47000000000E+01 0. -1.
        -11    1    4    4    0    0  0.55871815467E+02 -0.22124630727E+02  0.35062662611E+02  0.69574056643E+02  0.00000000000E+00 0.  1.
         12    1    4    4    0    0 -0.16266675354E+02 -0.56972440374E+01 -0.18086378571E+02  0.24983602753E+02  0.00000000000E+00 0. -1.
         -5    1    5    5    0  502 -0.27475296796E+02 -0.20828212099E+02  0.37681969384E+02  0.51290614833E+02  0.47000000000E+01 0.  1.
         11    1    6    6    0    0 -0.48863999928E+02  0.22464718160E+02  0.19529876560E+02  0.57216869273E+02  0.00000000000E+00 0. -1.
        -12    1    6    6    0    0 -0.94900128894E+02  0.20606084018E+03  0.10581630134E+03  0.25032817250E+03  0.00000000000E+00 0.  1.
</event>
<event>
12    1  0.9028446E-003  0.2034835E+03  0.7818608E-02  0.1147348E+00
         21   -1    0    0  501  502  0.00000000000E+00  0.00000000000E+00  0.24530093039E+03  0.24530093039E+03  0.00000000000E+00 0. -1.
         21   -1    0    0  502  503 -0.00000000000E+00 -0.00000000000E+00 -0.18599211187E+03  0.18599211187E+03  0.00000000000E+00 0. -1.
          6    2    1    2  501    0 -0.10369595680E+03 -0.10109296468E+02  0.99190649857E+02  0.22637208385E+03  0.17478697318E+03 0.  0.
         24    2    3    3    0    0 -0.54416773645E+02  0.46017963103E+02  0.48452896598E+01  0.10594848088E+03  0.78248102773E+02 0.  0.
         -6    2    1    2    0  503  0.10369595680E+03  0.10109296468E+02 -0.39881831337E+02  0.20492095841E+03  0.17189237735E+03 0.  0.
        -24    2    5    5    0    0  0.78225477229E+02 -0.41282498351E+02 -0.72198497207E+02  0.13891854332E+03  0.79134497669E+02 0.  0.
          5    1    3    3  501    0 -0.49279183157E+02 -0.56127259571E+02  0.94345360198E+02  0.12042360296E+03  0.47000000000E+01 0. -1.
        -11    1    4    4    0    0 -0.21422660573E+02 -0.35618377584E+00 -0.31736634009E+02  0.38291920703E+02  0.00000000000E+00 0.  1.
         12    1    4    4    0    0 -0.32994113073E+02  0.46374146879E+02  0.36581923669E+02  0.67656560181E+02  0.00000000000E+00 0. -1.
         -5    1    5    5    0  503  0.25470479574E+02  0.51391794819E+02  0.32316665870E+02  0.66002415088E+02  0.47000000000E+01 0.  1.
         11    1    6    6    0    0  0.36909350899E+02  0.21891038092E+02 -0.21582734477E+02  0.48034697459E+02  0.00000000000E+00 0. -1.
        -12    1    6    6    0    0  0.41316126330E+02 -0.63173536443E+02 -0.50615762730E+02  0.90883845861E+02  0.00000000000E+00 0.  1.
</event>
<event>
12    1  0.9028446E-003  0.1800564E+03  0.7818608E-02  0.1168022E+00
         21   -1    0    0  501  502  0.00000000000E+00  0.00000000000E+00  0.14423371131E+03  0.14423371131E+03  0.00000000000E+00 0. -1.
         21   -1    0    0  502  503 -0.00000000000E+00 -0.00000000000E+00 -0.23196854205E+03  0.23196854205E+03  0.00000000000E+00 0. -1.
          6    2    1    2  501    0  0.14693182145E+02  0.50420043481E+02 -0.77862639077E+01  0.18022467507E+03  0.17222728359E+03 0.  0.
         24    2    3    3    0    0  0.25583194852E+02  0.30050896501E+02 -0.73910527662E+02  0.11002494016E+03  0.71310343694E+02 0.  0.
         -6    2    1    2    0  503 -0.14693182145E+02 -0.50420043481E+02 -0.79948566831E+02  0.19597757829E+03  0.17104785140E+03 0.  0.
        -24    2    5    5    0    0 -0.52144050940E+02 -0.82685057409E+02 -0.39546795980E+02  0.13196201936E+03  0.79336024058E+02 0.  0.
          5    1    3    3  501    0 -0.10890012707E+02  0.20369146980E+02  0.66124263755E+02  0.70199734918E+02  0.47000000000E+01 0. -1.
        -13    1    4    4    0    0 -0.21488723089E+02  0.14872025095E+02 -0.46854036855E+02  0.53649260200E+02  0.00000000000E+00 0.  1.
         14    1    4    4    0    0  0.47071917940E+02  0.15178871407E+02 -0.27056490808E+02  0.56375679957E+02  0.00000000000E+00 0. -1.
         -5    1    5    5    0  503  0.37450868795E+02  0.32265013927E+02 -0.40401770852E+02  0.64015558931E+02  0.47000000000E+01 0.  1.
         13    1    6    6    0    0  0.16374480290E+02 -0.17796864665E+02 -0.27830291497E+02  0.36869731779E+02  0.00000000000E+00 0. -1.
        -14    1    6    6    0    0 -0.68518531230E+02 -0.64888192744E+02 -0.11716504483E+02  0.95092287578E+02  0.00000000000E+00 0.  1.
</event>
<event>
12    1  0.9028446E-003  0.1813709E+03  0.7818608E-02  0.1166668E+00
         21   -1    0    0  503  502  0.00000000000E+00  0.00000000000E+00  0.13925802912E+03  0.13925802912E+03  0.00000000000E+00 0.  1.
         21   -1    0    0  501  503 -0.00000000000E+00 -0.00000000000E+00 -0.24421218024E+03  0.24421218024E+03  0.00000000000E+00 0.  1.
          6    2    1    2  501    0  0.11251708984E+02  0.56917716651E+02 -0.15564951314E+02  0.18126771101E+03  0.17102481668E+03 0.  0.
         24    2    3    3    0    0  0.31589785720E+02  0.33547992427E+02  0.52244335531E+02  0.10656850915E+03  0.80647344593E+02 0.  0.
         -6    2    1    2    0  502 -0.11251708984E+02 -0.56917716651E+02 -0.89389199810E+02  0.20220249835E+03  0.17184060600E+03 0.  0.
        -24    2    5    5    0    0 -0.53409512645E+02 -0.75860132277E+02 -0.95530360850E+02  0.15534207391E+03  0.79986088625E+02 0.  0.
          5    1    3    3  501    0 -0.20338076736E+02  0.23369724223E+02 -0.67809286845E+02  0.74699201856E+02  0.47000000000E+01 0. -1.
        -13    1    4    4    0    0  0.55539863187E+02  0.33794358760E+02  0.50919683073E+02  0.82580561945E+02  0.00000000000E+00 0.  1.
         14    1    4    4    0    0 -0.23950077467E+02 -0.24636633310E+00  0.13246524572E+01  0.23987947206E+02  0.00000000000E+00 0. -1.
         -5    1    5    5    0  502  0.42157803661E+02  0.18942415627E+02  0.61411610399E+01  0.46860424435E+02  0.47000000000E+01 0.  1.
         13    1    6    6    0    0 -0.35620676071E+02 -0.20584929877E+02  0.27033680097E+01  0.41229602234E+02  0.00000000000E+00 0. -1.
        -14    1    6    6    0    0 -0.17788836574E+02 -0.55275202400E+02 -0.98233728860E+02  0.11411247168E+03  0.00000000000E+00 0.  1.
</event>
<event>
12    1  0.9028446E-003  0.1733156E+03  0.7818608E-02  0.1174511E+00
         21   -1    0    0  503  502  0.00000000000E+00  0.00000000000E+00  0.90150032272E+03  0.90150032272E+03  0.00000000000E+00 0. -1.
         21   -1    0    0  501  503 -0.00000000000E+00 -0.00000000000E+00 -0.33331326123E+02  0.33331326123E+02  0.00000000000E+00 0. -1.
          6    2    1    2  501    0 -0.16119113142E+02  0.29021929668E+01  0.41243458424E+03  0.44725382286E+03  0.17223660253E+03 0.  0.
         24    2    3    3    0    0 -0.38974806227E+01 -0.64581055423E+02  0.27449992432E+03  0.29313887381E+03  0.79964290829E+02 0.  0.
         -6    2    1    2    0  502  0.16119113142E+02 -0.29021929668E+01  0.45573441235E+03  0.48757782598E+03  0.17253994684E+03 0.  0.
        -24    2    5    5    0    0  0.17341147820E+02 -0.67661639765E+02  0.31815524791E+03  0.33544171650E+03  0.80122222231E+02 0.  0.
          5    1    3    3  501    0 -0.12221632519E+02  0.67483248390E+02  0.13793465992E+03  0.15411494906E+03  0.47000000000E+01 0. -1.
        -11    1    4    4    0    0  0.29739026420E+02  0.31312686886E+00  0.76439562934E+02  0.82021427215E+02  0.00000000000E+00 0.  1.
         12    1    4    4    0    0 -0.33636507042E+02 -0.64894182292E+02  0.19806036139E+03  0.21111744659E+03  0.00000000000E+00 0. -1.
         -5    1    5    5    0  502 -0.12220346779E+01  0.64759446798E+02  0.13757916444E+03  0.15213610948E+03  0.47000000000E+01 0.  1.
         13    1    6    6    0    0  0.25701202711E+02 -0.19610868120E+02  0.33189389596E+02  0.46332208570E+02  0.00000000000E+00 0. -1.
        -14    1    6    6    0    0 -0.83600548911E+01 -0.48050771645E+02  0.28496585831E+03  0.28910950793E+03  0.00000000000E+00 0.  1.
</event>
<event>
12    1  0.9028446E-003  0.1878622E+03  0.7818608E-02  0.1160459E+00
         21   -1    0    0  501  502  0.00000000000E+00  0.00000000000E+00  0.20636188787E+03  0.20636188787E+03  0.00000000000E+00 0.  1.
         21   -1    0    0  502  503 -0.00000000000E+00 -0.00000000000E+00 -0.19774607803E+03  0.19774607803E+03  0.00000000000E+00 0.  1.
          6    2    1    2  501    0  0.65476017548E+02  0.38383681073E+02  0.78891744053E+02  0.20353150831E+03  0.17158307535E+03 0.  0.
         24    2    3    3    0    0  0.52247012668E+02 -0.38255153079E+02  0.22992527291E+02  0.10763922548E+03  0.82851309475E+02 0.  0.
         -6    2    1    2    0  503 -0.65476017548E+02 -0.38383681073E+02 -0.70275934215E+02  0.20057645758E+03  0.17184816717E+03 0.  0.
        -24    2    5    5    0    0 -0.64912913460E+02 -0.89468341973E+02 -0.46707914173E+02  0.14411849770E+03  0.79813793194E+02 0.  0.
          5    1    3    3  501    0  0.13229004879E+02  0.76638834153E+02  0.55899216762E+02  0.95892282823E+02  0.47000000000E+01 0. -1.
        -11    1    4    4    0    0  0.63052520222E+02 -0.11862512648E+02  0.38853678878E+02  0.75006318901E+02  0.00000000000E+00 0.  1.
         12    1    4    4    0    0 -0.10805507554E+02 -0.26392640431E+02 -0.15861151587E+02  0.32632906583E+02  0.00000000000E+00 0. -1.
         -5    1    5    5    0  503 -0.56310408775E+00  0.51084660900E+02 -0.23568020042E+02  0.56457959883E+02  0.47000000000E+01 0.  1.
         11    1    6    6    0    0  0.11328337005E+02 -0.82456394925E+00  0.91071925441E+01  0.14558574142E+02  0.00000000000E+00 0. -1.
        -12    1    6    6    0    0 -0.76241250465E+02 -0.88643778024E+02 -0.55815106717E+02  0.12955992356E+03  0.00000000000E+00 0.  1.
</event>
<event>
12    1  0.9028446E-003  0.2536647E+03  0.7818608E-02  0.1111849E+00
         21   -1    0    0  501  502  0.00000000000E+00  0.00000000000E+00  0.69425412200E+03  0.69425412200E+03  0.00000000000E+00 0.  1.
         21   -1    0    0  502  503 -0.00000000000E+00 -0.00000000000E+00 -0.92154589229E+02  0.92154589229E+02  0.00000000000E+00 0.  1.
          6    2    1    2  501    0 -0.17994082280E+03 -0.47664833315E+02  0.25550757977E+03  0.36004152252E+03  0.17232277439E+03 0.  0.
         24    2    3    3    0    0 -0.13325544244E+03 -0.42747915541E+01  0.83984719630E+02  0.17699944535E+03  0.80623096814E+02 0.  0.
         -6    2    1    2    0  503  0.17994082280E+03  0.47664833315E+02  0.34659195300E+03  0.42636718871E+03  0.16435437834E+03 0.  0.
        -24    2    5    5    0    0  0.36303273352E+02  0.18764082456E+01  0.74677792701E+02  0.11542068840E+03  0.80148075616E+02 0.  0.
          5    1    3    3  501    0 -0.46685380361E+02 -0.43390041761E+02  0.17152286014E+03  0.18304207717E+03  0.47000000000E+01 0. -1.
        -13    1    4    4    0    0 -0.99659815288E+02 -0.36885379287E+02  0.72950306848E+02  0.12889669219E+03  0.00000000000E+00 0.  1.
         14    1    4    4    0    0 -0.33595627151E+02  0.32610587732E+02  0.11034412781E+02  0.48102753157E+02  0.00000000000E+00 0. -1.
         -5    1    5    5    0  503  0.14363754945E+03  0.45788425069E+02  0.27191416030E+03  0.31094650030E+03  0.47000000000E+01 0.  1.
         13    1    6    6    0    0  0.55994186738E+02  0.19742018836E+02  0.39443341133E+02  0.71280245622E+02  0.00000000000E+00 0. -1.
        -14    1    6    6    0    0 -0.19690913386E+02 -0.17865610590E+02  0.35234451568E+02  0.44140442782E+02  0.00000000000E+00 0.  1.
</event>
<event>
12    1  0.9028446E-003  0.1982989E+03  0.7818608E-02  0.1151426E+00
         21   -1    0    0  503  502  0.00000000000E+00  0.00000000000E+00  0.41204015489E+03  0.41204015489E+03  0.00000000000E+00 0. -1.
         21   -1    0    0  501  503 -0.00000000000E+00 -0.00000000000E+00 -0.95792450728E+02  0.95792450728E+02  0.00000000000E+00 0. -1.
          6    2    1    2  501    0  0.88262057722E+02 -0.47155848031E+02  0.13297256266E+03  0.23780997294E+03  0.16987647269E+03 0.  0.
         24    2    3    3    0    0  0.33013675954E+02 -0.88395129064E+02  0.61690472691E+02  0.13853113160E+03  0.80508126044E+02 0.  0.
         -6    2    1    2    0  502 -0.88262057722E+02  0.47155848031E+02  0.18327514151E+03  0.27002263268E+03  0.17119748780E+03 0.  0.
        -24    2    5    5    0    0 -0.51581124446E+01  0.76463321909E+02  0.11092977150E+03  0.15591243897E+03  0.78294499811E+02 0.  0.
          5    1    3    3  501    0  0.55248381768E+02  0.41239281033E+02  0.71282089966E+02  0.99278841341E+02  0.47000000000E+01 0. -1.
        -13    1    4    4    0    0  0.30054616066E+02 -0.72819978793E+02  0.81372192730E+02  0.11325839045E+03  0.00000000000E+00 0.  1.
         14    1    4    4    0    0  0.29590598888E+01 -0.15575150271E+02 -0.19681720039E+02  0.25272741147E+02  0.00000000000E+00 0. -1.
         -5    1    5    5    0  502 -0.83103945277E+02 -0.29307473878E+02  0.72345370011E+02  0.11411019371E+03  0.47000000000E+01 0. -1.
         11    1    6    6    0    0 -0.53542931227E+01  0.89985217903E+02  0.74142012813E+02  0.11671780481E+03  0.00000000000E+00 0. -1.
        -12    1    6    6    0    0  0.19618067812E+00 -0.13521895993E+02  0.36787758685E+02  0.39194634163E+02  0.00000000000E+00 0.  1.
</event>
<event>
12    1  0.9028446E-003  0.2535827E+03  0.7818608E-02  0.1111192E+00
         21   -1    0    0  501  502  0.00000000000E+00  0.00000000000E+00  0.15771642128E+03  0.15771642128E+03  0.00000000000E+00 0.  1.
         21   -1    0    0  502  503 -0.00000000000E+00 -0.00000000000E+00 -0.40665797643E+03  0.40665797643E+03  0.00000000000E+00 0. -1.
          6    2    1    2  501    0  0.13623423107E+03  0.12562006080E+03 -0.11710913344E+03  0.27931834516E+03  0.17310119416E+03 0.  0.
         24    2    3    3    0    0  0.70969041748E+01  0.13354055148E+02 -0.43908292399E+02  0.93144882096E+02  0.80742393336E+02 0.  0.
         -6    2    1    2    0  503 -0.13623423107E+03 -0.12562006080E+03 -0.13183242171E+03  0.28505605255E+03  0.17186331863E+03 0.  0.
        -24    2    5    5    0    0 -0.12907235504E+03 -0.14850271840E+03 -0.78726272260E+02  0.22659870402E+03  0.80227280364E+02 0.  0.
          5    1    3    3  501    0  0.12913732689E+03  0.11226600565E+03 -0.73200841043E+02  0.18617346307E+03  0.47000000000E+01 0. -1.
        -13    1    4    4    0    0  0.31263601725E+02 -0.19057845035E+02 -0.48574592177E+01  0.36935202182E+02  0.00000000000E+00 0.  1.
         14    1    4    4    0    0 -0.24166697550E+02  0.32411900183E+02 -0.39050833181E+02  0.56209679914E+02  0.00000000000E+00 0. -1.
         -5    1    5    5    0  503 -0.71618760269E+01  0.22882657599E+02 -0.53106149451E+02  0.58457348524E+02  0.47000000000E+01 0.  1.
         11    1    6    6    0    0  0.88085968531E+01 -0.27428670473E+02 -0.13935264487E+02  0.32001795868E+02  0.00000000000E+00 0. -1.
        -12    1    6    6    0    0 -0.13788095189E+03 -0.12107404792E+03 -0.64791007773E+02  0.19459690816E+03  0.00000000000E+00 0.  1.
</event>
<event>
12    1  0.9028446E-003  0.1840156E+03  0.7818608E-02  0.1166303E+00
         21   -1    0    0  501  502  0.00000000000E+00  0.00000000000E+00  0.19171134246E+03  0.19171134246E+03  0.00000000000E+00 0.  1.
         21   -1    0    0  502  503 -0.00000000000E+00 -0.00000000000E+00 -0.18906594604E+03  0.18906594604E+03  0.00000000000E+00 0.  1.
          6    2    1    2  501    0 -0.19966831728E+02  0.26956114316E+02  0.65628172498E+02  0.19536833386E+03  0.18093209329E+03 0.  0.
         24    2    3    3    0    0 -0.81704002098E+02  0.13802410055E+02  0.17069607105E+02  0.11559037692E+03  0.78763654481E+02 0.  0.
         -6    2    1    2    0  503  0.19966831728E+02 -0.26956114316E+02 -0.62982776073E+02  0.18540895463E+03  0.17112668964E+03 0.  0.
        -24    2    5    5    0    0  0.57423760888E+02 -0.42479655863E+02 -0.86688698153E+02  0.13820659637E+03  0.80524054889E+02 0.  0.
          5    1    3    3  501    0  0.61737170370E+02  0.13153704260E+02  0.48558565392E+02  0.79777956943E+02  0.47000000000E+01 0. -1.
        -11    1    4    4    0    0 -0.68288802281E+02  0.43562409481E+02  0.17822247299E+02  0.82937787139E+02  0.00000000000E+00 0.  1.
         12    1    4    4    0    0 -0.13415199817E+02 -0.29759999426E+02 -0.75264019379E+00  0.32652589778E+02  0.00000000000E+00 0. -1.
         -5    1    5    5    0  503 -0.37456929160E+02  0.15523541547E+02  0.23705922079E+02  0.47202358266E+02  0.47000000000E+01 0.  1.
         11    1    6    6    0    0  0.22205335277E+02 -0.47659500049E+02 -0.98092278450E+01  0.53485753343E+02  0.00000000000E+00 0. -1.
        -12    1    6    6    0    0  0.35218425611E+02  0.51798441867E+01 -0.76879470308E+02  0.84720843026E+02  0.00000000000E+00 0.  1.
</event>
<event>
12    1  0.9028446E-003  0.1761160E+03  0.7818608E-02  0.1171732E+00
         21   -1    0    0  503  502  0.00000000000E+00  0.00000000000E+00  0.20244846858E+03  0.20244846858E+03  0.00000000000E+00 0. -1.
         21   -1    0    0  501  503 -0.00000000000E+00 -0.00000000000E+00 -0.15456340595E+03  0.15456340595E+03  0.00000000000E+00 0. -1.
          6    2    1    2  501    0 -0.13944161199E+01  0.43519704744E+02  0.49328723993E+01  0.17618502087E+03  0.17064852549E+03 0.  0.
         24    2    3    3    0    0  0.38537489902E+02  0.66914301586E+02  0.39395110264E+02  0.11829201509E+03  0.80488286328E+02 0.  0.
         -6    2    1    2    0  502  0.13944161199E+01 -0.43519704744E+02  0.42952190222E+02  0.18082685366E+03  0.17016918423E+03 0.  0.
        -24    2    5    5    0    0 -0.47320513972E+02 -0.73260784034E+02  0.24042547414E+02  0.12051648306E+03  0.79622892952E+02 0.  0.
          5    1    3    3  501    0 -0.39931906022E+02 -0.23394596842E+02 -0.34462237865E+02  0.57893005783E+02  0.47000000000E+01 0. -1.
        -13    1    4    4    0    0  0.12689727614E+01  0.14466187102E+02  0.50899681264E+02  0.52930694441E+02  0.00000000000E+00 0.  1.
         14    1    4    4    0    0  0.37268517141E+02  0.52448114484E+02 -0.11504571000E+02  0.65361320647E+02  0.00000000000E+00 0. -1.
         -5    1    5    5    0  502  0.48714930092E+02  0.29741079289E+02  0.18909642809E+02  0.60310370604E+02  0.47000000000E+01 0.  1.
         11    1    6    6    0    0 -0.34783749338E+02 -0.53196994963E+02  0.53257925738E+02  0.82923073659E+02  0.00000000000E+00 0. -1.
        -12    1    6    6    0    0 -0.12536764634E+02 -0.20063789071E+02 -0.29215378325E+02  0.37593409396E+02  0.00000000000E+00 0.  1.
</event>
<event>
12    1  0.9028446E-003  0.1773021E+03  0.7818608E-02  0.1170923E+00
         21   -1    0    0  503  502  0.00000000000E+00  0.00000000000E+00  0.20028807793E+03  0.20028807793E+03  0.00000000000E+00 0. -1.
         21   -1    0    0  501  503 -0.00000000000E+00 -0.00000000000E+00 -0.20331713716E+03  0.20331713716E+03  0.00000000000E+00 0. -1.
          6    2    1    2  501    0  0.31031823583E+02  0.27020962073E+02  0.96613611130E+02  0.20191642012E+03  0.17246142871E+03 0.  0.
         24    2    3    3    0    0  0.74285492064E+02  0.33219539082E+02  0.24643486736E+02  0.11758913510E+03  0.81228265686E+02 0.  0.
         -6    2    1    2    0  502 -0.31031823583E+02 -0.27020962073E+02 -0.99642670363E+02  0.20168879496E+03  0.17045997123E+03 0.  0.
        -24    2    5    5    0    0 -0.37892156337E+02 -0.80278995344E+02 -0.88304225850E+02  0.14660583392E+03  0.76256813672E+02 0.  0.
          5    1    3    3  501    0 -0.43253668481E+02 -0.61985770094E+01  0.71970124395E+02  0.84327285023E+02  0.47000000000E+01 0. -1.
        -11    1    4    4    0    0  0.16348742514E+02  0.49948170528E+02  0.29754941789E+00  0.52556537714E+02  0.00000000000E+00 0.  1.
         12    1    4    4    0    0  0.57936749550E+02 -0.16728631446E+02  0.24345937318E+02  0.65032597383E+02  0.00000000000E+00 0. -1.
         -5    1    5    5    0  502  0.68603327543E+01  0.53258033271E+02 -0.11338444514E+02  0.55082961044E+02  0.47000000000E+01 0.  1.
         13    1    6    6    0    0 -0.19318948560E+02 -0.73335647778E+02 -0.24354027900E+02  0.79652104074E+02  0.00000000000E+00 0. -1.
        -14    1    6    6    0    0 -0.18573207777E+02 -0.69433475654E+01 -0.63950197949E+02  0.66953729846E+02  0.00000000000E+00 0.  1.
</event>
<event>
12    1  0.9028446E-003  0.1946293E+03  0.7818608E-02  0.1154515E+00
         21   -1    0    0  501  502  0.00000000000E+00  0.00000000000E+00  0.26087362932E+03  0.26087362932E+03  0.00000000000E+00 0. -1.
         21   -1    0    0  502  503 -0.00000000000E+00 -0.00000000000E+00 -0.15739956964E+03  0.15739956964E+03  0.00000000000E+00 0. -1.
          6    2    1    2  501    0 -0.52575610724E+02 -0.73851595909E+02 -0.76958341277E+01  0.19478137389E+03  0.17222747948E+03 0.  0.
         24    2    3    3    0    0 -0.90239912207E+02 -0.91487118984E+02 -0.10833497959E+02  0.15281059578E+03  0.81979136432E+02 0.  0.
         -6    2    1    2    0  503  0.52575610724E+02  0.73851595909E+02  0.11116989381E+03  0.22349182507E+03  0.17138143867E+03 0.  0.
        -24    2    5    5    0    0  0.74139326930E+02  0.80222910682E+01  0.10773955552E+03  0.15397672992E+03  0.80870418463E+02 0.  0.
          5    1    3    3  501    0  0.37664301482E+02  0.17635523076E+02  0.31376638313E+01  0.41970778103E+02  0.47000000000E+01 0. -1.
        -13    1    4    4    0    0  0.12925528452E+02 -0.12642049025E+02  0.10970181549E+02  0.21147944877E+02  0.00000000000E+00 0.  1.
         14    1    4    4    0    0 -0.10316544066E+03 -0.78845069959E+02 -0.21803679508E+02  0.13166265090E+03  0.00000000000E+00 0. -1.
         -5    1    5    5    0  503 -0.21563716206E+02  0.65829304840E+02  0.34303382923E+01  0.69515095146E+02  0.47000000000E+01 0.  1.
         11    1    6    6    0    0  0.33269263312E+02  0.44146881072E+02  0.58614092109E+02  0.80569242168E+02  0.00000000000E+00 0. -1.
        -12    1    6    6    0    0  0.40870063619E+02 -0.36124590004E+02  0.49125463410E+02  0.73407487754E+02  0.00000000000E+00 0.  1.
</event>
<event>
12    1  0.9028446E-003  0.2333248E+03  0.7818608E-02  0.1125046E+00
         21   -1    0    0  501  502  0.00000000000E+00  0.00000000000E+00  0.25994792590E+03  0.25994792590E+03  0.00000000000E+00 0.  1.
         21   -1    0    0  502  503 -0.00000000000E+00 -0.00000000000E+00 -0.33501379608E+03  0.33501379608E+03  0.00000000000E+00 0. -1.
          6    2    1    2  501    0  0.90967870649E+02 -0.12771547974E+03  0.14706645160E+03  0.27580610234E+03  0.17278329678E+03 0.  0.
         24    2    3    3    0    0  0.71892072053E+02 -0.10247836449E+03  0.27330394133E+02  0.15187220247E+03  0.81534840571E+02 0.  0.
         -6    2    1    2    0  503 -0.90967870649E+02  0.12771547974E+03 -0.22213232179E+03  0.31915561965E+03  0.16712613175E+03 0.  0.
        -24    2    5    5    0    0 -0.75955668056E+02  0.12039272333E+02 -0.12553489429E+03  0.16763168033E+03  0.80169588859E+02 0.  0.
          5    1    3    3  501    0  0.19075798596E+02 -0.25237115247E+02  0.11973605747E+03  0.12393389987E+03  0.47000000000E+01 0. -1.
        -13    1    4    4    0    0  0.34802275153E+02 -0.35429789384E+01  0.30140345013E+02  0.46175658665E+02  0.00000000000E+00 0.  1.
         14    1    4    4    0    0  0.37089796900E+02 -0.98935385555E+02 -0.28099508797E+01  0.10569654381E+03  0.00000000000E+00 0. -1.
         -5    1    5    5    0  503 -0.15012202593E+02  0.11567620741E+03 -0.96597427500E+02  0.15152393932E+03  0.47000000000E+01 0.  1.
         11    1    6    6    0    0 -0.66682567825E+02  0.42320697145E+02 -0.96161945742E+02  0.12443763927E+03  0.00000000000E+00 0. -1.
        -12    1    6    6    0    0 -0.92731002303E+01 -0.30281424812E+02 -0.29372948544E+02  0.43194041056E+02  0.00000000000E+00 0.  1.
</event>
<event>
12    1  0.9028446E-003  0.2418000E+03  0.7818608E-02  0.1118726E+00
         21   -1    0    0  501  502  0.00000000000E+00  0.00000000000E+00  0.30451336309E+02  0.30451336309E+02  0.00000000000E+00 0.  1.
         21   -1    0    0  502  503 -0.00000000000E+00 -0.00000000000E+00 -0.19152378920E+04  0.19152378920E+04  0.00000000000E+00 0. -1.
          6    2    1    2  501    0 -0.11976352531E+03 -0.12073217478E+03 -0.91565839040E+03  0.94685159212E+03  0.17081595232E+03 0.  0.
         24    2    3    3    0    0 -0.80906550316E+02 -0.29763125723E+02 -0.28505390071E+03  0.30851833683E+03  0.80598537911E+02 0.  0.
         -6    2    1    2    0  503  0.11976352531E+03  0.12073217478E+03 -0.96912816529E+03  0.99883763618E+03  0.17189433582E+03 0.  0.
        -24    2    5    5    0    0  0.54957153147E+02  0.42361987982E+02 -0.74720977461E+03  0.75468273828E+03  0.80054740482E+02 0.  0.
          5    1    3    3  501    0 -0.38856974994E+02 -0.90969049058E+02 -0.63060448969E+03  0.63833325529E+03  0.47000000000E+01 0. -1.
        -13    1    4    4    0    0 -0.31684886730E+02  0.27672574525E+02 -0.91426828829E+02  0.10064078923E+03  0.00000000000E+00 0.  1.
         14    1    4    4    0    0 -0.49221663586E+02 -0.57435700248E+02 -0.19362707188E+03  0.20787754760E+03  0.00000000000E+00 0. -1.
         -5    1    5    5    0  503  0.64806372163E+02  0.78370186799E+02 -0.22191839068E+03  0.24415489791E+03  0.47000000000E+01 0.  1.
         13    1    6    6    0    0  0.75963758233E+02  0.33554551272E+02 -0.60057934833E+03  0.60629362039E+03  0.00000000000E+00 0. -1.
        -14    1    6    6    0    0 -0.21006605086E+02  0.88074367102E+01 -0.14663042627E+03  0.14838911789E+03  0.00000000000E+00 0.  1.
</event>
<event>
12    1  0.9028446E-003  0.1788483E+03  0.7818608E-02  0.1169032E+00
         21   -1    0    0  503  502  0.00000000000E+00  0.00000000000E+00  0.57084122216E+02  0.57084122216E+02  0.00000000000E+00 0. -1.
         21   -1    0    0  501  503 -0.00000000000E+00 -0.00000000000E+00 -0.61987363631E+03  0.61987363631E+03  0.00000000000E+00 0. -1.
          6    2    1    2  501    0 -0.22829976472E+02 -0.45435480504E+02 -0.17494951109E+03  0.24986691826E+03  0.17099869794E+03 0.  0.
         24    2    3    3    0    0 -0.25862434281E+02  0.14565918150E+02 -0.16875341354E+03  0.18928767045E+03  0.80442999230E+02 0.  0.
         -6    2    1    2    0  502  0.22829976472E+02  0.45435480504E+02 -0.38784000300E+03  0.42709084026E+03  0.17146756893E+03 0.  0.
        -24    2    5    5    0    0  0.66861962790E+02  0.71006767340E+02 -0.30357328886E+03  0.32852271336E+03  0.79107195672E+02 0.  0.
          5    1    3    3  501    0  0.30324578091E+01 -0.60001398654E+02 -0.61960975572E+01  0.60579247814E+02  0.47000000000E+01 0. -1.
        -11    1    4    4    0    0  0.24996144544E+02 -0.63638129192E+01 -0.87108685348E+02  0.90847280752E+02  0.00000000000E+00 0.  1.
         12    1    4    4    0    0 -0.50858578825E+02  0.20929731069E+02 -0.81644728189E+02  0.98440389698E+02  0.00000000000E+00 0. -1.
         -5    1    5    5    0  502 -0.44031986318E+02 -0.25571286836E+02 -0.84266714138E+02  0.98568126903E+02  0.47000000000E+01 0.  1.
         13    1    6    6    0    0  0.20492920347E+02  0.76175745591E+02 -0.19473432233E+03  0.21010511725E+03  0.00000000000E+00 0. -1.
        -14    1    6    6    0    0  0.46369042443E+02 -0.51689782505E+01 -0.10883896652E+03  0.11841759610E+03  0.00000000000E+00 0.  1.
</event>
<event>
12    1  0.9028446E-003  0.2014656E+03  0.7818608E-02  0.1148620E+00
         21   -1    0    0  503  502  0.00000000000E+00  0.00000000000E+00  0.37415080809E+03  0.37415080809E+03  0.00000000000E+00 0. -1.
         21   -1    0    0  501  503 -0.00000000000E+00 -0.00000000000E+00 -0.12753076302E+03  0.12753076302E+03  0.00000000000E+00 0. -1.
          6    2    1    2  501    0  0.41197352496E+02  0.96648788785E+02  0.25500096266E+02  0.20254541730E+03  0.17127808071E+03 0.  0.
         24    2    3    3    0    0 -0.11694191108E+02  0.10182262909E+02  0.52922673817E+02  0.97435649715E+02  0.80327229803E+02 0.  0.
         -6    2    1    2    0  502 -0.41197352496E+02 -0.96648788785E+02  0.22111994880E+03  0.29913615381E+03  0.17190170603E+03 0.  0.
        -24    2    5    5    0    0 -0.25257215593E+02 -0.42627244609E+02  0.22987735915E+02  0.93100042946E+02  0.75393455098E+02 0.  0.
          5    1    3    3  501    0  0.52891543605E+02  0.86466525877E+02 -0.27422577551E+02  0.10510976758E+03  0.47000000000E+01 0. -1.
        -11    1    4    4    0    0  0.25207501185E+02  0.12649378227E+02 -0.50682623464E+01  0.28655054855E+02  0.00000000000E+00 0.  1.
         12    1    4    4    0    0 -0.36901692294E+02 -0.24671153179E+01  0.57990936164E+02  0.68780594860E+02  0.00000000000E+00 0. -1.
         -5    1    5    5    0  502 -0.15940136903E+02 -0.54021544177E+02  0.19813221288E+03  0.20603611087E+03  0.47000000000E+01 0.  1.
         13    1    6    6    0    0 -0.24050596564E+02 -0.43441869725E+02  0.47398564675E+02  0.68645838720E+02  0.00000000000E+00 0. -1.
        -14    1    6    6    0    0 -0.12066190294E+01  0.81462511620E+00 -0.24410828760E+02  0.24454204226E+02  0.00000000000E+00 0.  1.
</event>
<event>
12    1  0.9028446E-003  0.1786627E+03  0.7818608E-02  0.1169666E+00
         21   -1    0    0  501  502  0.00000000000E+00  0.00000000000E+00  0.31061813886E+03  0.31061813886E+03  0.00000000000E+00 0. -1.
         21   -1    0    0  502  503 -0.00000000000E+00 -0.00000000000E+00 -0.10311471313E+03  0.10311471313E+03  0.00000000000E+00 0. -1.
          6    2    1    2  501    0 -0.63328842007E+01 -0.46056577961E+02  0.12936025703E+03  0.21872847013E+03  0.17013745547E+03 0.  0.
         24    2    3    3    0    0  0.42056518933E+02 -0.23937361101E+02  0.17706277629E+02  0.94956521754E+02  0.79758891134E+02 0.  0.
         -6    2    1    2    0  503  0.63328842007E+01  0.46056577961E+02  0.78143168703E+02  0.19500438185E+03  0.17250808772E+03 0.  0.
        -24    2    5    5    0    0 -0.96448418000E+01 -0.33319041105E+02  0.47960844781E+02  0.10846630175E+03  0.90892873810E+02 0.  0.
          5    1    3    3  501    0 -0.48389403134E+02 -0.22119216860E+02  0.11165397940E+03  0.12377194838E+03  0.47000000000E+01 0. -1.
        -13    1    4    4    0    0  0.10665908513E+02  0.14512728514E+02  0.37435590101E+02  0.41542800815E+02  0.00000000000E+00 0.  1.
         14    1    4    4    0    0  0.31390610420E+02 -0.38450089616E+02 -0.19729312472E+02  0.53413720940E+02  0.00000000000E+00 0. -1.
         -5    1    5    5    0  503  0.15977726001E+02  0.79375619067E+02  0.30182323922E+02  0.86538080102E+02  0.47000000000E+01 0.  1.
         13    1    6    6    0    0 -0.61819939009E+01 -0.30069216027E+02  0.74986356369E+02  0.81026714376E+02  0.00000000000E+00 0. -1.
        -14    1    6    6    0    0 -0.34628478991E+01 -0.32498250782E+01 -0.27025511588E+02  0.27439587373E+02  0.00000000000E+00 0.  1.
</event>
<event>
12    1  0.9028446E-003  0.2098417E+03  0.7818608E-02  0.1142100E+00
         21   -1    0    0  501  502  0.00000000000E+00  0.00000000000E+00  0.13991131288E+03  0.13991131288E+03  0.00000000000E+00 0. -1.
         21   -1    0    0  502  503 -0.00000000000E+00 -0.00000000000E+00 -0.31246429128E+03  0.31246429128E+03  0.00000000000E+00 0. -1.
          6    2    1    2  501    0 -0.11236242906E+03  0.41811068907E+02 -0.97351997348E+02  0.22946596062E+03  0.16971663073E+03 0.  0.
         24    2    3    3    0    0 -0.85386690189E+02 -0.24437417866E+02 -0.10317204471E+03  0.15754575873E+03  0.79297673561E+02 0.  0.
         -6    2    1    2    0  503  0.11236242906E+03 -0.41811068907E+02 -0.75200981053E+02  0.22290964354E+03  0.17222090664E+03 0.  0.
        -24    2    5    5    0    0  0.13651072873E+03  0.33798661025E+01 -0.62829026128E+02  0.16998973941E+03  0.79387797735E+02 0.  0.
          5    1    3    3  501    0 -0.26975738867E+02  0.66248486774E+02  0.58200473624E+01  0.71920201881E+02  0.47000000000E+01 0. -1.
        -11    1    4    4    0    0 -0.32158842688E+02 -0.37914917656E+02 -0.87174721830E+02  0.10035519055E+03  0.00000000000E+00 0.  1.
         12    1    4    4    0    0 -0.53227847501E+02  0.13477499789E+02 -0.15997322880E+02  0.57190568186E+02  0.00000000000E+00 0. -1.
         -5    1    5    5    0  503 -0.24148299672E+02 -0.45190935010E+02 -0.12371954925E+02  0.52919904127E+02  0.47000000000E+01 0.  1.
         11    1    6    6    0    0  0.24105312950E+02 -0.17264036797E+02 -0.45630647217E+02  0.54417543535E+02  0.00000000000E+00 0. -1.
        -12    1    6    6    0    0  0.11240541578E+03  0.20643902900E+02 -0.17198378911E+02  0.11557219588E+03  0.00000000000E+00 0.  1.
</event>
<event>
12    1  0.9028446E-003  0.1799815E+03  0.7818608E-02  0.1167964E+00
         21   -1    0    0  503  502  0.00000000000E+00  0.00000000000E+00  0.22538108425E+03  0.22538108425E+03  0.00000000000E+00 0. -1.
         21   -1    0    0  501  503 -0.00000000000E+00 -0.00000000000E+00 -0.14328684025E+03  0.14328684025E+03  0.00000000000E+00 0. -1.
          6    2    1    2  501    0 -0.43253676156E+02  0.28044843794E+02  0.38376241865E+02  0.18402739001E+03  0.17244115104E+03 0.  0.
         24    2    3    3    0    0  0.15669012427E+02 -0.18639525659E+02  0.61426459802E+02  0.10525736952E+03  0.81932618703E+02 0.  0.
         -6    2    1    2    0  502  0.43253676156E+02 -0.28044843794E+02  0.43718002129E+02  0.18464053448E+03  0.17182394915E+03 0.  0.
        -24    2    5    5    0    0 -0.42616012591E+02 -0.18512254750E+02  0.19888539989E+02  0.94894186563E+02  0.80315157445E+02 0.  0.
          5    1    3    3  501    0 -0.58922688583E+02  0.46684369453E+02 -0.23050217936E+02  0.78770020490E+02  0.47000000000E+01 0. -1.
        -11    1    4    4    0    0 -0.31431816169E+02 -0.15440011832E+02  0.12280644043E+02  0.37110204138E+02  0.00000000000E+00 0.  1.
         12    1    4    4    0    0  0.47100828597E+02 -0.31995138274E+01  0.49145815759E+02  0.68147165384E+02  0.00000000000E+00 0. -1.
         -5    1    5    5    0  502  0.85869688747E+02 -0.95325890432E+01  0.23829462140E+02  0.89746347921E+02  0.47000000000E+01 0.  1.
         13    1    6    6    0    0 -0.42175047809E+02 -0.56218888427E+01  0.47892516543E+02  0.64062730450E+02  0.00000000000E+00 0. -1.
        -14    1    6    6    0    0 -0.44096478246E+00 -0.12890365908E+02 -0.28003976555E+02  0.30831456113E+02  0.00000000000E+00 0.  1.
</event>
<event>
12    1  0.9028446E-003  0.2183872E+03  0.7818608E-02  0.1135878E+00
         21   -1    0    0  501  502  0.00000000000E+00  0.00000000000E+00  0.17927229147E+03  0.17927229147E+03  0.00000000000E+00 0. -1.
         21   -1    0    0  502  503 -0.00000000000E+00 -0.00000000000E+00 -0.30213437683E+03  0.30213437683E+03  0.00000000000E+00 0. -1.
          6    2    1    2  501    0 -0.71864820578E+02  0.10619023565E+03 -0.15073103982E+03  0.26535412341E+03  0.17678248178E+03 0.  0.
         24    2    3    3    0    0 -0.33925460040E+01  0.11728601767E+03 -0.13235172041E+03  0.19344127236E+03  0.78326423708E+02 0.  0.
         -6    2    1    2    0  503  0.71864820578E+02 -0.10619023565E+03  0.27868954456E+02  0.21605254489E+03  0.17164237515E+03 0.  0.
        -24    2    5    5    0    0  0.77927772645E+02 -0.10031822688E+03  0.75364462441E+02  0.16758448166E+03  0.79172418807E+02 0.  0.
          5    1    3    3  501    0 -0.68472274575E+02 -0.11095782020E+02 -0.18379319409E+02  0.71912851049E+02  0.47000000000E+01 0. -1.
        -11    1    4    4    0    0 -0.15311800849E+02  0.10331853600E+02 -0.62428179848E+02  0.65103579650E+02  0.00000000000E+00 0.  1.
         12    1    4    4    0    0  0.11919254845E+02  0.10695416407E+03 -0.69923540558E+02  0.12833769271E+03  0.00000000000E+00 0. -1.
         -5    1    5    5    0  503 -0.60629520660E+01 -0.58720087703E+01 -0.47495507986E+02  0.48468063233E+02  0.47000000000E+01 0.  1.
         11    1    6    6    0    0  0.30902008931E+02 -0.36650537898E+02 -0.12281674071E+02  0.49487731835E+02  0.00000000000E+00 0. -1.
        -12    1    6    6    0    0  0.47025763713E+02 -0.63667688977E+02  0.87646136512E+02  0.11809674982E+03  0.00000000000E+00 0.  1.
</event>
<event>
12    1  0.9028446E-003  0.3260130E+03  0.7818608E-02  0.1072957E+00
         21   -1    0    0  501  502  0.00000000000E+00  0.00000000000E+00  0.12555161431E+04  0.12555161431E+04  0.00000000000E+00 0.  1.
         21   -1    0    0  502  503 -0.00000000000E+00 -0.00000000000E+00 -0.94544770121E+02  0.94544770121E+02  0.00000000000E+00 0. -1.
          6    2    1    2  501    0  0.26208018659E+03  0.84386973709E+02  0.80018879369E+03  0.86405240818E+03  0.17457741261E+03 0.  0.
         24    2    3    3    0    0  0.19837621915E+03  0.28412954605E+02  0.69980509981E+03  0.73255996627E+03  0.82197969203E+02 0.  0.
         -6    2    1    2    0  503 -0.26208018659E+03 -0.84386973709E+02  0.36078257930E+03  0.48600850505E+03  0.17387642716E+03 0.  0.
        -24    2    5    5    0    0 -0.10452542344E+03 -0.31533530070E+02  0.74703161962E+02  0.15513010908E+03  0.81023827809E+02 0.  0.
          5    1    3    3  501    0  0.63703967447E+02  0.55974019104E+02  0.10038369388E+03  0.13149244192E+03  0.47000000000E+01 0. -1.
        -11    1    4    4    0    0  0.12516115671E+03  0.11983712129E+02  0.29216331970E+03  0.31806969344E+03  0.00000000000E+00 0.  1.
         12    1    4    4    0    0  0.73215062432E+02  0.16429242476E+02  0.40764178012E+03  0.41449027283E+03  0.00000000000E+00 0. -1.
         -5    1    5    5    0  503 -0.15755476315E+03 -0.52853443639E+02  0.28607941733E+03  0.33087839597E+03  0.47000000000E+01 0.  1.
         11    1    6    6    0    0 -0.94575798968E+02 -0.18584874282E+02  0.90642719873E+02  0.13231055124E+03  0.00000000000E+00 0. -1.
        -12    1    6    6    0    0 -0.99496244712E+01 -0.12948655788E+02 -0.15939557912E+02  0.22819557845E+02  0.00000000000E+00 0.  1.
</event>
<event>
12    1  0.9028446E-003  0.2547001E+03  0.7818608E-02  0.1111053E+00
         21   -1    0    0  503  502  0.00000000000E+00  0.00000000000E+00  0.53656259077E+03  0.53656259077E+03  0.00000000000E+00 0. -1.
         21   -1    0    0  501  503 -0.00000000000E+00 -0.00000000000E+00 -0.19625423133E+03  0.19625423133E+03  0.00000000000E+00 0.  1.
          6    2    1    2  501    0  0.17015592867E+03 -0.62078807485E+02 -0.60879435274E+02  0.25760761719E+03  0.17276735916E+03 0.  0.
         24    2    3    3    0    0  0.82359914784E+02 -0.84063708101E+02 -0.83468092739E+02  0.16420626090E+03  0.78402238684E+02 0.  0.
         -6    2    1    2    0  502 -0.17015592867E+03  0.62078807485E+02  0.40118779472E+03  0.47520920492E+03  0.17906792959E+03 0.  0.
        -24    2    5    5    0    0 -0.41257604592E+02  0.53207047126E+02  0.10018891490E+03  0.14761814622E+03  0.84971281183E+02 0.  0.
          5    1    3    3  501    0  0.87796013890E+02  0.21984900615E+02  0.22588657465E+02  0.93401356287E+02  0.47000000000E+01 0. -1.
        -11    1    4    4    0    0  0.54619586941E+02 -0.30911915692E+02 -0.83242580289E+02  0.10425052989E+03  0.00000000000E+00 0.  1.
         12    1    4    4    0    0  0.27740327843E+02 -0.53151792408E+02 -0.22551244948E+00  0.59955731010E+02  0.00000000000E+00 0. -1.
         -5    1    5    5    0  502 -0.12889832408E+03  0.88717603592E+01  0.30099887982E+03  0.32759105869E+03  0.47000000000E+01 0.  1.
         13    1    6    6    0    0 -0.60968804783E+02  0.56388924153E+02  0.59084388317E+02  0.10192090495E+03  0.00000000000E+00 0. -1.
        -14    1    6    6    0    0  0.19711200191E+02 -0.31818770266E+01  0.41104526579E+02  0.45697241269E+02  0.00000000000E+00 0.  1.
</event>
<event>
12    1  0.9028446E-003  0.2270680E+03  0.7818608E-02  0.1128825E+00
         21   -1    0    0  501  502  0.00000000000E+00  0.00000000000E+00  0.18262716921E+03  0.18262716921E+03  0.00000000000E+00 0. -1.
         21   -1    0    0  502  503 -0.00000000000E+00 -0.00000000000E+00 -0.29277072837E+03  0.29277072837E+03  0.00000000000E+00 0.  1.
          6    2    1    2  501    0 -0.30849568270E+02  0.14436328097E+03 -0.85695473712E+01  0.22664669718E+03  0.17176389448E+03 0.  0.
         24    2    3    3    0    0  0.14277298688E+02  0.15625363582E+02 -0.29858801511E+02  0.88497474103E+02  0.80574571982E+02 0.  0.
         -6    2    1    2    0  503  0.30849568270E+02 -0.14436328097E+03 -0.10157401179E+03  0.24875120039E+03  0.17253239426E+03 0.  0.
        -24    2    5    5    0    0  0.13760638493E+00 -0.18740265333E+01 -0.25527547964E+02  0.84277594930E+02  0.80296490528E+02 0.  0.
          5    1    3    3  501    0 -0.45126866958E+02  0.12873791739E+03  0.21289254140E+02  0.13814922308E+03  0.47000000000E+01 0. -1.
        -11    1    4    4    0    0  0.14963484868E+02  0.12336584447E+02 -0.57484800323E+02  0.60667944282E+02  0.00000000000E+00 0.  1.
         12    1    4    4    0    0 -0.68618618024E+00  0.32887791350E+01  0.27625998812E+02  0.27829529821E+02  0.00000000000E+00 0. -1.
         -5    1    5    5    0  503  0.30711961885E+02 -0.14248925444E+03 -0.76046463828E+02  0.16447360546E+03  0.47000000000E+01 0.  1.
         11    1    6    6    0    0  0.30817370200E+02  0.12568983726E+02  0.10405610382E+02  0.34870709562E+02  0.00000000000E+00 0. -1.
        -12    1    6    6    0    0 -0.30679763815E+02 -0.14443010260E+02 -0.35933158346E+02  0.49406885368E+02  0.00000000000E+00 0.  1.
</event>
<event>
12    1  0.9028446E-003  0.2063796E+03  0.7818608E-02  0.1144854E+00
         21   -1    0    0  503  502  0.00000000000E+00  0.00000000000E+00  0.12030917250E+03  0.12030917250E+03  0.00000000000E+00 0.  1.
         21   -1    0    0  501  503 -0.00000000000E+00 -0.00000000000E+00 -0.54533265502E+03  0.54533265502E+03  0.00000000000E+00 0.  1.
          6    2    1    2  501    0  0.10486641453E+03  0.46175770028E+02 -0.41194676992E+03  0.46075231418E+03  0.17164902312E+03 0.  0.
         24    2    3    3    0    0  0.81854700373E+02  0.44521440391E+02 -0.41860965898E+03  0.43628274356E+03  0.80163801745E+02 0.  0.
         -6    2    1    2    0  502 -0.10486641453E+03 -0.46175770028E+02 -0.13076712599E+02  0.20488951334E+03  0.16935036354E+03 0.  0.
        -24    2    5    5    0    0 -0.11510757702E+03  0.15560397870E+02 -0.70306154990E+01  0.14184285502E+03  0.81105398680E+02 0.  0.
          5    1    3    3  501    0  0.23011714162E+02  0.16543296372E+01  0.66628890666E+01  0.24469570612E+02  0.47000000000E+01 0. -1.
        -11    1    4    4    0    0  0.11863060282E+02  0.42484864699E+02 -0.24750671681E+03  0.25140658462E+03  0.00000000000E+00 0.  1.
         12    1    4    4    0    0  0.69991640091E+02  0.20365756922E+01 -0.17110294218E+03  0.18487615894E+03  0.00000000000E+00 0. -1.
         -5    1    5    5    0  502  0.10241162487E+02 -0.61736167898E+02 -0.60460970995E+01  0.63046658325E+02  0.47000000000E+01 0.  1.
         13    1    6    6    0    0 -0.16408234091E+02 -0.27832850753E+02 -0.10491692165E+02  0.33970182977E+02  0.00000000000E+00 0. -1.
        -14    1    6    6    0    0 -0.98699342931E+02  0.43393248623E+02  0.34610766660E+01  0.10787267204E+03  0.00000000000E+00 0.  1.
</event>
<event>
12    1  0.9028446E-003  0.1950049E+03  0.7818608E-02  0.1154306E+00
         21   -1    0    0  501  502  0.00000000000E+00  0.00000000000E+00  0.18550414444E+03  0.18550414444E+03  0.00000000000E+00 0. -1.
         21   -1    0    0  502  503 -0.00000000000E+00 -0.00000000000E+00 -0.20556800190E+03  0.20556800190E+03  0.00000000000E+00 0.  1.
          6    2    1    2  501    0  0.61100120537E+02  0.66297425419E+02  0.89491357070E+01  0.19392081935E+03  0.17145443651E+03 0.  0.
         24    2    3    3    0    0  0.81339773398E+02  0.73172027633E+02  0.54804109907E+02  0.14311065931E+03  0.74208260877E+02 0.  0.
         -6    2    1    2    0  503 -0.61100120537E+02 -0.66297425419E+02 -0.29012993167E+02  0.19715132699E+03  0.17291130274E+03 0.  0.
        -24    2    5    5    0    0  0.19277895277E+02 -0.23734156339E+02  0.29479286280E+02  0.88912267239E+02  0.78111558189E+02 0.  0.
          5    1    3    3  501    0 -0.20239652861E+02 -0.68746022139E+01 -0.45854974200E+02  0.50810160032E+02  0.47000000000E+01 0. -1.
        -13    1    4    4    0    0  0.27500955944E+02 -0.11463723314E+02  0.22779588536E+01  0.29881576709E+02  0.00000000000E+00 0.  1.
         14    1    4    4    0    0  0.53838817454E+02  0.84635750947E+02  0.52526151054E+02  0.11322908261E+03  0.00000000000E+00 0. -1.
         -5    1    5    5    0  503 -0.80378015814E+02 -0.42563269080E+02 -0.58492279447E+02  0.10823905975E+03  0.47000000000E+01 0.  1.
         13    1    6    6    0    0  0.23841827932E+02  0.22233184562E+02  0.27544503348E+02  0.42678412806E+02  0.00000000000E+00 0. -1.
        -14    1    6    6    0    0 -0.45639326552E+01 -0.45967340901E+02  0.19347829317E+01  0.46233854434E+02  0.00000000000E+00 0.  1.
</event>
<event>
12    1  0.9028446E-003  0.2537249E+03  0.7818608E-02  0.1111696E+00
         21   -1    0    0  503  502  0.00000000000E+00  0.00000000000E+00  0.48927604907E+03  0.48927604907E+03  0.00000000000E+00 0.  1.
         21   -1    0    0  501  503 -0.00000000000E+00 -0.00000000000E+00 -0.13245176184E+03  0.13245176184E+03  0.00000000000E+00 0. -1.
          6    2    1    2  501    0  0.14125176006E+03  0.11241852898E+03  0.12804747585E+03  0.28009183191E+03  0.17165457422E+03 0.  0.
         24    2    3    3    0    0  0.13307732049E+03  0.77732690813E+02  0.15672797666E+03  0.23410716101E+03  0.80564010065E+02 0.  0.
         -6    2    1    2    0  502 -0.14125176006E+03 -0.11241852898E+03  0.22877681138E+03  0.34163597900E+03  0.17828720466E+03 0.  0.
        -24    2    5    5    0    0 -0.11313382947E+03 -0.30292863802E+02  0.20557710627E+03  0.25166065339E+03  0.85756730796E+02 0.  0.
          5    1    3    3  501    0  0.81744395676E+01  0.34685838162E+02 -0.28680500805E+02  0.45984670899E+02  0.47000000000E+01 0. -1.
        -11    1    4    4    0    0  0.13882784555E+02 -0.12421359038E+00  0.60969007727E+02  0.62529729243E+02  0.00000000000E+00 0.  1.
         12    1    4    4    0    0  0.11919453594E+03  0.77856904404E+02  0.95758968933E+02  0.17157743177E+03  0.00000000000E+00 0. -1.
         -5    1    5    5    0  502 -0.28117930594E+02 -0.82125665174E+02  0.23199705114E+02  0.89975325609E+02  0.47000000000E+01 0.  1.
         11    1    6    6    0    0 -0.49557952628E+02  0.13022809166E+02  0.28588949732E+02  0.58676334872E+02  0.00000000000E+00 0. -1.
        -12    1    6    6    0    0 -0.63575876839E+02 -0.43315672968E+02  0.17698815654E+03  0.19298431852E+03  0.00000000000E+00 0.  1.
</event>
<event>
12    1  0.9028446E-003  0.2084426E+03  0.7818608E-02  0.1143009E+00
         21   -1    0    0  501  502  0.00000000000E+00  0.00000000000E+00  0.66099233066E+03  0.66099233066E+03  0.00000000000E+00 0.  1.
         21   -1    0    0  502  503 -0.00000000000E+00 -0.00000000000E+00 -0.65627403219E+02  0.65627403219E+02  0.00000000000E+00 0. -1.
          6    2    1    2  501    0 -0.76367942338E+02  0.87236955045E+02  0.31779927972E+03  0.37950161489E+03  0.17199635046E+03 0.  0.
         24    2    3    3    0    0 -0.84417121747E+02  0.30228127371E+02  0.29293126482E+03  0.31661040813E+03  0.79958955108E+02 0.  0.
         -6    2    1    2    0  503  0.76367942338E+02 -0.87236955045E+02  0.27756564773E+03  0.34711811899E+03  0.17322225837E+03 0.  0.
        -24    2    5    5    0    0  0.93464659691E+02 -0.60492267602E+01  0.13807141890E+03  0.18474670881E+03  0.79343518604E+02 0.  0.
          5    1    3    3  501    0  0.80491794090E+01  0.57008827674E+02  0.24868014900E+02  0.62891206754E+02  0.47000000000E+01 0. -1.
        -11    1    4    4    0    0 -0.28868817452E+02  0.50908246055E+02  0.17667672401E+03  0.18611749769E+03  0.00000000000E+00 0.  1.
         12    1    4    4    0    0 -0.55548304295E+02 -0.20680118684E+02  0.11625454081E+03  0.13049291045E+03  0.00000000000E+00 0. -1.
         -5    1    5    5    0  503 -0.17096717352E+02 -0.81187728285E+02  0.13949422883E+03  0.16237141018E+03  0.47000000000E+01 0.  1.
         13    1    6    6    0    0  0.37020473764E+02 -0.41827632691E+02  0.65845888821E+02  0.86346669935E+02  0.00000000000E+00 0. -1.
        -14    1    6    6    0    0  0.56444185927E+02  0.35778405931E+02  0.72225530075E+02  0.98400038875E+02  0.00000000000E+00 0.  1.
</event>
<event>
12    1  0.9028446E-003  0.1897004E+03  0.7818608E-02  0.1158801E+00
         21   -1    0    0  503  502  0.00000000000E+00  0.00000000000E+00  0.94770956378E+03  0.94770956378E+03  0.00000000000E+00 0. -1.
         21   -1    0    0  501  503 -0.00000000000E+00 -0.00000000000E+00 -0.42840305843E+02  0.42840305843E+02  0.00000000000E+00 0. -1.
          6    2    1    2  501    0 -0.60610113811E+02  0.50329219277E+02  0.28410660429E+03  0.34144854364E+03  0.17223219542E+03 0.  0.
         24    2    3    3    0    0 -0.17645356322E+02 -0.30414218701E+02  0.17035457548E+03  0.19541057864E+03  0.89040606225E+02 0.  0.
         -6    2    1    2    0  502  0.60610113811E+02 -0.50329219277E+02  0.62076265365E+03  0.64910132599E+03  0.17256779256E+03 0.  0.
        -24    2    5    5    0    0  0.47628852071E+02 -0.10032366402E+03  0.47629957256E+03  0.49560986219E+03  0.80215382380E+02 0.  0.
          5    1    3    3  501    0 -0.42964757490E+02  0.80743437977E+02  0.11375202881E+03  0.14603796500E+03  0.47000000000E+01 0. -1.
        -11    1    4    4    0    0 -0.32256530938E+02 -0.10664463315E+02  0.16722947376E+03  0.17064557264E+03  0.00000000000E+00 0.  1.
         12    1    4    4    0    0  0.14611174616E+02 -0.19749755386E+02  0.31251017204E+01  0.24765006001E+02  0.00000000000E+00 0. -1.
         -5    1    5    5    0  502  0.12981261740E+02  0.49994444740E+02  0.14446308109E+03  0.15349146380E+03  0.47000000000E+01 0.  1.
         11    1    6    6    0    0 -0.78290768352E+01 -0.54855867082E+02  0.30355162382E+03  0.30856773798E+03  0.00000000000E+00 0. -1.
        -12    1    6    6    0    0  0.55457928906E+02 -0.45467796935E+02  0.17274794874E+03  0.18704212422E+03  0.00000000000E+00 0.  1.
</event>
<event>
12    1  0.9028446E-003  0.2043555E+03  0.7818608E-02  0.1147246E+00
         21   -1    0    0  503  502  0.00000000000E+00  0.00000000000E+00  0.13738593514E+04  0.13738593514E+04  0.00000000000E+00 0. -1.
         21   -1    0    0  501  503 -0.00000000000E+00 -0.00000000000E+00 -0.41456576546E+02  0.41456576546E+02  0.00000000000E+00 0. -1.
          6    2    1    2  501    0  0.10280134534E+03  0.13491783261E+02  0.28127834843E+03  0.34451074240E+03  0.16976453550E+03 0.  0.
         24    2    3    3    0    0  0.63314853234E+02  0.35748945311E+00  0.61481861501E+02  0.12076025994E+03  0.82426468134E+02 0.  0.
         -6    2    1    2    0  502 -0.10280134534E+03 -0.13491783261E+02  0.10511244264E+04  0.10708051856E+04  0.17609951945E+03 0.  0.
        -24    2    5    5    0    0 -0.36711408737E+02  0.60000572384E+02  0.54379513643E+03  0.55391631495E+03  0.78500556351E+02 0.  0.
          5    1    3    3  501    0  0.39486492111E+02  0.13134293807E+02  0.21979648693E+03  0.22375048246E+03  0.47000000000E+01 0. -1.
        -11    1    4    4    0    0 -0.57478823195E+01  0.18396971686E+02 -0.82563815105E+01  0.20967941101E+02  0.00000000000E+00 0.  1.
         12    1    4    4    0    0  0.69062735553E+02 -0.18039482233E+02  0.69738243011E+02  0.99792318841E+02  0.00000000000E+00 0. -1.
         -5    1    5    5    0  502 -0.66089936608E+02 -0.73492355645E+02  0.50732929001E+03  0.51688887061E+03  0.47000000000E+01 0.  1.
         13    1    6    6    0    0 -0.45760706553E+02  0.45472097841E+02  0.52308720910E+03  0.52705026541E+03  0.00000000000E+00 0. -1.
        -14    1    6    6    0    0  0.90492978169E+01  0.14528474544E+02  0.20707927323E+02  0.26866049534E+02  0.00000000000E+00 0.  1.
</event>
<event>
12    1  0.9028446E-003  0.1734170E+03  0.7818608E-02  0.1174565E+00
         21   -1    0    0  503  502  0.00000000000E+00  0.00000000000E+00  0.11430382020E+04  0.11430382020E+04  0.00000000000E+00 0. -1.
         21   -1    0    0  501  503 -0.00000000000E+00 -0.00000000000E+00 -0.53950837342E+02  0.53950837342E+02  0.00000000000E+00 0. -1.
          6    2    1    2  501    0 -0.84100066466E+01 -0.20993919296E+02  0.11578199928E+03  0.20851603800E+03  0.17193601683E+03 0.  0.
         24    2    3    3    0    0  0.31630679315E+02 -0.22314815335E+02  0.13855483170E+03  0.16219441027E+03  0.74907506160E+02 0.  0.
         -6    2    1    2    0  502  0.84100066466E+01  0.20993919296E+02  0.97330536534E+03  0.98847300130E+03  0.17100896836E+03 0.  0.
        -24    2    5    5    0    0  0.50903019761E+02 -0.82262100918E+01  0.84060088093E+03  0.84602286159E+03  0.80536037583E+02 0.  0.
          5    1    3    3  501    0 -0.40040685962E+02  0.13208960390E+01 -0.22772832417E+02  0.46321627723E+02  0.47000000000E+01 0. -1.
        -13    1    4    4    0    0  0.80068180390E+00  0.58366630460E+01  0.11319150194E+03  0.11334471244E+03  0.00000000000E+00 0.  1.
         14    1    4    4    0    0  0.30829997511E+02 -0.28151478381E+02  0.25363329755E+02  0.48849697828E+02  0.00000000000E+00 0. -1.
         -5    1    5    5    0  502 -0.42493013114E+02  0.29220129388E+02  0.13270448440E+03  0.14245013972E+03  0.47000000000E+01 0.  1.
         11    1    6    6    0    0 -0.16395068838E+02  0.13433025835E+02  0.31140109731E+03  0.31212159149E+03  0.00000000000E+00 0. -1.
        -12    1    6    6    0    0  0.67298088599E+02 -0.21659235927E+02  0.52919978362E+03  0.53390127010E+03  0.00000000000E+00 0.  1.
</event>
<event>
12    1  0.9028446E-003  0.2818460E+03  0.7818608E-02  0.1094768E+00
         21   -1    0    0  503  502  0.00000000000E+00  0.00000000000E+00  0.38128821570E+03  0.38128821570E+03  0.00000000000E+00 0.  1.
         21   -1    0    0  501  503 -0.00000000000E+00 -0.00000000000E+00 -0.68778318138E+03  0.68778318138E+03  0.00000000000E+00 0.  1.
          6    2    1    2  501    0  0.20151989067E+03 -0.96531886790E+02 -0.59980058005E+03  0.66272010046E+03  0.17178045358E+03 0.  0.
         24    2    3    3    0    0  0.99657528426E+02 -0.12427186656E+03 -0.32056686055E+03  0.36415853659E+03  0.66882044651E+02 0.  0.
         -6    2    1    2    0  502 -0.20151989067E+03  0.96531886790E+02  0.29330561437E+03  0.40635129662E+03  0.17077623179E+03 0.  0.
        -24    2    5    5    0    0 -0.44684997104E+02  0.70552084378E+02  0.11093415920E+03  0.16437284380E+03  0.87964188871E+02 0.  0.
          5    1    3    3  501    0  0.10186236224E+03  0.27739979773E+02 -0.27923371950E+03  0.29856156388E+03  0.47000000000E+01 0. -1.
        -13    1    4    4    0    0  0.97178203097E+02 -0.10655746038E+03 -0.31321164469E+03  0.34481825632E+03  0.00000000000E+00 0.  1.
         14    1    4    4    0    0  0.24793253298E+01 -0.17714406186E+02 -0.73552158556E+01  0.19340280270E+02  0.00000000000E+00 0. -1.
         -5    1    5    5    0  502 -0.15683489357E+03  0.25979802412E+02  0.18237145517E+03  0.24197845283E+03  0.47000000000E+01 0.  1.
         13    1    6    6    0    0 -0.30263567732E+02  0.46820888393E+02  0.62866204548E+01  0.56103482232E+02  0.00000000000E+00 0. -1.
        -14    1    6    6    0    0 -0.14421429372E+02  0.23731195985E+02  0.10464753875E+03  0.10826936156E+03  0.00000000000E+00 0.  1.
</event>
<event>
12    1  0.9028446E-003  0.1887992E+03  0.7818608E-02  0.1160322E+00
         21   -1    0    0  501  502  0.00000000000E+00  0.00000000000E+00  0.13519080867E+03  0.13519080867E+03  0.00000000000E+00 0.  1.
         21   -1    0    0  502  503 -0.00000000000E+00 -0.00000000000E+00 -0.26163089011E+03  0.26163089011E+03  0.00000000000E+00 0. -1.
          6    2    1    2  501    0  0.65480217183E+02  0.28585815645E+02 -0.83743148397E+02  0.20653828056E+03  0.17475794326E+03 0.  0.
         24    2    3    3    0    0  0.63259696078E+02  0.79043785305E+02 -0.78772307942E+02  0.15557028402E+03  0.88018904945E+02 0.  0.
         -6    2    1    2    0  503 -0.65480217183E+02 -0.28585815645E+02 -0.42696933039E+02  0.19028341822E+03  0.17111383188E+03 0.  0.
        -24    2    5    5    0    0 -0.32380699852E+02  0.49698034985E+02 -0.12779008248E+02  0.10005530985E+03  0.79557259708E+02 0.  0.
          5    1    3    3  501    0  0.22205211058E+01 -0.50457969660E+02 -0.49708404555E+01  0.50967996538E+02  0.47000000000E+01 0. -1.
        -11    1    4    4    0    0  0.11993147816E+02 -0.53703031079E+01  0.14610087100E+02  0.19650200892E+02  0.00000000000E+00 0.  1.
         12    1    4    4    0    0  0.51266548261E+02  0.84414088413E+02 -0.93382395042E+02  0.13592008313E+03  0.00000000000E+00 0. -1.
         -5    1    5    5    0  503 -0.33099517332E+02 -0.78283850630E+02 -0.29917924791E+02  0.90228108375E+02  0.47000000000E+01 0.  1.
         11    1    6    6    0    0  0.17743208623E+02  0.32362461747E+02  0.15406732824E+02  0.39993972032E+02  0.00000000000E+00 0. -1.
        -12    1    6    6    0    0 -0.50123908474E+02  0.17335573238E+02 -0.28185741072E+02  0.60061337814E+02  0.00000000000E+00 0.  1.
</event>
<event>
12    1  0.9028446E-003  0.1733027E+03  0.7818608E-02  0.1174719E+00
         21   -1    0    0  501  502  0.00000000000E+00  0.00000000000E+00  0.34703308268E+02  0.34703308268E+02  0.00000000000E+00 0.  1.
         21   -1    0    0  502  503 -0.00000000000E+00 -0.00000000000E+00 -0.14468161978E+04  0.14468161978E+04  0.00000000000E+00 0.  1.
          6    2    1    2  501    0  0.25607363296E+01 -0.14978122704E+02 -0.11790638643E+04  0.11917321093E+04  0.17263522999E+03 0.  0.
         24    2    3    3    0    0  0.39126498929E+02  0.34312447014E+02 -0.94086909666E+03  0.94571289744E+03  0.80187283259E+02 0.  0.
         -6    2    1    2    0  503 -0.25607363296E+01  0.14978122704E+02 -0.23304902522E+03  0.28978739678E+03  0.17156335754E+03 0.  0.
        -24    2    5    5    0    0  0.63732874975E+02 -0.90289276274E+01 -0.13554584576E+03  0.16937086399E+03  0.78551972476E+02 0.  0.
          5    1    3    3  501    0 -0.36565762600E+02 -0.49290569718E+02 -0.23819476762E+03  0.24601921181E+03  0.47000000000E+01 0. -1.
        -11    1    4    4    0    0 -0.30424079086E+01 -0.22422183819E+02 -0.32822217192E+03  0.32900122296E+03  0.00000000000E+00 0.  1.
         12    1    4    4    0    0  0.42168906838E+02  0.56734630834E+02 -0.61264692474E+03  0.61671167448E+03  0.00000000000E+00 0. -1.
         -5    1    5    5    0  503 -0.66293611305E+02  0.24007050332E+02 -0.97503179453E+02  0.12041653279E+03  0.47000000000E+01 0.  1.
         11    1    6    6    0    0 -0.41988460570E+01 -0.26632244663E+02 -0.62553092922E+02  0.68116049490E+02  0.00000000000E+00 0. -1.
        -12    1    6    6    0    0  0.67931721032E+02  0.17603317036E+02 -0.72992752842E+02  0.10125481451E+03  0.00000000000E+00 0.  1.
</event>
<event>
12    1  0.9028446E-003  0.2006890E+03  0.7818608E-02  0.1149839E+00
         21   -1    0    0  503  502  0.00000000000E+00  0.00000000000E+00  0.25051458626E+03  0.25051458626E+03  0.00000000000E+00 0.  1.
         21   -1    0    0  501  503 -0.00000000000E+00 -0.00000000000E+00 -0.17210578291E+03  0.17210578291E+03  0.00000000000E+00 0.  1.
          6    2    1    2  501    0 -0.48021482615E+02 -0.87239723969E+02  0.99528899023E+02  0.22401357583E+03  0.17423905471E+03 0.  0.
         24    2    3    3    0    0  0.24965559987E+02 -0.20336966367E+02  0.90641435759E+02  0.12449390760E+03  0.79031587137E+02 0.  0.
         -6    2    1    2    0  502  0.48021482615E+02  0.87239723969E+02 -0.21120095678E+02  0.19860679333E+03  0.17053377286E+03 0.  0.
        -24    2    5    5    0    0  0.39946017316E+02  0.67294610112E+02 -0.79786424823E+02  0.13594221896E+03  0.77396152743E+02 0.  0.
          5    1    3    3  501    0 -0.72987042602E+02 -0.66902757602E+02  0.88874632644E+01  0.99519668236E+02  0.47000000000E+01 0. -1.
        -13    1    4    4    0    0  0.35343054173E+01 -0.48925683785E+02  0.45338234287E+02  0.66796476979E+02  0.00000000000E+00 0.  1.
         14    1    4    4    0    0  0.21431254570E+02  0.28588717418E+02  0.45303201472E+02  0.57697430616E+02  0.00000000000E+00 0. -1.
         -5    1    5    5    0  502  0.80754652996E+01  0.19945113857E+02  0.58666329145E+02  0.62664574378E+02  0.47000000000E+01 0.  1.
         11    1    6    6    0    0 -0.42703850247E+01 -0.49616687785E+01  0.10349986887E+02  0.12246492309E+02  0.00000000000E+00 0. -1.
        -12    1    6    6    0    0  0.44216402340E+02  0.72256278890E+02 -0.90136411710E+02  0.12369572665E+03  0.00000000000E+00 0.  1.
</event>
<event>
12    1  0.9028446E-003  0.1849718E+03  0.7818608E-02  0.1163285E+00
         21   -1    0    0  501  502  0.00000000000E+00  0.00000000000E+00  0.18780019972E+03  0.18780019972E+03  0.00000000000E+00 0.  1.
         21   -1    0    0  502  503 -0.00000000000E+00 -0.00000000000E+00 -0.19881367733E+03  0.19881367733E+03  0.00000000000E+00 0.  1.
          6    2    1    2  501    0 -0.44597342465E+01  0.66977082854E+02  0.51865015214E+02  0.19124685050E+03  0.17140466494E+03 0.  0.
         24    2    3    3    0    0 -0.40097129823E+02  0.65471594639E+02  0.86359315399E+02  0.14140472771E+03  0.81504945489E+02 0.  0.
         -6    2    1    2    0  503  0.44597342465E+01 -0.66977082854E+02 -0.62878492826E+02  0.19536702656E+03  0.17236226777E+03 0.  0.
        -24    2    5    5    0    0  0.87784023239E+01 -0.10755441966E+03 -0.22410258626E+02  0.13770474135E+03  0.82555209171E+02 0.  0.
          5    1    3    3  501    0  0.35637395577E+02  0.15054882147E+01 -0.34494300185E+02  0.49842122783E+02  0.47000000000E+01 0. -1.
        -11    1    4    4    0    0 -0.21845873852E+02  0.82198031321E+02  0.54330540602E+02  0.10092356613E+03  0.00000000000E+00 0.  1.
         12    1    4    4    0    0 -0.18251255971E+02 -0.16726436682E+02  0.32028774797E+02  0.40481161589E+02  0.00000000000E+00 0. -1.
         -5    1    5    5    0  503 -0.43186680774E+01  0.40577336810E+02 -0.40468234200E+02  0.57662285212E+02  0.47000000000E+01 0.  1.
         13    1    6    6    0    0 -0.19938145060E+02 -0.38392098550E+01 -0.22202984326E+02  0.30087234398E+02  0.00000000000E+00 0. -1.
        -14    1    6    6    0    0  0.28716547384E+02 -0.10371520981E+03 -0.20727429924E+00  0.10761750695E+03  0.00000000000E+00 0.  1.
</event>
<event>
12    1  0.9028446E-003  0.2148384E+03  0.7818608E-02  0.1137855E+00
         21   -1    0    0  503  502  0.00000000000E+00  0.00000000000E+00  0.97934996928E+02  0.97934996928E+02  0.00000000000E+00 0. -1.
         21   -1    0    0  501  503 -0.00000000000E+00 -0.00000000000E+00 -0.57489996708E+03  0.57489996708E+03  0.00000000000E+00 0.  1.
          6    2    1    2  501    0 -0.77478094198E+02 -0.10437547160E+03 -0.38196204732E+03  0.43823574060E+03  0.17105105844E+03 0.  0.
         24    2    3    3    0    0 -0.11734197136E+03 -0.10107596745E+03 -0.31628124970E+03  0.36118982827E+03  0.80241969664E+02 0.  0.
         -6    2    1    2    0  502  0.77478094198E+02  0.10437547160E+03 -0.95002922832E+02  0.23459922341E+03  0.17062867908E+03 0.  0.
        -24    2    5    5    0    0  0.48283201270E+02  0.13766963879E+03 -0.91073600008E+02  0.18989605887E+03  0.80510344597E+02 0.  0.
          5    1    3    3  501    0  0.39863877164E+02 -0.32995041430E+01 -0.65680797618E+02  0.77045912324E+02  0.47000000000E+01 0. -1.
        -11    1    4    4    0    0 -0.60928040089E+02 -0.72178809159E+02 -0.25926254955E+03  0.27593310088E+03  0.00000000000E+00 0.  1.
         12    1    4    4    0    0 -0.56413931273E+02 -0.28897158295E+02 -0.57018700149E+02  0.85256727394E+02  0.00000000000E+00 0. -1.
         -5    1    5    5    0  502  0.29194892928E+02 -0.33294167191E+02 -0.39293228233E+01  0.44703164539E+02  0.47000000000E+01 0.  1.
         11    1    6    6    0    0  0.71229959724E+01  0.92593631016E+02 -0.17850886122E+02  0.94567286688E+02  0.00000000000E+00 0. -1.
        -12    1    6    6    0    0  0.41160205298E+02  0.45076007772E+02 -0.73222713886E+02  0.95328772182E+02  0.00000000000E+00 0.  1.
</event>
<event>
12    1  0.9028446E-003  0.2582543E+03  0.7818608E-02  0.1108348E+00
         21   -1    0    0  503  502  0.00000000000E+00  0.00000000000E+00  0.11752895281E+03  0.11752895281E+03  0.00000000000E+00 0.  1.
         21   -1    0    0  501  503 -0.00000000000E+00 -0.00000000000E+00 -0.58437174351E+03  0.58437174351E+03  0.00000000000E+00 0. -1.
          6    2    1    2  501    0 -0.14458310105E+03  0.12538892219E+03 -0.29639311011E+03  0.39246832592E+03  0.17191816721E+03 0.  0.
         24    2    3    3    0    0 -0.26768809801E+02  0.75912822283E+02 -0.72376142562E+02  0.13452689181E+03  0.79873981010E+02 0.  0.
         -6    2    1    2    0  502  0.14458310105E+03 -0.12538892219E+03 -0.17044968060E+03  0.30943237040E+03  0.17340312372E+03 0.  0.
        -24    2    5    5    0    0  0.11536456311E+02 -0.67404580135E+02 -0.56020745966E+02  0.12455493889E+03  0.87744752413E+02 0.  0.
          5    1    3    3  501    0 -0.11781429125E+03  0.49476099910E+02 -0.22401696754E+03  0.25794143411E+03  0.47000000000E+01 0. -1.
        -11    1    4    4    0    0 -0.24004676304E+02  0.53967915958E+01  0.95543399584E+01  0.26393848829E+02  0.00000000000E+00 0.  1.
         12    1    4    4    0    0 -0.27641334974E+01  0.70516030687E+02 -0.81930482520E+02  0.10813304298E+03  0.00000000000E+00 0. -1.
         -5    1    5    5    0  502  0.13304664474E+03 -0.57984342058E+02 -0.11442893463E+03  0.18487743151E+03  0.47000000000E+01 0.  1.
         11    1    6    6    0    0  0.31440712893E+02  0.68733082167E+01 -0.28163419686E+02  0.42766096402E+02  0.00000000000E+00 0. -1.
        -12    1    6    6    0    0 -0.19904256582E+02 -0.74277888352E+02 -0.27857326280E+02  0.81788842488E+02  0.00000000000E+00 0.  1.
</event>
<event>
12    1  0.9028446E-003  0.1844523E+03  0.7818608E-02  0.1163843E+00
         21   -1    0    0  503  502  0.00000000000E+00  0.00000000000E+00  0.50527244017E+02  0.50527244017E+02  0.00000000000E+00 0. -1.
         21   -1    0    0  501  503 -0.00000000000E+00 -0.00000000000E+00 -0.73439779884E+03  0.73439779884E+03  0.00000000000E+00 0. -1.
          6    2    1    2  501    0 -0.33567929123E+02  0.53390328527E+02 -0.45803831531E+03  0.49333826447E+03  0.17206455723E+03 0.  0.
         24    2    3    3    0    0  0.18952185884E+02 -0.17652405188E+02 -0.30122496484E+03  0.31328841199E+03  0.82111855922E+02 0.  0.
         -6    2    1    2    0  502  0.33567929123E+02 -0.53390328527E+02 -0.22583223952E+03  0.29158677839E+03  0.17333584707E+03 0.  0.
        -24    2    5    5    0    0  0.67949433417E+02  0.16341706508E+02 -0.15516807141E+03  0.18641948688E+03  0.76098080354E+02 0.  0.
          5    1    3    3  501    0 -0.52520115007E+02  0.71042733716E+02 -0.15681335046E+03  0.18004985248E+03  0.47000000000E+01 0. -1.
        -11    1    4    4    0    0 -0.21825520066E+02 -0.32838404225E+02 -0.10175460139E+03  0.10912704991E+03  0.00000000000E+00 0.  1.
         12    1    4    4    0    0  0.40777705949E+02  0.15185999037E+02 -0.19947036346E+03  0.20416136208E+03  0.00000000000E+00 0. -1.
         -5    1    5    5    0  502 -0.34381504293E+02 -0.69732035036E+02 -0.70664168116E+02  0.10516729151E+03  0.47000000000E+01 0.  1.
         11    1    6    6    0    0  0.34509753087E+02  0.37369283749E+01 -0.88795512193E+01  0.35829235572E+02  0.00000000000E+00 0. -1.
        -12    1    6    6    0    0  0.33439680330E+02  0.12604778133E+02 -0.14628852019E+03  0.15059025131E+03  0.00000000000E+00 0.  1.
</event>
<event>
12    1  0.9028446E-003  0.1787086E+03  0.7818608E-02  0.1169469E+00
         21   -1    0    0  501  502  0.00000000000E+00  0.00000000000E+00  0.10193099657E+03  0.10193099657E+03  0.00000000000E+00 0. -1.
         21   -1    0    0  502  503 -0.00000000000E+00 -0.00000000000E+00 -0.34271801187E+03  0.34271801187E+03  0.00000000000E+00 0. -1.
          6    2    1    2  501    0 -0.20325986062E+02  0.35018527162E+02 -0.52625988322E+02  0.18629612150E+03  0.17406121706E+03 0.  0.
         24    2    3    3    0    0 -0.57370198619E+02 -0.12242866529E+02 -0.73003545840E+02  0.12270958308E+03  0.79289952738E+02 0.  0.
         -6    2    1    2    0  503  0.20325986062E+02 -0.35018527162E+02 -0.18816102697E+03  0.25835288694E+03  0.17234325970E+03 0.  0.
        -24    2    5    5    0    0 -0.14026423352E+02 -0.33445901600E+02 -0.29398980965E+02  0.95841230634E+02  0.83701090326E+02 0.  0.
          5    1    3    3  501    0  0.37044212557E+02  0.47261393690E+02  0.20377557518E+02  0.63586538418E+02  0.47000000000E+01 0. -1.
        -11    1    4    4    0    0 -0.59652026336E+02 -0.39327919360E+02 -0.52689897689E+02  0.88776544231E+02  0.00000000000E+00 0.  1.
         12    1    4    4    0    0  0.22818277173E+01  0.27085052831E+02 -0.20313648151E+02  0.33933038853E+02  0.00000000000E+00 0. -1.
         -5    1    5    5    0  503  0.34352409413E+02 -0.15726255616E+01 -0.15876204600E+03  0.16251165631E+03  0.47000000000E+01 0.  1.
         13    1    6    6    0    0  0.30045904479E+02 -0.87515064304E+01 -0.32639636390E+02  0.45218260741E+02  0.00000000000E+00 0. -1.
        -14    1    6    6    0    0 -0.44072327830E+02 -0.24694395170E+02  0.32406554251E+01  0.50622969893E+02  0.00000000000E+00 0.  1.
</event>
<event>
12    1  0.9028446E-003  0.2285728E+03  0.7818608E-02  0.1128088E+00
         21   -1    0    0  503  502  0.00000000000E+00  0.00000000000E+00  0.32419566650E+03  0.32419566650E+03  0.00000000000E+00 0. -1.
         21   -1    0    0  501  503 -0.00000000000E+00 -0.00000000000E+00 -0.15959971773E+03  0.15959971773E+03  0.00000000000E+00 0.  1.
          6    2    1    2  501    0 -0.29565480895E+02  0.14341924151E+03  0.73794630367E+02  0.23784744864E+03  0.17228628749E+03 0.  0.
         24    2    3    3    0    0  0.47388705126E+02  0.86642179519E+02  0.21962955815E+02  0.12897048137E+03  0.79990355617E+02 0.  0.
         -6    2    1    2    0  502  0.29565480895E+02 -0.14341924151E+03  0.90801318398E+02  0.24594793559E+03  0.17550587199E+03 0.  0.
        -24    2    5    5    0    0 -0.14956001555E+02 -0.10495189526E+03  0.12307154717E+03  0.17867716339E+03  0.74433464867E+02 0.  0.
          5    1    3    3  501    0 -0.76954186021E+02  0.56777061989E+02  0.51831674552E+02  0.10887696727E+03  0.47000000000E+01 0. -1.
        -11    1    4    4    0    0  0.87520086172E+00  0.77789436524E+01 -0.24910262397E+02  0.26111283261E+02  0.00000000000E+00 0.  1.
         12    1    4    4    0    0  0.46513504264E+02  0.78863235867E+02  0.46873218212E+02  0.10285919811E+03  0.00000000000E+00 0. -1.
         -5    1    5    5    0  502  0.44521482450E+02 -0.38467346252E+02 -0.32270228775E+02  0.67270772200E+02  0.47000000000E+01 0.  1.
         13    1    6    6    0    0  0.15055199453E+02 -0.18599216357E+02  0.67681383846E+02  0.71786904091E+02  0.00000000000E+00 0. -1.
        -14    1    6    6    0    0 -0.30011201008E+02 -0.86352678899E+02  0.55390163327E+02  0.10689025930E+03  0.00000000000E+00 0.  1.
</event>
<event>
12    1  0.9028446E-003  0.1808889E+03  0.7818608E-02  0.1167390E+00
         21   -1    0    0  501  502  0.00000000000E+00  0.00000000000E+00  0.10386307155E+03  0.10386307155E+03  0.00000000000E+00 0.  1.
         21   -1    0    0  502  503 -0.00000000000E+00 -0.00000000000E+00 -0.35123744373E+03  0.35123744373E+03  0.00000000000E+00 0.  1.
          6    2    1    2  501    0  0.43599953061E+02 -0.28037796520E+02 -0.19932916194E+03  0.26793980588E+03  0.17138421991E+03 0.  0.
         24    2    3    3    0    0  0.86157870763E+02 -0.41057536995E+02 -0.99842554694E+02  0.15885101167E+03  0.78461507388E+02 0.  0.
         -6    2    1    2    0  503 -0.43599953061E+02  0.28037796520E+02 -0.48045210232E+02  0.18716070939E+03  0.17330238017E+03 0.  0.
        -24    2    5    5    0    0 -0.11771601145E+01  0.61748608221E+02 -0.74206073991E+02  0.12680681159E+03  0.82214048229E+02 0.  0.
          5    1    3    3  501    0 -0.42557917702E+02  0.13019740475E+02 -0.99486607250E+02  0.10908879421E+03  0.47000000000E+01 0. -1.
        -13    1    4    4    0    0  0.39254862153E+02  0.21758738755E+02 -0.41509325358E+02  0.61134368456E+02  0.00000000000E+00 0.  1.
         14    1    4    4    0    0  0.46903008610E+02 -0.62816275750E+02 -0.58333229336E+02  0.97716643212E+02  0.00000000000E+00 0. -1.
         -5    1    5    5    0  503 -0.42422792946E+02 -0.33710811701E+02  0.26160863759E+02  0.60353897799E+02  0.47000000000E+01 0.  1.
         11    1    6    6    0    0  0.24097876979E+02 -0.62288143450E+01 -0.28291840821E+01  0.25050151409E+02  0.00000000000E+00 0. -1.
        -12    1    6    6    0    0 -0.25275037094E+02  0.67977422566E+02 -0.71376889909E+02  0.10175666018E+03  0.00000000000E+00 0.  1.
</event>
<event>
12    1  0.9028446E-003  0.2183727E+03  0.7818608E-02  0.1135664E+00
         21   -1    0    0  503  502  0.00000000000E+00  0.00000000000E+00  0.19529314371E+03  0.19529314371E+03  0.00000000000E+00 0. -1.
         21   -1    0    0  501  503 -0.00000000000E+00 -0.00000000000E+00 -0.27827429209E+03  0.27827429209E+03  0.00000000000E+00 0. -1.
          6    2    1    2  501    0 -0.92719145854E+02 -0.97484132050E+02 -0.12853534928E+03  0.25339292633E+03  0.17200768323E+03 0.  0.
         24    2    3    3    0    0 -0.95534413605E+02 -0.21233451060E+02 -0.33841034386E+02  0.13169167179E+03  0.81362136057E+02 0.  0.
         -6    2    1    2    0  502  0.92719145854E+02  0.97484132050E+02  0.45554200897E+02  0.22017450948E+03  0.16823089311E+03 0.  0.
        -24    2    5    5    0    0  0.90273545503E+02  0.23145972853E+02  0.71686447307E+02  0.14119902483E+03  0.78186755960E+02 0.  0.
          5    1    3    3  501    0  0.28152677509E+01 -0.76250680990E+02 -0.94694314891E+02  0.12170125454E+03  0.47000000000E+01 0. -1.
        -13    1    4    4    0    0 -0.75690726977E+02  0.13239276283E+02 -0.46664416038E+02  0.89899567913E+02  0.00000000000E+00 0.  1.
         14    1    4    4    0    0 -0.19843686628E+02 -0.34472727343E+02  0.12823381652E+02  0.41792103877E+02  0.00000000000E+00 0. -1.
         -5    1    5    5    0  502  0.24456003516E+01  0.74338159197E+02 -0.26132246410E+02  0.78975484654E+02  0.47000000000E+01 0.  1.
         11    1    6    6    0    0  0.84500301686E+02  0.10236425926E+02  0.19760337484E+02  0.87381670493E+02  0.00000000000E+00 0. -1.
        -12    1    6    6    0    0  0.57732438166E+01  0.12909546927E+02  0.51926109823E+02  0.53817354333E+02  0.00000000000E+00 0.  1.
</event>
<event>
12    1  0.9028446E-003  0.1866553E+03  0.7818608E-02  0.1161822E+00
         21   -1    0    0  503  502  0.00000000000E+00  0.00000000000E+00  0.42959867213E+02  0.42959867213E+02  0.00000000000E+00 0.  1.
         21   -1    0    0  501  503 -0.00000000000E+00 -0.00000000000E+00 -0.82029860361E+03  0.82029860361E+03  0.00000000000E+00 0. -1.
          6    2    1    2  501    0  0.10084189464E+02 -0.70694896969E+02 -0.33148766755E+03  0.38042643907E+03  0.17245504478E+03 0.  0.
         24    2    3    3    0    0 -0.19385530338E+02 -0.94269593577E+02 -0.31489455882E+03  0.33893364497E+03  0.80342251993E+02 0.  0.
         -6    2    1    2    0  502 -0.10084189464E+02  0.70694896969E+02 -0.44585106885E+03  0.48283203175E+03  0.17100916923E+03 0.  0.
        -24    2    5    5    0    0 -0.59477018492E+01  0.11007436323E+03 -0.39351742666E+03  0.41703877224E+03  0.83148252354E+02 0.  0.
          5    1    3    3  501    0  0.29469719802E+02  0.23574696608E+02 -0.16593108732E+02  0.41492794107E+02  0.47000000000E+01 0. -1.
        -13    1    4    4    0    0 -0.42958564707E+02 -0.55129584150E+02 -0.12105608310E+03  0.13978299105E+03  0.00000000000E+00 0.  1.
         14    1    4    4    0    0  0.23573034368E+02 -0.39140009427E+02 -0.19383847572E+03  0.19915065392E+03  0.00000000000E+00 0. -1.
         -5    1    5    5    0  502 -0.41364876149E+01 -0.39379466261E+02 -0.52333642186E+02  0.65793259512E+02  0.47000000000E+01 0.  1.
         11    1    6    6    0    0  0.90030630829E+01  0.46514381696E+02 -0.29543818873E+03  0.29921291117E+03  0.00000000000E+00 0. -1.
        -12    1    6    6    0    0 -0.14950764932E+02  0.63559981534E+02 -0.98079237927E+02  0.11782586107E+03  0.00000000000E+00 0.  1.
</event>
<event>
12    1  0.9028446E-003  0.2058285E+03  0.7818608E-02  0.1145010E+00
         21   -1    0    0  501  502  0.00000000000E+00  0.00000000000E+00  0.42812027623E+03  0.42812027623E+03  0.00000000000E+00 0.  1.
         21   -1    0    0  502  503 -0.00000000000E+00 -0.00000000000E+00 -0.10498443931E+03  0.10498443931E+03  0.00000000000E+00 0. -1.
          6    2    1    2  501    0  0.88991529198E+02 -0.67570830231E+02  0.96318897335E+02  0.22681843852E+03  0.17229035000E+03 0.  0.
         24    2    3    3    0    0 -0.11458567979E+02 -0.13511791040E+02  0.12280486495E+02  0.85054034539E+02  0.82277039115E+02 0.  0.
         -6    2    1    2    0  503 -0.88991529198E+02  0.67570830231E+02  0.22681693958E+03  0.30628627701E+03  0.17285846823E+03 0.  0.
        -24    2    5    5    0    0 -0.28432531466E+01  0.30715616258E+01  0.15836747076E+03  0.17865751498E+03  0.82587730822E+02 0.  0.
          5    1    3    3  501    0  0.10045009718E+03 -0.54059039191E+02  0.84038410840E+02  0.14176440399E+03  0.47000000000E+01 0. -1.
        -11    1    4    4    0    0 -0.16212224457E+02 -0.46850766030E+02  0.11628040077E+01  0.49590146326E+02  0.00000000000E+00 0.  1.
         12    1    4    4    0    0  0.47536564783E+01  0.33338974990E+02  0.11117682487E+02  0.35463888213E+02  0.00000000000E+00 0. -1.
         -5    1    5    5    0  503 -0.86148276051E+02  0.64499268605E+02  0.68449468819E+02  0.12762876204E+03  0.47000000000E+01 0.  1.
         11    1    6    6    0    0 -0.10001036274E+02 -0.12702817803E+02 -0.29315964131E+01  0.16430963581E+02  0.00000000000E+00 0. -1.
        -12    1    6    6    0    0  0.71577831270E+01  0.15774379428E+02  0.16129906718E+03  0.16222655140E+03  0.00000000000E+00 0.  1.
</event>
<event>
12    1  0.9028446E-003  0.1768670E+03  0.7818608E-02  0.1170943E+00
         21   -1    0    0  501  502  0.00000000000E+00  0.00000000000E+00  0.44444521118E+02  0.44444521118E+02  0.00000000000E+00 0. -1.
         21   -1    0    0  502  503 -0.00000000000E+00 -0.00000000000E+00 -0.86063026538E+03  0.86063026538E+03  0.00000000000E+00 0. -1.
          6    2    1    2  501    0 -0.47307970194E+01 -0.38173329501E+02 -0.21449778184E+03  0.27801299791E+03  0.17263355719E+03 0.  0.
         24    2    3    3    0    0 -0.58975355723E+02  0.99711125448E+01 -0.10213364137E+03  0.14419166361E+03  0.82355567440E+02 0.  0.
         -6    2    1    2    0  503  0.47307970194E+01  0.38173329501E+02 -0.60168796242E+03  0.62706178858E+03  0.17233252467E+03 0.  0.
        -24    2    5    5    0    0 -0.20356376269E+02 -0.39591043386E+02 -0.37078028559E+03  0.38207789284E+03  0.80769197394E+02 0.  0.
          5    1    3    3  501    0  0.54244558703E+02 -0.48144442045E+02 -0.11236414047E+03  0.13382133430E+03  0.47000000000E+01 0. -1.
        -13    1    4    4    0    0 -0.16480102578E+02  0.39752118619E+02 -0.72841395145E+02  0.84603153383E+02  0.00000000000E+00 0.  1.
         14    1    4    4    0    0 -0.42495253145E+02 -0.29781006074E+02 -0.29292246223E+02  0.59588510230E+02  0.00000000000E+00 0. -1.
         -5    1    5    5    0  503  0.25087173288E+02  0.77764372887E+02 -0.23090767683E+03  0.24498389574E+03  0.47000000000E+01 0.  1.
         13    1    6    6    0    0  0.25206166163E+02  0.75850098973E+01 -0.92424281048E+02  0.96099588527E+02  0.00000000000E+00 0. -1.
        -14    1    6    6    0    0 -0.45562542432E+02 -0.47176053284E+02 -0.27835600454E+03  0.28597830431E+03  0.00000000000E+00 0.  1.
</event>
<event>
12    1  0.9028446E-003  0.1845158E+03  0.7818608E-02  0.1163526E+00
         21   -1    0    0  501  502  0.00000000000E+00  0.00000000000E+00  0.69359617358E+03  0.69359617358E+03  0.00000000000E+00 0.  1.
         21   -1    0    0  502  503 -0.00000000000E+00 -0.00000000000E+00 -0.56371043945E+02  0.56371043945E+02  0.00000000000E+00 0.  1.
          6    2    1    2  501    0  0.63786244032E+02  0.17235925768E+02  0.45373046680E+03  0.48981365545E+03  0.17227976811E+03 0.  0.
         24    2    3    3    0    0  0.12947847745E+01  0.54622627852E+02  0.14542095881E+03  0.17298595671E+03  0.76102417941E+02 0.  0.
         -6    2    1    2    0  503 -0.63786244032E+02 -0.17235925768E+02  0.18349466284E+03  0.26015356208E+03  0.17217381481E+03 0.  0.
        -24    2    5    5    0    0 -0.29729769776E+01 -0.36391262244E+02  0.29616104492E+02  0.93522589313E+02  0.80846759408E+02 0.  0.
          5    1    3    3  501    0  0.62491459258E+02 -0.37386702084E+02  0.30830950799E+03  0.31682769874E+03  0.47000000000E+01 0. -1.
        -11    1    4    4    0    0  0.81014840541E+00 -0.18321098391E+02  0.47224003071E+02  0.50659899849E+02  0.00000000000E+00 0.  1.
         12    1    4    4    0    0  0.48463636906E+00  0.72943726243E+02  0.98196955740E+02  0.12232605686E+03  0.00000000000E+00 0. -1.
         -5    1    5    5    0  503 -0.60813267055E+02  0.19155336476E+02  0.15387855835E+03  0.16663097276E+03  0.47000000000E+01 0.  1.
         13    1    6    6    0    0  0.26083949434E+02 -0.24395825890E+02  0.45869470893E+02  0.58133786208E+02  0.00000000000E+00 0. -1.
        -14    1    6    6    0    0 -0.29056926412E+02 -0.11995436354E+02 -0.16253366400E+02  0.35388803105E+02  0.00000000000E+00 0.  1.
</event>
<event>
12    1  0.9028446E-003  0.2654049E+03  0.7818608E-02  0.1104007E+00
         21   -1    0    0  503  502  0.00000000000E+00  0.00000000000E+00  0.21090617092E+03  0.21090617092E+03  0.00000000000E+00 0.  1.
         21   -1    0    0  501  503 -0.00000000000E+00 -0.00000000000E+00 -0.39302085285E+03  0.39302085285E+03  0.00000000000E+00 0.  1.
          6    2    1    2  501    0 -0.10766091079E+03 -0.16932383106E+03 -0.20860067770E+03  0.33720377381E+03  0.17300494461E+03 0.  0.
         24    2    3    3    0    0  0.23166156728E+01 -0.12422615220E+03 -0.95983684481E+02  0.17339432925E+03  0.73588192874E+02 0.  0.
         -6    2    1    2    0  502  0.10766091079E+03  0.16932383106E+03  0.26485995771E+02  0.26672324995E+03  0.17371917745E+03 0.  0.
        -24    2    5    5    0    0  0.68089675796E+02  0.14530414610E+03 -0.41586506445E+02  0.18426851411E+03  0.80473280973E+02 0.  0.
          5    1    3    3  501    0 -0.10997752647E+03 -0.45097678860E+02 -0.11261699322E+03  0.16380944456E+03  0.47000000000E+01 0. -1.
        -13    1    4    4    0    0  0.43046320548E+01  0.96162624977E+01 -0.64339741447E+01  0.12344974072E+02  0.00000000000E+00 0.  1.
         14    1    4    4    0    0 -0.19880163820E+01 -0.13384241470E+03 -0.89549710336E+02  0.16104935518E+03  0.00000000000E+00 0. -1.
         -5    1    5    5    0  502  0.39571234999E+02  0.24019684966E+02  0.68072502216E+02  0.82454735844E+02  0.47000000000E+01 0.  1.
         11    1    6    6    0    0  0.85198746194E+02  0.10447338704E+03 -0.25720708555E+02  0.13724091883E+03  0.00000000000E+00 0. -1.
        -12    1    6    6    0    0 -0.17109070398E+02  0.40830759058E+02 -0.15865797891E+02  0.47027595280E+02  0.00000000000E+00 0.  1.
</event>
<event>
12    1  0.9028446E-003  0.1826163E+03  0.7818608E-02  0.1165704E+00
         21   -1    0    0  503  502  0.00000000000E+00  0.00000000000E+00  0.10542240982E+04  0.10542240982E+04  0.00000000000E+00 0.  1.
         21   -1    0    0  501  503 -0.00000000000E+00 -0.00000000000E+00 -0.34135859021E+02  0.34135859021E+02  0.00000000000E+00 0.  1.
          6    2    1    2  501    0 -0.54088715968E+02  0.17548173473E+02  0.35201068721E+03  0.39577325072E+03  0.17173064516E+03 0.  0.
         24    2    3    3    0    0 -0.53994145664E+01 -0.51905226209E+02  0.20329629556E+03  0.22450596522E+03  0.79688383380E+02 0.  0.
         -6    2    1    2    0  502  0.54088715968E+02 -0.17548173473E+02  0.66807755199E+03  0.69258670652E+03  0.17353732449E+03 0.  0.
        -24    2    5    5    0    0  0.73574088677E+01  0.33032205765E+02  0.53469856213E+03  0.54240603279E+03  0.84596063611E+02 0.  0.
          5    1    3    3  501    0 -0.48689301401E+02  0.69453399682E+02  0.14871439165E+03  0.17126728550E+03  0.47000000000E+01 0. -1.
        -13    1    4    4    0    0 -0.32190160730E+02 -0.10574373088E+01  0.11274373456E+03  0.11725388822E+03  0.00000000000E+00 0.  1.
         14    1    4    4    0    0  0.26790746164E+02 -0.50847788900E+02  0.90552561001E+02  0.10725207700E+03  0.00000000000E+00 0. -1.
         -5    1    5    5    0  502  0.46731307100E+02 -0.50580379238E+02  0.13337898986E+03  0.15018067373E+03  0.47000000000E+01 0.  1.
         13    1    6    6    0    0  0.12956764393E+02 -0.24250633326E+02  0.27684523294E+03  0.27820721407E+03  0.00000000000E+00 0. -1.
        -14    1    6    6    0    0 -0.55993555248E+01  0.57282839092E+02  0.25785332919E+03  0.26419881872E+03  0.00000000000E+00 0.  1.
</event>
<event>
12    1  0.9028446E-003  0.2766816E+03  0.7818608E-02  0.1097690E+00
         21   -1    0    0  503  502  0.00000000000E+00  0.00000000000E+00  0.11005605878E+03  0.11005605878E+03  0.00000000000E+00 0. -1.
         21   -1    0    0  501  503 -0.00000000000E+00 -0.00000000000E+00 -0.69385307806E+03  0.69385307806E+03  0.00000000000E+00 0. -1.
          6    2    1    2  501    0 -0.82577353162E+02 -0.19860037231E+03 -0.30947429710E+03  0.41428668063E+03  0.17204065231E+03 0.  0.
         24    2    3    3    0    0 -0.19045644998E+02 -0.14740030244E+03 -0.11508584492E+03  0.20341542740E+03  0.77739942438E+02 0.  0.
         -6    2    1    2    0  502  0.82577353162E+02  0.19860037231E+03 -0.27432272217E+03  0.38962245621E+03  0.17404475099E+03 0.  0.
        -24    2    5    5    0    0  0.62796101373E+02  0.21913899991E+03 -0.26690442893E+03  0.35978532799E+03  0.79007951676E+02 0.  0.
          5    1    3    3  501    0 -0.63531708164E+02 -0.51200069866E+02 -0.19438845219E+03  0.21087125323E+03  0.47000000000E+01 0. -1.
        -11    1    4    4    0    0 -0.17098354814E+02  0.28008513877E+01 -0.90578784233E+01  0.19551052846E+02  0.00000000000E+00 0.  1.
         12    1    4    4    0    0 -0.19472901835E+01 -0.15020115383E+03 -0.10602796649E+03  0.18386437455E+03  0.00000000000E+00 0. -1.
         -5    1    5    5    0  502  0.19781251788E+02 -0.20538627595E+02 -0.74182932420E+01  0.29837128220E+02  0.47000000000E+01 0.  1.
         13    1    6    6    0    0  0.50358624153E+02  0.60353032483E+02 -0.61149937421E+02  0.99588123805E+02  0.00000000000E+00 0. -1.
        -14    1    6    6    0    0  0.12437477220E+02  0.15878596742E+03 -0.20575449151E+03  0.26019720419E+03  0.00000000000E+00 0.  1.
</event>
<event>
12    1  0.9028446E-003  0.1798208E+03  0.7818608E-02  0.1168235E+00
         21   -1    0    0  503  502  0.00000000000E+00  0.00000000000E+00  0.10988165503E+03  0.10988165503E+03  0.00000000000E+00 0. -1.
         21   -1    0    0  501  503 -0.00000000000E+00 -0.00000000000E+00 -0.30319860971E+03  0.30319860971E+03  0.00000000000E+00 0.  1.
          6    2    1    2  501    0 -0.43055874015E+02  0.38875978035E+02 -0.13511382171E+03  0.22407468631E+03  0.16908154918E+03 0.  0.
         24    2    3    3    0    0 -0.34238904744E+02 -0.15260831465E+02 -0.14449543860E+03  0.16822992088E+03  0.77570477177E+02 0.  0.
         -6    2    1    2    0  502  0.43055874015E+02 -0.38875978035E+02 -0.58203132965E+02  0.18900557844E+03  0.17020679786E+03 0.  0.
        -24    2    5    5    0    0  0.41292341606E+02 -0.44853432710E+02 -0.10221857877E+03  0.14430334717E+03  0.81596141183E+02 0.  0.
          5    1    3    3  501    0 -0.88169692708E+01  0.54136809501E+02  0.93816168865E+01  0.55844765426E+02  0.47000000000E+01 0. -1.
        -13    1    4    4    0    0 -0.54884252729E+02  0.38407654802E+01 -0.73079249681E+02  0.91474638076E+02  0.00000000000E+00 0.  1.
         14    1    4    4    0    0  0.20645347986E+02 -0.19101596945E+02 -0.71416188919E+02  0.76755282809E+02  0.00000000000E+00 0. -1.
         -5    1    5    5    0  502  0.17635324087E+01  0.59774546744E+01  0.44015445806E+02  0.44702231270E+02  0.47000000000E+01 0.  1.
         11    1    6    6    0    0 -0.67272052861E+01  0.10114696646E+02  0.61743676769E+01  0.13626635513E+02  0.00000000000E+00 0. -1.
        -12    1    6    6    0    0  0.48019546892E+02 -0.54968129355E+02 -0.10839294645E+03  0.13067671165E+03  0.00000000000E+00 0.  1.
</event>
<event>
12    1  0.9028446E-003  0.1786898E+03  0.7818608E-02  0.1170959E+00
         21   -1    0    0  503  502  0.00000000000E+00  0.00000000000E+00  0.73583504993E+02  0.73583504993E+02  0.00000000000E+00 0.  1.
         21   -1    0    0  501  503 -0.00000000000E+00 -0.00000000000E+00 -0.42239520993E+03  0.42239520993E+03  0.00000000000E+00 0.  1.
          6    2    1    2  501    0  0.10025999112E+02  0.47446186665E+02 -0.20898256075E+03  0.27496134552E+03  0.17198363163E+03 0.  0.
         24    2    3    3    0    0  0.56479102010E+02  0.27264446416E+02 -0.61633594154E+02  0.11907997600E+03  0.80300073186E+02 0.  0.
         -6    2    1    2    0  502 -0.10025999112E+02 -0.47446186665E+02 -0.13982914419E+03  0.22101736940E+03  0.16414879446E+03 0.  0.
        -24    2    5    5    0    0 -0.15411937229E+02 -0.10835672755E+02 -0.15875157271E+03  0.17919050770E+03  0.80945886851E+02 0.  0.
          5    1    3    3  501    0 -0.46453102898E+02  0.20181740249E+02 -0.14734896659E+03  0.15588136952E+03  0.47000000000E+01 0. -1.
        -11    1    4    4    0    0  0.25328509875E+02 -0.26454912107E+02 -0.37611375600E+02  0.52497727204E+02  0.00000000000E+00 0.  1.
         12    1    4    4    0    0  0.31150592135E+02  0.53719358523E+02 -0.24022218554E+02  0.66582248796E+02  0.00000000000E+00 0. -1.
         -5    1    5    5    0  502  0.53859381176E+01 -0.36610513910E+02  0.18922428524E+02  0.41826861697E+02  0.47000000000E+01 0.  1.
         11    1    6    6    0    0  0.83854361208E+01 -0.42576404648E+02 -0.80014272459E+02  0.91023895592E+02  0.00000000000E+00 0. -1.
        -12    1    6    6    0    0 -0.23797373350E+02  0.31740731893E+02 -0.78737300254E+02  0.88166612109E+02  0.00000000000E+00 0.  1.
</event>
<event>
12    1  0.9028446E-003  0.1766517E+03  0.7818608E-02  0.1171471E+00
         21   -1    0    0  501  502  0.00000000000E+00  0.00000000000E+00  0.36275177704E+03  0.36275177704E+03  0.00000000000E+00 0.  1.
         21   -1    0    0  502  503 -0.00000000000E+00 -0.00000000000E+00 -0.95443194921E+02  0.95443194921E+02  0.00000000000E+00 0.  1.
          6    2    1    2  501    0  0.38809849543E+02 -0.16308632458E+02  0.20897883618E+03  0.27363841398E+03  0.17156238435E+03 0.  0.
         24    2    3    3    0    0  0.56659440117E+02 -0.37841583676E+02  0.21971411534E+03  0.24331330738E+03  0.79276701862E+02 0.  0.
         -6    2    1    2    0  503 -0.38809849543E+02  0.16308632458E+02  0.58329745940E+02  0.18455655798E+03  0.16996054812E+03 0.  0.
        -24    2    5    5    0    0 -0.59051137057E+02 -0.29181425916E+02 -0.36527888400E+01  0.10491373188E+03  0.81577912845E+02 0.  0.
          5    1    3    3  501    0 -0.17849590573E+02  0.21532951218E+02 -0.10735279163E+02  0.30325106603E+02  0.47000000000E+01 0. -1.
        -11    1    4    4    0    0  0.49559905078E+02  0.32413020405E+01  0.17613306446E+03  0.18300149350E+03  0.00000000000E+00 0.  1.
         12    1    4    4    0    0  0.70995350392E+01 -0.41082885716E+02  0.43581050884E+02  0.60311813874E+02  0.00000000000E+00 0. -1.
         -5    1    5    5    0  503  0.20241287514E+02  0.45490058374E+02  0.61982534780E+02  0.79642826098E+02  0.47000000000E+01 0.  1.
         13    1    6    6    0    0  0.13285949093E+02 -0.20612510445E+01  0.20018720377E+02  0.24114608948E+02  0.00000000000E+00 0. -1.
        -14    1    6    6    0    0 -0.72337086150E+02 -0.27120174872E+02 -0.23671509217E+02  0.80799122931E+02  0.00000000000E+00 0.  1.
</event>
<event>
12    1  0.9028446E-003  0.1841482E+03  0.7818608E-02  0.1163858E+00
         21   -1    0    0  503  502  0.00000000000E+00  0.00000000000E+00  0.18495751991E+03  0.18495751991E+03  0.00000000000E+00 0.  1.
         21   -1    0    0  501  503 -0.00000000000E+00 -0.00000000000E+00 -0.20001239509E+03  0.20001239509E+03  0.00000000000E+00 0. -1.
          6    2    1    2  501    0  0.11713195289E+02  0.64842105996E+02 -0.63167775802E+02  0.19464012688E+03  0.17190960833E+03 0.  0.
         24    2    3    3    0    0 -0.18023324895E+02  0.10374045832E+03 -0.30845478913E+02  0.13578298354E+03  0.79991575289E+02 0.  0.
         -6    2    1    2    0  502 -0.11713195289E+02 -0.64842105996E+02  0.48112900622E+02  0.19032978812E+03  0.17195603911E+03 0.  0.
        -24    2    5    5    0    0  0.50681087736E+02 -0.49596347286E+02 -0.42373310937E+01  0.10733511074E+03  0.80464282167E+02 0.  0.
          5    1    3    3  501    0  0.29736520185E+02 -0.38898352320E+02 -0.32322296889E+02  0.58857143339E+02  0.47000000000E+01 0. -1.
        -11    1    4    4    0    0  0.99781606321E+01  0.73103512903E+02  0.13541435028E+02  0.75013717085E+02  0.00000000000E+00 0.  1.
         12    1    4    4    0    0 -0.28001485527E+02  0.30636945413E+02 -0.44386913941E+02  0.60769266452E+02  0.00000000000E+00 0. -1.
         -5    1    5    5    0  502 -0.62394283025E+02 -0.15245758710E+02  0.52350231716E+02  0.82994677381E+02  0.47000000000E+01 0.  1.
         13    1    6    6    0    0  0.61233899485E+02 -0.62912993105E+02 -0.12081969926E+02  0.88620590975E+02  0.00000000000E+00 0. -1.
        -14    1    6    6    0    0 -0.10552811749E+02  0.13316645818E+02  0.78446388320E+01  0.18714519766E+02  0.00000000000E+00 0.  1.
</event>
<event>
12    1  0.9028446E-003  0.1880104E+03  0.7818608E-02  0.1160490E+00
         21   -1    0    0  503  502  0.00000000000E+00  0.00000000000E+00  0.74222387370E+03  0.74222387370E+03  0.00000000000E+00 0.  1.
         21   -1    0    0  501  503 -0.00000000000E+00 -0.00000000000E+00 -0.50938757222E+02  0.50938757222E+02  0.00000000000E+00 0.  1.
          6    2    1    2  501    0 -0.40828419652E+02  0.60709247060E+02  0.24163626130E+03  0.30616331404E+03  0.17319156897E+03 0.  0.
         24    2    3    3    0    0 -0.34040004555E+02  0.10863388339E+03  0.19534142214E+03  0.23902051488E+03  0.77540265669E+02 0.  0.
         -6    2    1    2    0  502  0.40828419652E+02 -0.60709247060E+02  0.44964885518E+03  0.48699931688E+03  0.17213851732E+03 0.  0.
        -24    2    5    5    0    0  0.85316191396E+02 -0.80842672931E+01  0.28042116277E+03  0.30421897820E+03  0.81049060907E+02 0.  0.
          5    1    3    3  501    0 -0.67884150965E+01 -0.47924636328E+02  0.46294839156E+02  0.67142799161E+02  0.47000000000E+01 0. -1.
        -11    1    4    4    0    0 -0.36756029635E+02  0.31310994666E+02  0.31005877062E+02  0.57382475669E+02  0.00000000000E+00 0.  1.
         12    1    4    4    0    0  0.27160250799E+01  0.77322888722E+02  0.16433554508E+03  0.18163803921E+03  0.00000000000E+00 0. -1.
         -5    1    5    5    0  502 -0.44487771745E+02 -0.52624979766E+02  0.16922769241E+03  0.18278033868E+03  0.47000000000E+01 0.  1.
         11    1    6    6    0    0  0.13925110185E+02  0.19309109778E+02  0.15867586582E+03  0.16045180213E+03  0.00000000000E+00 0. -1.
        -12    1    6    6    0    0  0.71391081211E+02 -0.27393377071E+02  0.12174529695E+03  0.14376717606E+03  0.00000000000E+00 0.  1.
</event>
<event>
12    1  0.9028446E-003  0.1897390E+03  0.7818608E-02  0.1158717E+00
         21   -1    0    0  501  502  0.00000000000E+00  0.00000000000E+00  0.60147086208E+02  0.60147086208E+02  0.00000000000E+00 0.  1.
         21   -1    0    0  502  503 -0.00000000000E+00 -0.00000000000E+00 -0.60156697999E+03  0.60156697999E+03  0.00000000000E+00 0.  1.
          6    2    1    2  501    0  0.45246905154E+02 -0.66037093155E+02 -0.29528752064E+03  0.35099231297E+03  0.17202529993E+03 0.  0.
         24    2    3    3    0    0  0.85457546384E+02 -0.56571409283E+02 -0.27729811917E+03  0.30569106128E+03  0.77778284032E+02 0.  0.
         -6    2    1    2    0  503 -0.45246905154E+02  0.66037093155E+02 -0.24613237314E+03  0.31072175323E+03  0.17192638752E+03 0.  0.
        -24    2    5    5    0    0 -0.81787288455E+02  0.41660779261E+02 -0.24130174632E+03  0.26628270232E+03  0.65231615754E+02 0.  0.
          5    1    3    3  501    0 -0.40210641230E+02 -0.94656838723E+01 -0.17989401469E+02  0.45301251688E+02  0.47000000000E+01 0. -1.
        -11    1    4    4    0    0  0.24278964744E+02 -0.26757316841E+02 -0.19765767483E+03  0.20093277123E+03  0.00000000000E+00 0.  1.
         12    1    4    4    0    0  0.61178581640E+02 -0.29814092442E+02 -0.79640444343E+02  0.10475829005E+03  0.00000000000E+00 0. -1.
         -5    1    5    5    0  503  0.36540383301E+02  0.24376313894E+02 -0.48306268187E+01  0.44439050915E+02  0.47000000000E+01 0.  1.
         13    1    6    6    0    0 -0.25923839406E+02 -0.62817712213E+00 -0.14436684355E+03  0.14667728377E+03  0.00000000000E+00 0. -1.
        -14    1    6    6    0    0 -0.55863449048E+02  0.42288956383E+02 -0.96934902771E+02  0.11960541855E+03  0.00000000000E+00 0.  1.
</event>
<event>
12    1  0.9028446E-003  0.2235013E+03  0.7818608E-02  0.1131429E+00
         21   -1    0    0  503  502  0.00000000000E+00  0.00000000000E+00  0.55469301307E+03  0.55469301307E+03  0.00000000000E+00 0. -1.
         21   -1    0    0  501  503 -0.00000000000E+00 -0.00000000000E+00 -0.12530895206E+03  0.12530895206E+03  0.00000000000E+00 0. -1.
          6    2    1    2  501    0  0.11987473331E+03  0.75302849687E+02  0.33865711768E+02  0.22605249653E+03  0.17295194101E+03 0.  0.
         24    2    3    3    0    0  0.58803817065E+02  0.11026340305E+03  0.74197627646E+01  0.15073068482E+03  0.83957009908E+02 0.  0.
         -6    2    1    2    0  502 -0.11987473331E+03 -0.75302849687E+02  0.39551834924E+03  0.45394946859E+03  0.17203163834E+03 0.  0.
        -24    2    5    5    0    0  0.21746537071E+02 -0.15137678028E+02  0.72783884847E+02  0.96379815779E+02  0.57354283410E+02 0.  0.
          5    1    3    3  501    0  0.61070916241E+02 -0.34960553360E+02  0.26445949004E+02  0.75321811718E+02  0.47000000000E+01 0. -1.
        -13    1    4    4    0    0 -0.11195002016E+02  0.53704318249E+02  0.22844562950E+02  0.59425212873E+02  0.00000000000E+00 0.  1.
         14    1    4    4    0    0  0.69998819081E+02  0.56559084798E+02 -0.15424800186E+02  0.91305471943E+02  0.00000000000E+00 0. -1.
         -5    1    5    5    0  502 -0.14162127038E+03 -0.60165171659E+02  0.32273446440E+03  0.35756965281E+03  0.47000000000E+01 0.  1.
         11    1    6    6    0    0  0.25463158943E+02  0.16191867734E+01  0.74861857715E+02  0.79090403778E+02  0.00000000000E+00 0. -1.
        -12    1    6    6    0    0 -0.37166218727E+01 -0.16756864801E+02 -0.20779728680E+01  0.17289412001E+02  0.00000000000E+00 0.  1.
</event>
<event>
12    1  0.9028446E-003  0.1925985E+03  0.7818608E-02  0.1156623E+00
         21   -1    0    0  501  502  0.00000000000E+00  0.00000000000E+00  0.62749478791E+02  0.62749478791E+02  0.00000000000E+00 0. -1.
         21   -1    0    0  502  503 -0.00000000000E+00 -0.00000000000E+00 -0.59703595924E+03  0.59703595924E+03  0.00000000000E+00 0. -1.
          6    2    1    2  501    0 -0.33045890453E+02 -0.75683294793E+02 -0.21784348997E+03  0.28933930151E+03  0.17158511966E+03 0.  0.
         24    2    3    3    0    0 -0.58357389934E+02 -0.41662690286E+02 -0.22211795761E+03  0.24646233087E+03  0.79157619512E+02 0.  0.
         -6    2    1    2    0  503  0.33045890453E+02  0.75683294793E+02 -0.31644299048E+03  0.37044613653E+03  0.17399477536E+03 0.  0.
        -24    2    5    5    0    0  0.57107940964E+02  0.83500922438E+02 -0.14351412196E+03  0.19561312721E+03  0.86223380622E+02 0.  0.
          5    1    3    3  501    0  0.25311499482E+02 -0.34020604507E+02  0.42744676410E+01  0.42876970633E+02  0.47000000000E+01 0. -1.
        -13    1    4    4    0    0 -0.15972894473E+02  0.71030385325E+01 -0.14413407727E+03  0.14519028460E+03  0.00000000000E+00 0.  1.
         14    1    4    4    0    0 -0.42384495461E+02 -0.48765728818E+02 -0.77983880340E+02  0.10127204627E+03  0.00000000000E+00 0. -1.
         -5    1    5    5    0  503 -0.24062050511E+02 -0.78176276449E+01 -0.17292886853E+03  0.17483300932E+03  0.47000000000E+01 0.  1.
         11    1    6    6    0    0  0.13815067547E+02  0.15211504168E+02 -0.10327146288E+03  0.10529596856E+03  0.00000000000E+00 0. -1.
        -12    1    6    6    0    0  0.43292873417E+02  0.68289418270E+02 -0.40242659080E+02  0.90317158647E+02  0.00000000000E+00 0.  1.
</event>
<event>
12    1  0.9028446E-003  0.1961925E+03  0.7818608E-02  0.1153052E+00
         21   -1    0    0  501  502  0.00000000000E+00  0.00000000000E+00  0.37276742617E+02  0.37276742617E+02  0.00000000000E+00 0.  1.
         21   -1    0    0  502  503 -0.00000000000E+00 -0.00000000000E+00 -0.10311199652E+04  0.10311199652E+04  0.00000000000E+00 0.  1.
          6    2    1    2  501    0 -0.93355541276E+02  0.56586396651E+01 -0.49582039217E+03  0.53322543155E+03  0.17246513351E+03 0.  0.
         24    2    3    3    0    0 -0.73533409011E+02 -0.19467435031E+02 -0.14993974843E+03  0.18583552630E+03  0.79162942146E+02 0.  0.
         -6    2    1    2    0  503  0.93355541276E+02 -0.56586396651E+01 -0.49802283039E+03  0.53517127624E+03  0.17214609503E+03 0.  0.
        -24    2    5    5    0    0  0.10343812377E+03  0.50967250520E+02 -0.34366839725E+03  0.37038192301E+03  0.76011154096E+02 0.  0.
          5    1    3    3  501    0 -0.19822132265E+02  0.25126074696E+02 -0.34588064374E+03  0.34738990525E+03  0.47000000000E+01 0. -1.
        -11    1    4    4    0    0 -0.76553102070E+02  0.12061619652E+02 -0.97162210669E+02  0.12428336690E+03  0.00000000000E+00 0.  1.
         12    1    4    4    0    0  0.30196930584E+01 -0.31529054683E+02 -0.52777537758E+02  0.61552159403E+02  0.00000000000E+00 0. -1.
         -5    1    5    5    0  503 -0.10082582495E+02 -0.56625890185E+02 -0.15435443314E+03  0.16478935324E+03  0.47000000000E+01 0.  1.
         13    1    6    6    0    0  0.28653819684E+02  0.32064172557E+02 -0.46372422687E+02  0.63242028194E+02  0.00000000000E+00 0. -1.
        -14    1    6    6    0    0  0.74784304088E+02  0.18903077963E+02 -0.29729597456E+03  0.30713989481E+03  0.00000000000E+00 0.  1.
</event>
<event>
12    1  0.9028446E-003  0.1889674E+03  0.7818608E-02  0.1159528E+00
         21   -1    0    0  501  502  0.00000000000E+00  0.00000000000E+00  0.33440194388E+03  0.33440194388E+03  0.00000000000E+00 0.  1.
         21   -1    0    0  502  503 -0.00000000000E+00 -0.00000000000E+00 -0.10651963454E+03  0.10651963454E+03  0.00000000000E+00 0. -1.
          6    2    1    2  501    0  0.73247926995E+02 -0.31010173046E+02  0.11946059191E+03  0.22356096504E+03  0.17141115025E+03 0.  0.
         24    2    3    3    0    0 -0.13010153738E+02  0.23863709381E+02  0.60513656686E+02  0.10545749076E+03  0.81979503456E+02 0.  0.
         -6    2    1    2    0  503 -0.73247926995E+02  0.31010173046E+02  0.10842171743E+03  0.21736061338E+03  0.17077317646E+03 0.  0.
        -24    2    5    5    0    0 -0.19532341661E+02 -0.44608949008E+02  0.73093981955E+02  0.11799384518E+03  0.78793061881E+02 0.  0.
          5    1    3    3  501    0  0.86258080733E+02 -0.54873882427E+02  0.58946935220E+02  0.11810347428E+03  0.47000000000E+01 0. -1.
        -11    1    4    4    0    0  0.13360667257E+02 -0.23849806222E+02  0.37202715433E+02  0.46166684113E+02  0.00000000000E+00 0.  1.
         12    1    4    4    0    0 -0.26370820995E+02  0.47713515603E+02  0.23310941253E+02  0.59290806650E+02  0.00000000000E+00 0. -1.
         -5    1    5    5    0  503 -0.53715585334E+02  0.75619122054E+02  0.35327735473E+02  0.99366768196E+02  0.47000000000E+01 0.  1.
         11    1    6    6    0    0 -0.45159065630E+02 -0.89065180805E+01  0.51354023598E+02  0.68963055419E+02  0.00000000000E+00 0. -1.
        -12    1    6    6    0    0  0.25626723970E+02 -0.35702430927E+02  0.21739958356E+02  0.49030789764E+02  0.00000000000E+00 0.  1.
</event>
<event>
12    1  0.9028446E-003  0.3914363E+03  0.7818608E-02  0.1046801E+00
         21   -1    0    0  501  502  0.00000000000E+00  0.00000000000E+00  0.14980266861E+03  0.14980266861E+03  0.00000000000E+00 0.  1.
         21   -1    0    0  502  503 -0.00000000000E+00 -0.00000000000E+00 -0.14367604281E+04  0.14367604281E+04  0.00000000000E+00 0. -1.
          6    2    1    2  501    0 -0.34560373574E+03  0.63316362485E+02 -0.21755746860E+03  0.44783212047E+03  0.17254405831E+03 0.  0.
         24    2    3    3    0    0 -0.18012682651E+03 -0.11853733499E+02 -0.16908622855E+03  0.25967074841E+03  0.79073132417E+02 0.  0.
         -6    2    1    2    0  503  0.34560373574E+03 -0.63316362485E+02 -0.10694002909E+04  0.11387309762E+04  0.17216373077E+03 0.  0.
        -24    2    5    5    0    0  0.12784563970E+03  0.28395223286E+01 -0.29814457732E+03  0.33458381608E+03  0.81875335245E+02 0.  0.
          5    1    3    3  501    0 -0.16547690924E+03  0.75170095984E+02 -0.48471240054E+02  0.18816137205E+03  0.47000000000E+01 0. -1.
        -11    1    4    4    0    0 -0.63682342906E+02  0.72620784615E+01 -0.15420849448E+02  0.65924056150E+02  0.00000000000E+00 0.  1.
         12    1    4    4    0    0 -0.11644448360E+03 -0.19115811961E+02 -0.15366537910E+03  0.19374669226E+03  0.00000000000E+00 0. -1.
         -5    1    5    5    0  503  0.21775809604E+03 -0.66155884814E+02 -0.77125571354E+03  0.80414716014E+03  0.47000000000E+01 0.  1.
         13    1    6    6    0    0  0.11284074125E+03 -0.66157643169E+01 -0.29584050702E+03  0.31669923716E+03  0.00000000000E+00 0. -1.
        -14    1    6    6    0    0  0.15004898454E+02  0.94552866455E+01 -0.23040702929E+01  0.17884578918E+02  0.00000000000E+00 0.  1.
</event>
<event>
12    1  0.9028446E-003  0.2289672E+03  0.7818608E-02  0.1127721E+00
         21   -1    0    0  501  502  0.00000000000E+00  0.00000000000E+00  0.22854128968E+03  0.22854128968E+03  0.00000000000E+00 0.  1.
         21   -1    0    0  502  503 -0.00000000000E+00 -0.00000000000E+00 -0.42059656307E+03  0.42059656307E+03  0.00000000000E+00 0. -1.
          6    2    1    2  501    0  0.14814516125E+03  0.17054879457E+01  0.12371232261E+03  0.26025127629E+03  0.17457402600E+03 0.  0.
         24    2    3    3    0    0  0.30056533969E+02 -0.29818913659E+02  0.10578202141E+03  0.13662968638E+03  0.75400744711E+02 0.  0.
         -6    2    1    2    0  503 -0.14814516125E+03 -0.17054879457E+01 -0.31576759600E+03  0.38888657646E+03  0.17197004733E+03 0.  0.
        -24    2    5    5    0    0 -0.44431446215E+02  0.55690516124E+02 -0.16875748081E+03  0.19998210341E+03  0.80238191387E+02 0.  0.
          5    1    3    3  501    0  0.11808862728E+03  0.31524401605E+02  0.17930301206E+02  0.12362158991E+03  0.47000000000E+01 0. -1.
        -11    1    4    4    0    0  0.44117115228E+02 -0.46873742107E+02  0.79049674308E+02  0.10194272197E+03  0.00000000000E+00 0.  1.
         12    1    4    4    0    0 -0.14060581259E+02  0.17054828448E+02  0.26732347097E+02  0.34686964411E+02  0.00000000000E+00 0. -1.
         -5    1    5    5    0  503 -0.10371371504E+03 -0.57396004070E+02 -0.14701011519E+03  0.18890447305E+03  0.47000000000E+01 0.  1.
         11    1    6    6    0    0 -0.40640713665E+02 -0.43939512797E+01 -0.37060039274E+02  0.55176271404E+02  0.00000000000E+00 0. -1.
        -12    1    6    6    0    0 -0.37907325492E+01  0.60084467404E+02 -0.13169744154E+03  0.14480583201E+03  0.00000000000E+00 0.  1.
</event>
<event>
12    1  0.9028446E-003  0.1735136E+03  0.7818608E-02  0.1174769E+00
         21   -1    0    0  501  502  0.00000000000E+00  0.00000000000E+00  0.24543565936E+03  0.24543565936E+03  0.00000000000E+00 0. -1.
         21   -1    0    0  502  503 -0.00000000000E+00 -0.00000000000E+00 -0.12996601825E+03  0.12996601825E+03  0.00000000000E+00 0. -1.
          6    2    1    2  501    0 -0.81598122164E+01 -0.17509136053E+02  0.86222434289E+01  0.17162889392E+03  0.17032023299E+03 0.  0.
         24    2    3    3    0    0 -0.49875986975E+02  0.27667714986E+02 -0.25189383855E+02  0.10129751226E+03  0.79834606540E+02 0.  0.
         -6    2    1    2    0  503  0.81598122164E+01  0.17509136053E+02  0.10684739769E+03  0.20377278370E+03  0.17243499819E+03 0.  0.
        -24    2    5    5    0    0 -0.33923183995E+02 -0.65141719771E+01  0.13428683883E+01  0.87577286361E+02  0.80465899249E+02 0.  0.
          5    1    3    3  501    0  0.41716174759E+02 -0.45176851039E+02  0.33811627284E+02  0.70331381658E+02  0.47000000000E+01 0. -1.
        -11    1    4    4    0    0  0.18828310947E+01  0.33229682969E+02  0.14031080472E+02  0.36119635966E+02  0.00000000000E+00 0.  1.
         12    1    4    4    0    0 -0.51758818070E+02 -0.55619679830E+01 -0.39220464327E+02  0.65177876291E+02  0.00000000000E+00 0. -1.
         -5    1    5    5    0  503  0.42082996211E+02  0.24023308030E+02  0.10550452930E+03  0.11619549734E+03  0.47000000000E+01 0.  1.
         11    1    6    6    0    0 -0.27487030334E+02  0.28997236717E+02  0.22387965774E+02  0.45799536955E+02  0.00000000000E+00 0. -1.
        -12    1    6    6    0    0 -0.64361536606E+01 -0.35511408694E+02 -0.21045097386E+02  0.41777749405E+02  0.00000000000E+00 0.  1.
</event>
<event>
12    1  0.9028446E-003  0.2432907E+03  0.7818608E-02  0.1117627E+00
         21   -1    0    0  503  502  0.00000000000E+00  0.00000000000E+00  0.51895240023E+02  0.51895240023E+02  0.00000000000E+00 0. -1.
         21   -1    0    0  501  503 -0.00000000000E+00 -0.00000000000E+00 -0.11838789869E+04  0.11838789869E+04  0.00000000000E+00 0.  1.
          6    2    1    2  501    0  0.58020381648E+01 -0.17219998932E+03 -0.68450080695E+03  0.72645147116E+03  0.17176695046E+03 0.  0.
         24    2    3    3    0    0  0.50476845741E+02 -0.15365406491E+03 -0.62033457742E+03  0.64595808786E+03  0.79305609532E+02 0.  0.
         -6    2    1    2    0  502 -0.58020381648E+01  0.17219998932E+03 -0.44748293995E+03  0.50932275578E+03  0.17170377994E+03 0.  0.
        -24    2    5    5    0    0  0.68486674725E+01  0.10138815914E+03 -0.40472851733E+03  0.42551114382E+03  0.83235195188E+02 0.  0.
          5    1    3    3  501    0 -0.44674807576E+02 -0.18545924404E+02 -0.64166229532E+02  0.80493383307E+02  0.47000000000E+01 0. -1.
        -13    1    4    4    0    0  0.24345740503E+02 -0.14365556965E+03 -0.57044170057E+03  0.58875578258E+03  0.00000000000E+00 0.  1.
         14    1    4    4    0    0  0.26131105237E+02 -0.99984952613E+01 -0.49892876846E+02  0.57202305271E+02  0.00000000000E+00 0. -1.
         -5    1    5    5    0  502 -0.12650705637E+02  0.70811830175E+02 -0.42754422620E+02  0.83811611961E+02  0.47000000000E+01 0.  1.
         13    1    6    6    0    0  0.17652835404E+02  0.55831486711E+02 -0.90352704478E+02  0.10766795583E+03  0.00000000000E+00 0. -1.
        -14    1    6    6    0    0 -0.10804167931E+02  0.45556672429E+02 -0.31437581285E+03  0.31784318799E+03  0.00000000000E+00 0.  1.
</event>
<event>
12    1  0.9028446E-003  0.2174901E+03  0.7818608E-02  0.1136575E+00
         21   -1    0    0  501  502  0.00000000000E+00  0.00000000000E+00  0.30186041162E+02  0.30186041162E+02  0.00000000000E+00 0.  1.
         21   -1    0    0  502  503 -0.00000000000E+00 -0.00000000000E+00 -0.16043334135E+04  0.16043334135E+04  0.00000000000E+00 0.  1.
          6    2    1    2  501    0 -0.12255144472E+03 -0.24301690944E+02 -0.61197839188E+03  0.64807579249E+03  0.17284458887E+03 0.  0.
         24    2    3    3    0    0 -0.10306243580E+03  0.46449682844E+02 -0.35628494435E+03  0.38201789001E+03  0.78862335817E+02 0.  0.
         -6    2    1    2    0  503  0.12255144472E+03  0.24301690944E+02 -0.96216898046E+03  0.98644366217E+03  0.17802393911E+03 0.  0.
        -24    2    5    5    0    0  0.14024901116E+02 -0.20350029889E+02 -0.59891274643E+03  0.60467282987E+03  0.79510576488E+02 0.  0.
          5    1    3    3  501    0 -0.19489008919E+02 -0.70751373788E+02 -0.25569344753E+03  0.26605790248E+03  0.47000000000E+01 0. -1.
        -13    1    4    4    0    0 -0.62921727479E+02  0.61927801575E+02 -0.28874207720E+03  0.30193738348E+03  0.00000000000E+00 0.  1.
         14    1    4    4    0    0 -0.40140708319E+02 -0.15478118731E+02 -0.67542867152E+02  0.80080506535E+02  0.00000000000E+00 0. -1.
         -5    1    5    5    0  503  0.10852654360E+03  0.44651720832E+02 -0.36325623402E+03  0.38177083230E+03  0.47000000000E+01 0.  1.
         13    1    6    6    0    0 -0.72303707452E+01 -0.38485967102E+02 -0.15459680342E+03  0.15947921354E+03  0.00000000000E+00 0. -1.
        -14    1    6    6    0    0  0.21255271861E+02  0.18135937214E+02 -0.44431594301E+03  0.44519361633E+03  0.00000000000E+00 0.  1.
</event>
<event>
12    1  0.9028446E-003  0.2902910E+03  0.7818608E-02  0.1090454E+00
         21   -1    0    0  503  502  0.00000000000E+00  0.00000000000E+00  0.35314514714E+03  0.35314514714E+03  0.00000000000E+00 0. -1.
         21   -1    0    0  501  503 -0.00000000000E+00 -0.00000000000E+00 -0.25508956734E+03  0.25508956734E+03  0.00000000000E+00 0.  1.
          6    2    1    2  501    0  0.16053511191E+02 -0.23297781802E+03 -0.32085123451E+02  0.29010662865E+03  0.16910358344E+03 0.  0.
         24    2    3    3    0    0  0.16777418376E+02 -0.15493787226E+03 -0.85448310809E+02  0.19544683285E+03  0.81306977720E+02 0.  0.
         -6    2    1    2    0  502 -0.16053511191E+02  0.23297781802E+03  0.13014070325E+03  0.31812808582E+03  0.17243113824E+03 0.  0.
        -24    2    5    5    0    0  0.30045776337E+02  0.16395117281E+03  0.34263507897E+02  0.19122517550E+03  0.87237285769E+02 0.  0.
          5    1    3    3  501    0 -0.72390718576E+00 -0.78039945761E+02  0.53363187358E+02  0.94659795801E+02  0.47000000000E+01 0. -1.
        -11    1    4    4    0    0 -0.10091247797E+02 -0.14613767910E+03 -0.63511217568E+02  0.15966129553E+03  0.00000000000E+00 0.  1.
         12    1    4    4    0    0  0.26868666173E+02 -0.88001931590E+01 -0.21937093241E+02  0.35785537322E+02  0.00000000000E+00 0. -1.
         -5    1    5    5    0  502 -0.46099287528E+02  0.69026645204E+02  0.95877195353E+02  0.12690291032E+03  0.47000000000E+01 0.  1.
         11    1    6    6    0    0  0.39784855798E+02  0.14739367965E+03  0.55634552986E+02  0.16248979980E+03  0.00000000000E+00 0. -1.
        -12    1    6    6    0    0 -0.97390794611E+01  0.16557493162E+02 -0.21371045088E+02  0.28735375702E+02  0.00000000000E+00 0.  1.
</event>
<event>
12    1  0.9028446E-003  0.3297735E+03  0.7818608E-02  0.1071256E+00
         21   -1    0    0  503  502  0.00000000000E+00  0.00000000000E+00  0.10259958183E+03  0.10259958183E+03  0.00000000000E+00 0. -1.
         21   -1    0    0  501  503 -0.00000000000E+00 -0.00000000000E+00 -0.13503640630E+04  0.13503640630E+04  0.00000000000E+00 0. -1.
          6    2    1    2  501    0  0.27842349976E+03  0.29725415829E+02 -0.96097735604E+03  0.10159311691E+04  0.17388333999E+03 0.  0.
         24    2    3    3    0    0  0.22119135624E+03 -0.28862315527E+02 -0.81221666739E+03  0.84604923065E+03  0.79653854690E+02 0.  0.
         -6    2    1    2    0  502 -0.27842349976E+03 -0.29725415829E+02 -0.28678712516E+03  0.43703247577E+03  0.17420471909E+03 0.  0.
        -24    2    5    5    0    0 -0.28902716751E+03 -0.14938773406E+02 -0.29111557069E+03  0.41774755927E+03  0.77491143155E+02 0.  0.
          5    1    3    3  501    0  0.57232143528E+02  0.58587731355E+02 -0.14876068865E+03  0.16988193844E+03  0.47000000000E+01 0. -1.
        -11    1    4    4    0    0  0.33803892202E+02 -0.32784163493E+02 -0.21568282651E+03  0.22076364319E+03  0.00000000000E+00 0.  1.
         12    1    4    4    0    0  0.18738746403E+03  0.39218479659E+01 -0.59653384088E+03  0.62528558746E+03  0.00000000000E+00 0. -1.
         -5    1    5    5    0  502  0.10603667746E+02 -0.14786642422E+02  0.43284455280E+01  0.19284916502E+02  0.47000000000E+01 0.  1.
         11    1    6    6    0    0 -0.15305833022E+03  0.17038780827E+02 -0.11109177303E+03  0.18989090167E+03  0.00000000000E+00 0. -1.
        -12    1    6    6    0    0 -0.13596883729E+03 -0.31977554233E+02 -0.18002379766E+03  0.22785665760E+03  0.00000000000E+00 0.  1.
</event>
<event>
12    1  0.9028446E-003  0.1740422E+03  0.7818608E-02  0.1173796E+00
         21   -1    0    0  503  502  0.00000000000E+00  0.00000000000E+00  0.18140291735E+03  0.18140291735E+03  0.00000000000E+00 0. -1.
         21   -1    0    0  501  503 -0.00000000000E+00 -0.00000000000E+00 -0.23043117813E+03  0.23043117813E+03  0.00000000000E+00 0. -1.
          6    2    1    2  501    0  0.24369460914E+02  0.55818292404E+01 -0.13290778945E+03  0.21898671628E+03  0.17223726068E+03 0.  0.
         24    2    3    3    0    0  0.23635258063E+02  0.18396580730E+02 -0.20263369601E-01  0.85398013543E+02  0.79973499987E+02 0.  0.
         -6    2    1    2    0  502 -0.24369460914E+02 -0.55818292404E+01  0.83879528674E+02  0.19284737921E+03  0.17184094068E+03 0.  0.
        -24    2    5    5    0    0  0.57259613516E+00  0.29512353304E+02  0.11241581636E+03  0.14098103585E+03  0.79793670405E+02 0.  0.
          5    1    3    3  501    0  0.73420285176E+00 -0.12814751490E+02 -0.13288752608E+03  0.13358870273E+03  0.47000000000E+01 0. -1.
        -13    1    4    4    0    0 -0.16934094526E+02 -0.21853705188E+02 -0.47584964933E+01  0.28053364803E+02  0.00000000000E+00 0.  1.
         14    1    4    4    0    0  0.40569352589E+02  0.40250285919E+02  0.47382331237E+01  0.57344648740E+02  0.00000000000E+00 0. -1.
         -5    1    5    5    0  502 -0.24942057049E+02 -0.35094182544E+02 -0.28536287689E+02  0.51866343359E+02  0.47000000000E+01 0.  1.
         13    1    6    6    0    0  0.20321099880E+02 -0.61581345186E+01 -0.17576759553E+00  0.21234420532E+02  0.00000000000E+00 0. -1.
        -14    1    6    6    0    0 -0.19748503745E+02  0.35670487823E+02  0.11259158396E+03  0.11974661532E+03  0.00000000000E+00 0.  1.
</event>
<event>
12    1  0.9028446E-003  0.1848562E+03  0.7818608E-02  0.1163707E+00
         21   -1    0    0  501  502  0.00000000000E+00  0.00000000000E+00  0.82352553514E+02  0.82352553514E+02  0.00000000000E+00 0.  1.
         21   -1    0    0  502  503 -0.00000000000E+00 -0.00000000000E+00 -0.46126964640E+03  0.46126964640E+03  0.00000000000E+00 0. -1.
          6    2    1    2  501    0 -0.62199795391E+02  0.23245745487E+02 -0.99834614445E+02  0.21009228392E+03  0.17251851579E+03 0.  0.
         24    2    3    3    0    0 -0.14382408110E+02 -0.18805293091E+02 -0.11626704623E+03  0.14416120486E+03  0.81877556370E+02 0.  0.
         -6    2    1    2    0  503  0.62199795391E+02 -0.23245745487E+02 -0.27908247844E+03  0.33352991600E+03  0.17013522816E+03 0.  0.
        -24    2    5    5    0    0 -0.20650576414E+02 -0.46853710801E+02 -0.14947339556E+03  0.17783108974E+03  0.81608112175E+02 0.  0.
          5    1    3    3  501    0 -0.47817387280E+02  0.42051038578E+02  0.16432431781E+02  0.65931079060E+02  0.47000000000E+01 0. -1.
        -13    1    4    4    0    0  0.26426101045E+02 -0.28217380291E+02 -0.32488428276E+02  0.50498092427E+02  0.00000000000E+00 0.  1.
         14    1    4    4    0    0 -0.40808509155E+02  0.94120872002E+01 -0.83778617951E+02  0.93663112433E+02  0.00000000000E+00 0. -1.
         -5    1    5    5    0  503  0.82850371805E+02  0.23607965314E+02 -0.12960908288E+03  0.15569882626E+03  0.47000000000E+01 0.  1.
         11    1    6    6    0    0 -0.54982242341E+01 -0.47294899911E+02 -0.15464932636E+03  0.16181301607E+03  0.00000000000E+00 0. -1.
        -12    1    6    6    0    0 -0.15152352180E+02  0.44118910952E+00  0.51759307906E+01  0.16018073666E+02  0.00000000000E+00 0.  1.
</event>
<event>
12    1  0.9028446E-003  0.2337312E+03  0.7818608E-02  0.1124174E+00
         21   -1    0    0  501  502  0.00000000000E+00  0.00000000000E+00  0.51121424340E+03  0.51121424340E+03  0.00000000000E+00 0. -1.
         21   -1    0    0  502  503 -0.00000000000E+00 -0.00000000000E+00 -0.11072171016E+03  0.11072171016E+03  0.00000000000E+00 0. -1.
          6    2    1    2  501    0 -0.14771772771E+03  0.54356233786E+02  0.26056427496E+03  0.34952048192E+03  0.17174311824E+03 0.  0.
         24    2    3    3    0    0 -0.45781072271E+02 -0.29764809880E+02  0.81182124325E+02  0.12665846704E+03  0.80436182634E+02 0.  0.
         -6    2    1    2    0  503  0.14771772771E+03 -0.54356233786E+02  0.13992825828E+03  0.27241547164E+03  0.17278641293E+03 0.  0.
        -24    2    5    5    0    0  0.73779487310E+02  0.22353197963E+02  0.20756453107E+02  0.11249296084E+03  0.79251231449E+02 0.  0.
          5    1    3    3  501    0 -0.10193665544E+03  0.84121043666E+02  0.17938215064E+03  0.22286201488E+03  0.47000000000E+01 0. -1.
        -13    1    4    4    0    0 -0.63831030857E+02 -0.46881939018E+01  0.41151897733E+02  0.76091118729E+02  0.00000000000E+00 0.  1.
         14    1    4    4    0    0  0.18049958586E+02 -0.25076615978E+02  0.40030226592E+02  0.50567348308E+02  0.00000000000E+00 0. -1.
         -5    1    5    5    0  503  0.73938240399E+02 -0.76709431749E+02  0.11917180517E+03  0.15992251080E+03  0.47000000000E+01 0.  1.
         13    1    6    6    0    0  0.77126571356E+02 -0.20496009647E+01  0.34242699720E+02  0.84411322448E+02  0.00000000000E+00 0. -1.
        -14    1    6    6    0    0 -0.33470840466E+01  0.24402798927E+02 -0.13486246613E+02  0.28081638393E+02  0.00000000000E+00 0.  1.
</event>
<event>
12    1  0.9028446E-003  0.1801706E+03  0.7818608E-02  0.1167819E+00
         21   -1    0    0  503  502  0.00000000000E+00  0.00000000000E+00  0.57668636301E+03  0.57668636301E+03  0.00000000000E+00 0. -1.
         21   -1    0    0  501  503 -0.00000000000E+00 -0.00000000000E+00 -0.66314942551E+02  0.66314942551E+02  0.00000000000E+00 0. -1.
          6    2    1    2  501    0  0.52538215048E+02  0.30546997533E+00  0.12829130606E+03  0.22057182836E+03  0.17156023695E+03 0.  0.
         24    2    3    3    0    0  0.52141083106E+02 -0.63776895687E+02  0.68292608186E+02  0.13265913844E+03  0.78411617172E+02 0.  0.
         -6    2    1    2    0  502 -0.52538215048E+02 -0.30546997533E+00  0.38208011440E+03  0.42242947720E+03  0.17234004768E+03 0.  0.
        -24    2    5    5    0    0 -0.44266134088E+02  0.41347029785E+02  0.36124886518E+03  0.37489644654E+03  0.79859473680E+02 0.  0.
          5    1    3    3  501    0  0.39713194143E+00  0.64082365662E+02  0.59998697870E+02  0.87912689919E+02  0.47000000000E+01 0. -1.
        -13    1    4    4    0    0 -0.22708614535E+01 -0.58962146490E+02  0.38237027690E+02  0.70311889585E+02  0.00000000000E+00 0.  1.
         14    1    4    4    0    0  0.54411944560E+02 -0.48147491962E+01  0.30055580496E+02  0.62347248853E+02  0.00000000000E+00 0. -1.
         -5    1    5    5    0  502 -0.82720809599E+01 -0.41652499760E+02  0.20831249223E+02  0.47533030662E+02  0.47000000000E+01 0.  1.
         11    1    6    6    0    0 -0.58224427205E+02  0.18888264753E+01  0.20097081586E+03  0.20924368668E+03  0.00000000000E+00 0. -1.
        -12    1    6    6    0    0  0.13958293118E+02  0.39458203310E+02  0.16027804932E+03  0.16565275986E+03  0.00000000000E+00 0.  1.
</event>
<event>
12    1  0.9028446E-003  0.2846667E+03  0.7818608E-02  0.1093241E+00
         21   -1    0    0  501  502  0.00000000000E+00  0.00000000000E+00  0.79311573949E+03  0.79311573949E+03  0.00000000000E+00 0.  1.
         21   -1    0    0  502  503 -0.00000000000E+00 -0.00000000000E+00 -0.11776248607E+03  0.11776248607E+03  0.00000000000E+00 0.  1.
          6    2    1    2  501    0  0.16095835325E+03 -0.15931485129E+03  0.50472165179E+03  0.57946445106E+03  0.17247113071E+03 0.  0.
         24    2    3    3    0    0  0.89539343221E+02 -0.16076783448E+03  0.43754791782E+03  0.48129527724E+03  0.79582491226E+02 0.  0.
         -6    2    1    2    0  503 -0.16095835325E+03  0.15931485129E+03  0.17063160163E+03  0.33141377450E+03  0.17155504403E+03 0.  0.
        -24    2    5    5    0    0 -0.55122493891E+02  0.12922993120E+03  0.13593187777E+03  0.21594736216E+03  0.91743792049E+02 0.  0.
          5    1    3    3  501    0  0.71419010026E+02  0.14529831926E+01  0.67173733968E+02  0.98169173820E+02  0.47000000000E+01 0. -1.
        -11    1    4    4    0    0  0.23440359832E+02 -0.57195756017E+02  0.68183660624E+02  0.92031606264E+02  0.00000000000E+00 0.  1.
         12    1    4    4    0    0  0.66098983389E+02 -0.10357207847E+03  0.36936425720E+03  0.38926367097E+03  0.00000000000E+00 0. -1.
         -5    1    5    5    0  503 -0.10583585935E+03  0.30084920096E+02  0.34699723857E+02  0.11546641234E+03  0.47000000000E+01 0.  1.
         11    1    6    6    0    0 -0.46734326188E+01  0.20513825844E+02  0.81757203531E+02  0.84420959201E+02  0.00000000000E+00 0. -1.
        -12    1    6    6    0    0 -0.50449061273E+02  0.10871610535E+03  0.54174674240E+02  0.13152640296E+03  0.00000000000E+00 0.  1.
</event>
<event>
12    1  0.9028446E-003  0.3094204E+03  0.7818608E-02  0.1080713E+00
         21   -1    0    0  503  502  0.00000000000E+00  0.00000000000E+00  0.23316799814E+03  0.23316799814E+03  0.00000000000E+00 0. -1.
         21   -1    0    0  501  503 -0.00000000000E+00 -0.00000000000E+00 -0.44999886734E+03  0.44999886734E+03  0.00000000000E+00 0. -1.
          6    2    1    2  501    0  0.75093846730E+02 -0.24483690688E+03 -0.21083902516E+03  0.37442497184E+03  0.17365704195E+03 0.  0.
         24    2    3    3    0    0  0.11529171377E+03 -0.15360104802E+03 -0.15918118998E+03  0.26203959738E+03  0.80253586445E+02 0.  0.
         -6    2    1    2    0  502 -0.75093846730E+02  0.24483690688E+03 -0.59918440422E+01  0.30874189364E+03  0.17234110917E+03 0.  0.
        -24    2    5    5    0    0 -0.16106537057E+02  0.12492595161E+03 -0.65650470256E+02  0.16231996367E+03  0.78561265517E+02 0.  0.
          5    1    3    3  501    0 -0.40197867039E+02 -0.91235858852E+02 -0.51657835183E+02  0.11238537445E+03  0.47000000000E+01 0. -1.
        -11    1    4    4    0    0  0.11718395295E+02 -0.45896199753E+02 -0.54944087386E+01  0.47686166416E+02  0.00000000000E+00 0.  1.
         12    1    4    4    0    0  0.10357331847E+03 -0.10770484827E+03 -0.15368678124E+03  0.21435343097E+03  0.00000000000E+00 0. -1.
         -5    1    5    5    0  502 -0.58987309674E+02  0.11991095526E+03  0.59658626214E+02  0.14642192997E+03  0.47000000000E+01 0.  1.
         11    1    6    6    0    0  0.19828849880E+01  0.80711748604E+02  0.48248886659E+00  0.80737543876E+02  0.00000000000E+00 0. -1.
        -12    1    6    6    0    0 -0.18089422045E+02  0.44214203008E+02 -0.66132959122E+02  0.81582419797E+02  0.00000000000E+00 0.  1.
</event>
<event>
12    1  0.9028446E-003  0.2218333E+03  0.7818608E-02  0.1132528E+00
         21   -1    0    0  501  502  0.00000000000E+00  0.00000000000E+00  0.52894379368E+03  0.52894379368E+03  0.00000000000E+00 0.  1.
         21   -1    0    0  502  503 -0.00000000000E+00 -0.00000000000E+00 -0.10454573720E+03  0.10454573720E+03  0.00000000000E+00 0. -1.
          6    2    1    2  501    0 -0.12629839098E+03 -0.59414883076E+02  0.31735806770E+03  0.38720298070E+03  0.17241981683E+03 0.  0.
         24    2    3    3    0    0 -0.79879602463E+02 -0.94601648267E+02  0.28367345403E+03  0.31975258730E+03  0.80255004949E+02 0.  0.
         -6    2    1    2    0  503  0.12629839098E+03  0.59414883076E+02  0.10703998878E+03  0.24628655018E+03  0.17238936657E+03 0.  0.
        -24    2    5    5    0    0 -0.13865595627E+01  0.34536504832E+02  0.65426285738E+02  0.10962576363E+03  0.80885823683E+02 0.  0.
          5    1    3    3  501    0 -0.46418788517E+02  0.35186765191E+02  0.33684613673E+02  0.67450393404E+02  0.47000000000E+01 0. -1.
        -11    1    4    4    0    0 -0.14204212840E+02 -0.75950128033E+02  0.17662073335E+03  0.19278242933E+03  0.00000000000E+00 0.  1.
         12    1    4    4    0    0 -0.65675389622E+02 -0.18651520234E+02  0.10705272068E+03  0.12697015797E+03  0.00000000000E+00 0. -1.
         -5    1    5    5    0  503  0.12768495054E+03  0.24878378244E+02  0.41613703038E+02  0.13666078655E+03  0.47000000000E+01 0.  1.
         11    1    6    6    0    0 -0.38305082543E+02  0.16790448025E+01  0.32238417982E+02  0.50094052881E+02  0.00000000000E+00 0. -1.
        -12    1    6    6    0    0  0.36918522981E+02  0.32857460030E+02  0.33187867756E+02  0.59531710750E+02  0.00000000000E+00 0.  1.
</event>
<event>
12    1  0.9028446E-003  0.3035796E+03  0.7818608E-02  0.1083631E+00
         21   -1    0    0  503  502  0.00000000000E+00  0.00000000000E+00  0.26046750804E+03  0.26046750804E+03  0.00000000000E+00 0. -1.
         21   -1    0    0  501  503 -0.00000000000E+00 -0.00000000000E+00 -0.38110411547E+03  0.38110411547E+03  0.00000000000E+00 0.  1.
          6    2    1    2  501    0 -0.23449162073E+03 -0.83121492123E+02 -0.14870239529E+03  0.33804284593E+03  0.17396856231E+03 0.  0.
         24    2    3    3    0    0 -0.22913584162E+03 -0.11480504533E+03 -0.11595781341E+03  0.29192528358E+03  0.78043092929E+02 0.  0.
         -6    2    1    2    0  502  0.23449162073E+03  0.83121492123E+02  0.28065787868E+02  0.30352877758E+03  0.17159990597E+03 0.  0.
        -24    2    5    5    0    0  0.16272922412E+03  0.94465614557E+02 -0.35004249011E+02  0.20720406511E+03  0.79395682718E+02 0.  0.
          5    1    3    3  501    0 -0.53557791099E+01  0.31683553211E+02 -0.32744581887E+02  0.46117562347E+02  0.47000000000E+01 0. -1.
        -11    1    4    4    0    0 -0.44464224383E+02  0.80316287931E+01 -0.10755816148E+02  0.46446333462E+02  0.00000000000E+00 0.  1.
         12    1    4    4    0    0 -0.18467161723E+03 -0.12283667413E+03 -0.10520199726E+03  0.24547895012E+03  0.00000000000E+00 0. -1.
         -5    1    5    5    0  502  0.71762396609E+02 -0.11344122435E+02  0.63070036879E+02  0.96324712472E+02  0.47000000000E+01 0.  1.
         11    1    6    6    0    0 -0.47383038409E+01  0.19624269605E+02  0.12448073189E+01  0.20226542613E+02  0.00000000000E+00 0. -1.
        -12    1    6    6    0    0  0.16746752796E+03  0.74841344952E+02 -0.36249056330E+02  0.18697752250E+03  0.00000000000E+00 0.  1.
</event>
<event>
12    1  0.9028446E-003  0.1729806E+03  0.7818608E-02  0.1174816E+00
         21   -1    0    0  503  502  0.00000000000E+00  0.00000000000E+00  0.11500358137E+04  0.11500358137E+04  0.00000000000E+00 0.  1.
         21   -1    0    0  501  503 -0.00000000000E+00 -0.00000000000E+00 -0.26599578741E+02  0.26599578741E+02  0.00000000000E+00 0.  1.
          6    2    1    2  501    0 -0.22670367750E+01 -0.16829183906E+02  0.65021287380E+03  0.67278755436E+03  0.17198241529E+03 0.  0.
         24    2    3    3    0    0 -0.63167178388E+02 -0.34794796234E+02  0.46790393041E+03  0.47968076703E+03  0.77193133735E+02 0.  0.
         -6    2    1    2    0  502  0.22670367750E+01  0.16829183906E+02  0.47322336118E+03  0.50384783809E+03  0.17214509433E+03 0.  0.
        -24    2    5    5    0    0 -0.43710626667E+02 -0.40127864182E+02  0.27866371199E+03  0.29592093278E+03  0.79967929247E+02 0.  0.
          5    1    3    3  501    0  0.60900141613E+02  0.17965612329E+02  0.18230894338E+03  0.19310678733E+03  0.47000000000E+01 0. -1.
        -13    1    4    4    0    0 -0.52266258551E+02  0.10025115072E+02  0.33008444782E+03  0.33434713608E+03  0.00000000000E+00 0.  1.
         14    1    4    4    0    0 -0.10900919837E+02 -0.44819911306E+02  0.13781948260E+03  0.14533363095E+03  0.00000000000E+00 0. -1.
         -5    1    5    5    0  502  0.45977663442E+02  0.56957048087E+02  0.19455964918E+03  0.20792690531E+03  0.47000000000E+01 0.  1.
         13    1    6    6    0    0  0.84335573148E+01 -0.43744666295E+02  0.16330849195E+03  0.16927605933E+03  0.00000000000E+00 0. -1.
        -14    1    6    6    0    0 -0.52144183982E+02  0.36168021139E+01  0.11535522004E+03  0.12664487345E+03  0.00000000000E+00 0.  1.
</event>
<event>
12    1  0.9028446E-003  0.1866539E+03  0.7818608E-02  0.1162372E+00
         21   -1    0    0  501  502  0.00000000000E+00  0.00000000000E+00  0.83075034978E+03  0.83075034978E+03  0.00000000000E+00 0.  1.
         21   -1    0    0  502  503 -0.00000000000E+00 -0.00000000000E+00 -0.41116479526E+02  0.41116479526E+02  0.00000000000E+00 0.  1.
          6    2    1    2  501    0  0.16917537904E+02 -0.63939013063E+02  0.40101273509E+03  0.44232440295E+03  0.17454301264E+03 0.  0.
         24    2    3    3    0    0  0.44899468447E+02 -0.96630199552E+02  0.22868983071E+03  0.26464779930E+03  0.79912835464E+02 0.  0.
         -6    2    1    2    0  503 -0.16917537904E+02  0.63939013063E+02  0.38862113517E+03  0.42954242636E+03  0.17060453940E+03 0.  0.
        -24    2    5    5    0    0  0.46096211757E+02  0.12608194508E+00  0.17562949149E+03  0.19839236017E+03  0.79930805426E+02 0.  0.
          5    1    3    3  501    0 -0.27981930544E+02  0.32691186488E+02  0.17232290438E+03  0.17767660365E+03  0.47000000000E+01 0. -1.
        -13    1    4    4    0    0 -0.10084417630E+02 -0.66108753389E+02  0.87860815255E+02  0.11041551345E+03  0.00000000000E+00 0.  1.
         14    1    4    4    0    0  0.54983886077E+02 -0.30521446163E+02  0.14082901545E+03  0.15423228584E+03  0.00000000000E+00 0. -1.
         -5    1    5    5    0  503 -0.63013749660E+02  0.63812931118E+02  0.21299164368E+03  0.23115006619E+03  0.47000000000E+01 0.  1.
         11    1    6    6    0    0  0.33822410258E+02 -0.36888961298E+02  0.72151028583E+02  0.87809577079E+02  0.00000000000E+00 0. -1.
        -12    1    6    6    0    0  0.12273801499E+02  0.37015043243E+02  0.10347846291E+03  0.11058278309E+03  0.00000000000E+00 0.  1.
</event>
<event>
12    1  0.9028446E-003  0.2054512E+03  0.7818608E-02  0.1145400E+00
         21   -1    0    0  501  502  0.00000000000E+00  0.00000000000E+00  0.74974890932E+03  0.74974890932E+03  0.00000000000E+00 0.  1.
         21   -1    0    0  502  503 -0.00000000000E+00 -0.00000000000E+00 -0.58081813460E+02  0.58081813460E+02  0.00000000000E+00 0.  1.
          6    2    1    2  501    0  0.88160880833E+01 -0.11192931245E+03  0.42197582634E+03  0.46933336960E+03  0.17205905793E+03 0.  0.
         24    2    3    3    0    0 -0.46479110988E+02 -0.23231730858E+02  0.25087241059E+03  0.26877592421E+03  0.81261983512E+02 0.  0.
         -6    2    1    2    0  503 -0.88160880833E+01  0.11192931245E+03  0.26969126952E+03  0.33849735318E+03  0.17100053467E+03 0.  0.
        -24    2    5    5    0    0  0.53774485627E+02  0.61665496578E+02  0.10786436442E+03  0.15779298599E+03  0.81052924347E+02 0.  0.
          5    1    3    3  501    0  0.55295199072E+02 -0.88697581593E+02  0.17110341575E+03  0.20055744539E+03  0.47000000000E+01 0. -1.
        -13    1    4    4    0    0 -0.16878212581E+02 -0.44398348575E+02  0.72114001615E+02  0.86351124168E+02  0.00000000000E+00 0.  1.
         14    1    4    4    0    0 -0.29600898407E+02  0.21166617718E+02  0.17875840897E+03  0.18242480004E+03  0.00000000000E+00 0. -1.
         -5    1    5    5    0  503 -0.62590573710E+02  0.50263815872E+02  0.16182690511E+03  0.18070436719E+03  0.47000000000E+01 0.  1.
         11    1    6    6    0    0 -0.54275402805E+01 -0.11644895231E+02 -0.20560468825E+01  0.13011114757E+02  0.00000000000E+00 0. -1.
        -12    1    6    6    0    0  0.59202025908E+02  0.73310391809E+02  0.10992041130E+03  0.14478187124E+03  0.00000000000E+00 0.  1.
</event>
<event>
12    1  0.9028446E-003  0.1733497E+03  0.7818608E-02  0.1174735E+00
         21   -1    0    0  503  502  0.00000000000E+00  0.00000000000E+00  0.19629463645E+03  0.19629463645E+03  0.00000000000E+00 0. -1.
         21   -1    0    0  501  503 -0.00000000000E+00 -0.00000000000E+00 -0.15512022019E+03  0.15512022019E+03  0.00000000000E+00 0. -1.
          6    2    1    2  501    0 -0.31860014027E+00 -0.20317271128E+02 -0.45425564730E+01  0.17340924599E+03  0.17215469428E+03 0.  0.
         24    2    3    3    0    0 -0.29396318446E+02 -0.33864971433E+02 -0.60289235180E+02  0.10892020760E+03  0.78853280950E+02 0.  0.
         -6    2    1    2    0  502  0.31860014027E+00  0.20317271128E+02  0.45716972731E+02  0.17800561066E+03  0.17083050904E+03 0.  0.
        -24    2    5    5    0    0  0.19348554579E+02  0.19964653198E+02 -0.36183566770E+02  0.93791289571E+02  0.81942672360E+02 0.  0.
          5    1    3    3  501    0  0.29077718305E+02  0.13547700305E+02  0.55746678707E+02  0.64489038389E+02  0.47000000000E+01 0. -1.
        -11    1    4    4    0    0  0.52655803053E+01  0.21284098204E+02 -0.29168105164E+01  0.22118927548E+02  0.00000000000E+00 0.  1.
         12    1    4    4    0    0 -0.34661898751E+02 -0.55149069637E+02 -0.57372424664E+02  0.86801280052E+02  0.00000000000E+00 0. -1.
         -5    1    5    5    0  502 -0.19029954439E+02  0.35261792990E+00  0.81900539501E+02  0.84214321086E+02  0.47000000000E+01 0.  1.
         13    1    6    6    0    0  0.50897615468E+02  0.18693375719E+02 -0.28669977281E+02  0.61334958657E+02  0.00000000000E+00 0. -1.
        -14    1    6    6    0    0 -0.31549060889E+02  0.12712774785E+01 -0.75135894890E+01  0.32456330914E+02  0.00000000000E+00 0.  1.
</event>
<event>
12    1  0.9028446E-003  0.2798233E+03  0.7818608E-02  0.1095836E+00
         21   -1    0    0  501  502  0.00000000000E+00  0.00000000000E+00  0.14077941482E+04  0.14077941482E+04  0.00000000000E+00 0. -1.
         21   -1    0    0  502  503 -0.00000000000E+00 -0.00000000000E+00 -0.82839481437E+02  0.82839481437E+02  0.00000000000E+00 0.  1.
          6    2    1    2  501    0 -0.18711446714E+03 -0.11746660438E+03  0.10905719839E+04  0.11258989101E+04  0.17172907941E+03 0.  0.
         24    2    3    3    0    0 -0.18597658650E+03 -0.13319707819E+03  0.82609731026E+03  0.86091271124E+03  0.80032355987E+02 0.  0.
         -6    2    1    2    0  503  0.18711446714E+03  0.11746660438E+03  0.23438268284E+03  0.36473471953E+03  0.17113137250E+03 0.  0.
        -24    2    5    5    0    0  0.18568304717E+03  0.13705814009E+03  0.24145276035E+03  0.34333487769E+03  0.79474995979E+02 0.  0.
          5    1    3    3  501    0 -0.11378806474E+01  0.15730473818E+02  0.26447467367E+03  0.26498619887E+03  0.47000000000E+01 0. -1.
        -11    1    4    4    0    0 -0.53557896825E+02 -0.47004794467E+02  0.14287963581E+03  0.15966367572E+03  0.00000000000E+00 0.  1.
         12    1    4    4    0    0 -0.13241868967E+03 -0.86192283728E+02  0.68321767444E+03  0.70124903552E+03  0.00000000000E+00 0. -1.
         -5    1    5    5    0  503  0.14314199737E+01 -0.19591535710E+02 -0.70700775108E+01  0.21399841837E+02  0.47000000000E+01 0.  1.
         13    1    6    6    0    0 -0.18194209391E+00  0.94782090841E+01  0.39651128496E+02  0.40768634284E+02  0.00000000000E+00 0. -1.
        -14    1    6    6    0    0  0.18586498926E+03  0.12757993100E+03  0.20180163186E+03  0.30256624340E+03  0.00000000000E+00 0.  1.
</event>
<event>
12    1  0.9028446E-003  0.3052264E+03  0.7818608E-02  0.1082663E+00
         21   -1    0    0  503  502  0.00000000000E+00  0.00000000000E+00  0.74468212619E+02  0.74468212619E+02  0.00000000000E+00 0.  1.
         21   -1    0    0  501  503 -0.00000000000E+00 -0.00000000000E+00 -0.13428859726E+04  0.13428859726E+04  0.00000000000E+00 0. -1.
          6    2    1    2  501    0  0.19052755926E+03 -0.16525560730E+03 -0.44873110947E+03  0.54269950106E+03  0.17190978232E+03 0.  0.
         24    2    3    3    0    0  0.18872303070E+03 -0.14732583540E+03 -0.45726346269E+03  0.52221477273E+03  0.79354334795E+02 0.  0.
         -6    2    1    2    0  502 -0.19052755926E+03  0.16525560730E+03 -0.81968665048E+03  0.87465468414E+03  0.17182678756E+03 0.  0.
        -24    2    5    5    0    0 -0.17059782112E+03  0.18690894243E+03 -0.78620273700E+03  0.82982920202E+03  0.80393976979E+02 0.  0.
          5    1    3    3  501    0  0.18045285606E+01 -0.17929771892E+02  0.85323532137E+01  0.20484728331E+02  0.47000000000E+01 0. -1.
        -11    1    4    4    0    0  0.60657753033E+02 -0.93616481504E+02 -0.23504044731E+03  0.26016806200E+03  0.00000000000E+00 0.  1.
         12    1    4    4    0    0  0.12806527767E+03 -0.53709353901E+02 -0.22222301538E+03  0.26204671073E+03  0.00000000000E+00 0. -1.
         -5    1    5    5    0  502 -0.19929738135E+02 -0.21653335133E+02 -0.33483913482E+02  0.44825482112E+02  0.47000000000E+01 0.  1.
         11    1    6    6    0    0 -0.12090690249E+03  0.17756137666E+03 -0.62549678447E+03  0.66135674861E+03  0.00000000000E+00 0. -1.
        -12    1    6    6    0    0 -0.49690918630E+02  0.93475657651E+01 -0.16070595253E+03  0.16847245341E+03  0.00000000000E+00 0.  1.
</event>
<event>
12    1  0.9028446E-003  0.2588167E+03  0.7818608E-02  0.1108059E+00
         21   -1    0    0  501  502  0.00000000000E+00  0.00000000000E+00  0.28032730704E+03  0.28032730704E+03  0.00000000000E+00 0. -1.
         21   -1    0    0  502  503 -0.00000000000E+00 -0.00000000000E+00 -0.37262878690E+03  0.37262878690E+03  0.00000000000E+00 0.  1.
          6    2    1    2  501    0 -0.16455379110E+03  0.97812313854E+02  0.15036475888E+03  0.29817027483E+03  0.17219394057E+03 0.  0.
         24    2    3    3    0    0 -0.90815725668E+02  0.11711377185E+03  0.14426950825E+03  0.22156028426E+03  0.79448958222E+02 0.  0.
         -6    2    1    2    0  503  0.16455379110E+03 -0.97812313854E+02 -0.24266623873E+03  0.35478581911E+03  0.17418632298E+03 0.  0.
        -24    2    5    5    0    0  0.15902113321E+03 -0.10689119332E+03 -0.13700934050E+03  0.24849138605E+03  0.79138875024E+02 0.  0.
          5    1    3    3  501    0 -0.73738065436E+02 -0.19301457997E+02  0.60952506273E+01  0.76609990571E+02  0.47000000000E+01 0. -1.
        -13    1    4    4    0    0 -0.39130112728E+02  0.35460649449E+02  0.63973338964E+01  0.53193507710E+02  0.00000000000E+00 0.  1.
         14    1    4    4    0    0 -0.51685612940E+02  0.81653122402E+02  0.13787217436E+03  0.16836677655E+03  0.00000000000E+00 0. -1.
         -5    1    5    5    0  503  0.55326578902E+01  0.90788794628E+01 -0.10565689823E+03  0.10629443306E+03  0.47000000000E+01 0.  1.
         11    1    6    6    0    0  0.12218629226E+02 -0.43629239148E+02 -0.45908514201E+02  0.64501140183E+02  0.00000000000E+00 0. -1.
        -12    1    6    6    0    0  0.14680250399E+03 -0.63261954169E+02 -0.91100826303E+02  0.18399024587E+03  0.00000000000E+00 0.  1.
</event>
<event>
12    1  0.9028446E-003  0.1906937E+03  0.7818608E-02  0.1159626E+00
         21   -1    0    0  501  502  0.00000000000E+00  0.00000000000E+00  0.35926373720E+03  0.35926373720E+03  0.00000000000E+00 0. -1.
         21   -1    0    0  502  503 -0.00000000000E+00 -0.00000000000E+00 -0.10457697970E+03  0.10457697970E+03  0.00000000000E+00 0. -1.
          6    2    1    2  501    0 -0.54130691490E+02  0.16910710942E+02  0.18678316061E+03  0.26141797324E+03  0.17388301740E+03 0.  0.
         24    2    3    3    0    0  0.48979957333E+01  0.58064874585E+02  0.14937527608E+03  0.18018072239E+03  0.82198537665E+02 0.  0.
         -6    2    1    2    0  503  0.54130691490E+02 -0.16910710942E+02  0.67903596886E+02  0.20242274365E+03  0.18206582538E+03 0.  0.
        -24    2    5    5    0    0  0.17403414319E+02 -0.82262385061E+00  0.11433256521E+03  0.14089666354E+03  0.80475951623E+02 0.  0.
          5    1    3    3  501    0 -0.59028687223E+02 -0.41154163643E+02  0.37407884532E+02  0.81237250850E+02  0.47000000000E+01 0. -1.
        -11    1    4    4    0    0  0.12503841265E+02 -0.19033611715E+02  0.26732000192E+02  0.35117292828E+02  0.00000000000E+00 0.  1.
         12    1    4    4    0    0 -0.76058455314E+01  0.77098486299E+02  0.12264327589E+03  0.14506342956E+03  0.00000000000E+00 0. -1.
         -5    1    5    5    0  503  0.36727277171E+02 -0.16088087091E+02 -0.46428968323E+02  0.61526080114E+02  0.47000000000E+01 0.  1.
         11    1    6    6    0    0  0.37223361397E+02 -0.28714589939E+02  0.54532093473E+02  0.71998996713E+02  0.00000000000E+00 0. -1.
        -12    1    6    6    0    0 -0.19819947078E+02  0.27891966089E+02  0.59800471736E+02  0.68897666828E+02  0.00000000000E+00 0.  1.
</event>
<event>
12    1  0.9028446E-003  0.1742488E+03  0.7818608E-02  0.1173593E+00
         21   -1    0    0  503  502  0.00000000000E+00  0.00000000000E+00  0.20585515795E+04  0.20585515795E+04  0.00000000000E+00 0. -1.
         21   -1    0    0  501  503 -0.00000000000E+00 -0.00000000000E+00 -0.14797401240E+02  0.14797401240E+02  0.00000000000E+00 0. -1.
          6    2    1    2  501    0  0.32997281526E+02 -0.17000445829E+00  0.94544454705E+03  0.96136778739E+03  0.17109582575E+03 0.  0.
         24    2    3    3    0    0 -0.29317167349E+02 -0.32535407738E+02  0.32989230062E+03  0.34180562912E+03  0.78000698929E+02 0.  0.
         -6    2    1    2    0  502 -0.32997281526E+02  0.17000445829E+00  0.10983096312E+04  0.11119811934E+04  0.17067301742E+03 0.  0.
        -24    2    5    5    0    0 -0.53792870551E+02 -0.43767363213E+02  0.93670264703E+03  0.94315626589E+03  0.85572413270E+02 0.  0.
          5    1    3    3  501    0  0.62314448874E+02  0.32365403279E+02  0.61555224644E+03  0.61956215827E+03  0.47000000000E+01 0. -1.
        -11    1    4    4    0    0  0.17264838714E+02  0.12107664780E+02  0.13164782142E+03  0.13332598804E+03  0.00000000000E+00 0.  1.
         12    1    4    4    0    0 -0.46582006063E+02 -0.44643072517E+02  0.19824447920E+03  0.20847964108E+03  0.00000000000E+00 0. -1.
         -5    1    5    5    0  502  0.20795589025E+02  0.43937367671E+02  0.16160698419E+03  0.16882492749E+03  0.47000000000E+01 0.  1.
         13    1    6    6    0    0  0.50771083175E+01 -0.47200671118E+02  0.54167774715E+03  0.54375404564E+03  0.00000000000E+00 0. -1.
        -14    1    6    6    0    0 -0.58869978869E+02  0.34333079059E+01  0.39502489988E+03  0.39940222025E+03  0.00000000000E+00 0.  1.
</event>
<event>
12    1  0.9028446E-003  0.2140372E+03  0.7818608E-02  0.1138413E+00
         21   -1    0    0  501  502  0.00000000000E+00  0.00000000000E+00  0.76418986219E+03  0.76418986219E+03  0.00000000000E+00 0.  1.
         21   -1    0    0  502  503 -0.00000000000E+00 -0.00000000000E+00 -0.60196634813E+02  0.60196634813E+02  0.00000000000E+00 0. -1.
          6    2    1    2  501    0  0.12634095496E+03 -0.12311383063E+02  0.32515119358E+03  0.38927522532E+03  0.17233193353E+03 0.  0.
         24    2    3    3    0    0  0.72112944088E+02 -0.72246276549E+02  0.23433756378E+03  0.26761145102E+03  0.79259029389E+02 0.  0.
         -6    2    1    2    0  503 -0.12634095496E+03  0.12311383063E+02  0.37884203380E+03  0.43511127168E+03  0.17229894113E+03 0.  0.
        -24    2    5    5    0    0 -0.77906462955E+02  0.64905079036E+02  0.31067656364E+03  0.33621426367E+03  0.78981122056E+02 0.  0.
          5    1    3    3  501    0  0.54228010875E+02  0.59934893486E+02  0.90813629795E+02  0.12166377430E+03  0.47000000000E+01 0. -1.
        -11    1    4    4    0    0  0.73952896011E+02 -0.23897828389E+02  0.11459716716E+03  0.13846533050E+03  0.00000000000E+00 0.  1.
         12    1    4    4    0    0 -0.18399519228E+01 -0.48348448160E+02  0.11974039662E+03  0.12914612052E+03  0.00000000000E+00 0. -1.
         -5    1    5    5    0  503 -0.48434492008E+02 -0.52593695973E+02  0.68165470164E+02  0.98897008018E+02  0.47000000000E+01 0.  1.
         13    1    6    6    0    0 -0.52505538853E+02  0.24319171414E+02  0.69992588551E+02  0.90814184798E+02  0.00000000000E+00 0. -1.
        -14    1    6    6    0    0 -0.25400924102E+02  0.40585907622E+02  0.24068397509E+03  0.24540007887E+03  0.00000000000E+00 0.  1.
</event>
<event>
12    1  0.9028446E-003  0.2166010E+03  0.7818608E-02  0.1136466E+00
         21   -1    0    0  503  502  0.00000000000E+00  0.00000000000E+00  0.26759748287E+03  0.26759748287E+03  0.00000000000E+00 0.  1.
         21   -1    0    0  501  503 -0.00000000000E+00 -0.00000000000E+00 -0.17829679530E+03  0.17829679530E+03  0.00000000000E+00 0. -1.
          6    2    1    2  501    0 -0.12947821968E+03  0.58504230022E+01  0.73904865976E+02  0.22874679348E+03  0.17339068456E+03 0.  0.
         24    2    3    3    0    0 -0.23085518793E+02 -0.53267698783E+02  0.37717905086E+02  0.10168009736E+03  0.74470215004E+02 0.  0.
         -6    2    1    2    0  502  0.12947821968E+03 -0.58504230022E+01  0.15395821596E+02  0.21714748470E+03  0.17354296865E+03 0.  0.
        -24    2    5    5    0    0  0.12845843996E+03  0.45428612880E+02 -0.33717498880E+01  0.16233059669E+03  0.88173262723E+02 0.  0.
          5    1    3    3  501    0 -0.10639270088E+03  0.59118121785E+02  0.36186960890E+02  0.12706669612E+03  0.47000000000E+01 0. -1.
        -11    1    4    4    0    0 -0.46036630076E+02 -0.39571250704E+02  0.43056027997E+02  0.74424973886E+02  0.00000000000E+00 0.  1.
         12    1    4    4    0    0  0.22951111284E+02 -0.13696448079E+02 -0.53381229112E+01  0.27255123470E+02  0.00000000000E+00 0. -1.
         -5    1    5    5    0  502  0.10197797178E+01 -0.51279035882E+02  0.18767571484E+02  0.54816888009E+02  0.47000000000E+01 0.  1.
         13    1    6    6    0    0  0.81267956791E+02  0.56643245224E+02  0.29943081199E+02  0.10348684043E+03  0.00000000000E+00 0. -1.
        -14    1    6    6    0    0  0.47190483167E+02 -0.11214632345E+02 -0.33314831087E+02  0.58843756258E+02  0.00000000000E+00 0.  1.
</event>
<event>
12    1  0.9028446E-003  0.2077146E+03  0.7818608E-02  0.1144359E+00
         21   -1    0    0  501  502  0.00000000000E+00  0.00000000000E+00  0.16179225651E+03  0.16179225651E+03  0.00000000000E+00 0.  1.
         21   -1    0    0  502  503 -0.00000000000E+00 -0.00000000000E+00 -0.71206548138E+03  0.71206548138E+03  0.00000000000E+00 0. -1.
          6    2    1    2  501    0 -0.19306787015E+02  0.10707924908E+03  0.73939668204E+02  0.21599217764E+03  0.17130916105E+03 0.  0.
         24    2    3    3    0    0 -0.22848275794E+02 -0.11341634923E+02  0.38222168183E+02  0.92162142039E+02  0.79888984817E+02 0.  0.
         -6    2    1    2    0  503  0.19306787015E+02 -0.10707924908E+03 -0.62421289307E+03  0.65786556025E+03  0.17693683020E+03 0.  0.
        -24    2    5    5    0    0  0.23925739525E+02 -0.12943869551E+03 -0.61366078396E+03  0.63227813026E+03  0.76611091408E+02 0.  0.
          5    1    3    3  501    0  0.35414887796E+01  0.11842088400E+03  0.35717500021E+02  0.12383003560E+03  0.47000000000E+01 0. -1.
        -13    1    4    4    0    0 -0.23975513946E+01  0.30706924889E+02  0.32956261074E+02  0.45108520623E+02  0.00000000000E+00 0.  1.
         14    1    4    4    0    0 -0.20450724400E+02 -0.42048559811E+02  0.52659071082E+01  0.47053621416E+02  0.00000000000E+00 0. -1.
         -5    1    5    5    0  503 -0.46189525108E+01  0.22359446430E+02 -0.10552109113E+02  0.25587429994E+02  0.47000000000E+01 0.  1.
         13    1    6    6    0    0  0.52065828380E+02 -0.81328743112E+02 -0.38934419443E+03  0.40114101845E+03  0.00000000000E+00 0. -1.
        -14    1    6    6    0    0 -0.28140088855E+02 -0.48109952395E+02 -0.22431658953E+03  0.23113711181E+03  0.00000000000E+00 0.  1.
</event>
<event>
12    1  0.9028446E-003  0.1821297E+03  0.7818608E-02  0.1166264E+00
         21   -1    0    0  501  502  0.00000000000E+00  0.00000000000E+00  0.62425510241E+02  0.62425510241E+02  0.00000000000E+00 0. -1.
         21   -1    0    0  502  503 -0.00000000000E+00 -0.00000000000E+00 -0.58293002422E+03  0.58293002422E+03  0.00000000000E+00 0. -1.
          6    2    1    2  501    0 -0.23175877056E+02  0.53007515191E+02 -0.16010433713E+03  0.24249661552E+03  0.17269711008E+03 0.  0.
         24    2    3    3    0    0 -0.56446917457E+02  0.65096695772E+02 -0.49772686620E+02  0.12652992410E+03  0.78157962279E+02 0.  0.
         -6    2    1    2    0  503  0.23175877056E+02 -0.53007515191E+02 -0.36040017685E+03  0.40285891893E+03  0.17047024124E+03 0.  0.
        -24    2    5    5    0    0  0.44778920419E+02 -0.90466261246E+02 -0.31345572401E+03  0.33886110030E+03  0.79894043832E+02 0.  0.
          5    1    3    3  501    0  0.33271040400E+02 -0.12089180581E+02 -0.11033165051E+03  0.11596669143E+03  0.47000000000E+01 0. -1.
        -13    1    4    4    0    0  0.10226030183E+02  0.42960057956E+02 -0.30543504808E+02  0.53693984383E+02  0.00000000000E+00 0.  1.
         14    1    4    4    0    0 -0.66672947640E+02  0.22136637816E+02 -0.19229181812E+02  0.72835939714E+02  0.00000000000E+00 0. -1.
         -5    1    5    5    0  503 -0.21603043362E+02  0.37458746055E+02 -0.46944452833E+02  0.63997818637E+02  0.47000000000E+01 0.  1.
         11    1    6    6    0    0 -0.20286590035E+02 -0.43659944634E+02 -0.10435363082E+03  0.11492352573E+03  0.00000000000E+00 0. -1.
        -12    1    6    6    0    0  0.65065510453E+02 -0.46806316612E+02 -0.20910209320E+03  0.22393757457E+03  0.00000000000E+00 0.  1.
</event>
<event>
12    1  0.9028446E-003  0.1857053E+03  0.7818608E-02  0.1162478E+00
         21   -1    0    0  503  502  0.00000000000E+00  0.00000000000E+00  0.75475093699E+02  0.75475093699E+02  0.00000000000E+00 0.  1.
         21   -1    0    0  501  503 -0.00000000000E+00 -0.00000000000E+00 -0.60187149006E+03  0.60187149006E+03  0.00000000000E+00 0. -1.
          6    2    1    2  501    0 -0.21936219446E+02  0.64377873676E+02 -0.42971568755E+03  0.46798180521E+03  0.17241139621E+03 0.  0.
         24    2    3    3    0    0 -0.32256958801E+01  0.53082216298E+02 -0.11104593560E+03  0.14852887226E+03  0.83075262742E+02 0.  0.
         -6    2    1    2    0  502  0.21936219446E+02 -0.64377873676E+02 -0.96680708815E+02  0.20936477855E+03  0.17280261195E+03 0.  0.
        -24    2    5    5    0    0  0.71196783429E+02 -0.82135193755E+01 -0.41443215983E+02  0.11633624275E+03  0.81732107250E+02 0.  0.
          5    1    3    3  501    0 -0.18710523565E+02  0.11295657378E+02 -0.31866975195E+03  0.31945293295E+03  0.47000000000E+01 0. -1.
        -11    1    4    4    0    0  0.19167098530E+02 -0.73334077398E+01 -0.44292626237E+00  0.20526877960E+02  0.00000000000E+00 0.  1.
         12    1    4    4    0    0 -0.22392794410E+02  0.60415624038E+02 -0.11060300934E+03  0.12800199430E+03  0.00000000000E+00 0. -1.
         -5    1    5    5    0  502 -0.49260563983E+02 -0.56164354301E+02 -0.55237492832E+02  0.93028535796E+02  0.47000000000E+01 0.  1.
         13    1    6    6    0    0  0.62648732788E+02  0.26368655199E+02 -0.43423364596E+02  0.80658280975E+02  0.00000000000E+00 0. -1.
        -14    1    6    6    0    0  0.85480506407E+01 -0.34582174575E+02  0.19801486128E+01  0.35677961777E+02  0.00000000000E+00 0.  1.
</event>
<event>
12    1  0.9028446E-003  0.5214918E+03  0.7818608E-02  0.1008317E+00
         21   -1    0    0  501  502  0.00000000000E+00  0.00000000000E+00  0.53323553677E+03  0.53323553677E+03  0.00000000000E+00 0.  1.
         21   -1    0    0  502  503 -0.00000000000E+00 -0.00000000000E+00 -0.59033272327E+03  0.59033272327E+03  0.00000000000E+00 0. -1.
          6    2    1    2  501    0  0.48561817865E+03  0.80866936014E+02  0.17869032537E+03  0.55124893453E+03  0.17199034469E+03 0.  0.
         24    2    3    3    0    0  0.39759542681E+03  0.11370835753E+02  0.11231069329E+03  0.42084165579E+03  0.79262778779E+02 0.  0.
         -6    2    1    2    0  503 -0.48561817865E+03 -0.80866936014E+02 -0.23578751186E+03  0.57231932551E+03  0.17201506568E+03 0.  0.
        -24    2    5    5    0    0 -0.42820772001E+03 -0.30086193992E+02 -0.23416122862E+03  0.49551190843E+03  0.80209350189E+02 0.  0.
          5    1    3    3  501    0  0.88022751842E+02  0.69496100260E+02  0.66379632075E+02  0.13040727874E+03  0.47000000000E+01 0. -1.
        -13    1    4    4    0    0  0.14890697103E+03  0.18204746642E+02  0.79871321267E+02  0.16995330766E+03  0.00000000000E+00 0.  1.
         14    1    4    4    0    0  0.24868845577E+03 -0.68339108888E+01  0.32439372023E+02  0.25088834814E+03  0.00000000000E+00 0. -1.
         -5    1    5    5    0  503 -0.57410458638E+02 -0.50780742022E+02 -0.16262832450E+01  0.76807417080E+02  0.47000000000E+01 0.  1.
         13    1    6    6    0    0 -0.12751295676E+03 -0.11678914398E+02 -0.11308653504E+03  0.17083476107E+03  0.00000000000E+00 0. -1.
        -14    1    6    6    0    0 -0.30069476325E+03 -0.18407279594E+02 -0.12107469358E+03  0.32467714735E+03  0.00000000000E+00 0.  1.
</event>
<event>
12    1  0.9028446E-003  0.1885347E+03  0.7818608E-02  0.1160069E+00
         21   -1    0    0  501  502  0.00000000000E+00  0.00000000000E+00  0.37089670036E+03  0.37089670036E+03  0.00000000000E+00 0. -1.
         21   -1    0    0  502  503 -0.00000000000E+00 -0.00000000000E+00 -0.12195430072E+03  0.12195430072E+03  0.00000000000E+00 0. -1.
          6    2    1    2  501    0  0.77640749170E+00  0.74829153422E+02  0.87681743444E+01  0.18751676391E+03  0.17171386331E+03 0.  0.
         24    2    3    3    0    0  0.41269316115E+00 -0.98040643354E+01  0.48502930964E+02  0.93901301936E+02  0.79803697910E+02 0.  0.
         -6    2    1    2    0  503 -0.77640749170E+00 -0.74829153422E+02  0.24017422529E+03  0.30533423717E+03  0.17304719842E+03 0.  0.
        -24    2    5    5    0    0  0.66065685607E+02 -0.36806590181E+02  0.12670600490E+03  0.16818210352E+03  0.80693298181E+02 0.  0.
          5    1    3    3  501    0  0.36371433055E+00  0.84633217757E+02 -0.39734756620E+02  0.93615461969E+02  0.47000000000E+01 0. -1.
        -11    1    4    4    0    0  0.22294374187E+02 -0.12960926760E+02 -0.12759295653E+02  0.28771937169E+02  0.00000000000E+00 0.  1.
         12    1    4    4    0    0 -0.21881681026E+02  0.31568624249E+01  0.61262226617E+02  0.65129364767E+02  0.00000000000E+00 0. -1.
         -5    1    5    5    0  503 -0.66842093098E+02 -0.38022563241E+02  0.11346822040E+03  0.13715213365E+03  0.47000000000E+01 0.  1.
         13    1    6    6    0    0  0.30264001788E+02 -0.23634603744E+02  0.12414537338E+03  0.12994836678E+03  0.00000000000E+00 0. -1.
        -14    1    6    6    0    0  0.35801683819E+02 -0.13171986437E+02  0.25606315195E+01  0.38233736735E+02  0.00000000000E+00 0.  1.
</event>
<event>
12    1  0.9028446E-003  0.1840195E+03  0.7818608E-02  0.1165702E+00
         21   -1    0    0  503  502  0.00000000000E+00  0.00000000000E+00  0.28018224303E+02  0.28018224303E+02  0.00000000000E+00 0.  1.
         21   -1    0    0  501  503 -0.00000000000E+00 -0.00000000000E+00 -0.12041884234E+04  0.12041884234E+04  0.00000000000E+00 0.  1.
          6    2    1    2  501    0 -0.85848663950E+01  0.37810341416E+02 -0.69245996444E+03  0.71467521642E+03  0.17250084279E+03 0.  0.
         24    2    3    3    0    0  0.42412192381E+01  0.77566364065E+02 -0.29695165036E+03  0.31693916536E+03  0.78965961715E+02 0.  0.
         -6    2    1    2    0  502  0.85848663950E+01 -0.37810341416E+02 -0.48371023463E+03  0.51753143126E+03  0.17988849159E+03 0.  0.
        -24    2    5    5    0    0  0.71236638502E+02 -0.26260153245E+01 -0.22559714641E+03  0.24956195975E+03  0.79407459748E+02 0.  0.
          5    1    3    3  501    0 -0.12826085633E+02 -0.39756022648E+02 -0.39550831407E+03  0.39773605106E+03  0.47000000000E+01 0. -1.
        -11    1    4    4    0    0  0.38236832401E+02  0.62112537402E+02 -0.21006053974E+03  0.22236333558E+03  0.00000000000E+00 0.  1.
         12    1    4    4    0    0 -0.33995613163E+02  0.15453826662E+02 -0.86891110629E+02  0.94575829783E+02  0.00000000000E+00 0. -1.
         -5    1    5    5    0  502 -0.62651772107E+02 -0.35184326092E+02 -0.25811308822E+03  0.26796947151E+03  0.47000000000E+01 0.  1.
         13    1    6    6    0    0 -0.11874189439E+02  0.17495221064E+02 -0.41619437846E+02  0.46682510018E+02  0.00000000000E+00 0. -1.
        -14    1    6    6    0    0  0.83110827940E+02 -0.20121236389E+02 -0.18397770856E+03  0.20287944973E+03  0.00000000000E+00 0.  1.
</event>
<event>
12    1  0.9028446E-003  0.2220134E+03  0.7818608E-02  0.1132479E+00
         21   -1    0    0  503  502  0.00000000000E+00  0.00000000000E+00  0.12505227047E+03  0.12505227047E+03  0.00000000000E+00 0.  1.
         21   -1    0    0  501  503 -0.00000000000E+00 -0.00000000000E+00 -0.39460792324E+03  0.39460792324E+03  0.00000000000E+00 0.  1.
          6    2    1    2  501    0  0.63782061467E+02  0.12041174549E+03 -0.12001519476E+03  0.25237589789E+03  0.17527922593E+03 0.  0.
         24    2    3    3    0    0  0.10914400062E+03  0.55231546946E+02 -0.85022438679E+02  0.16546935737E+03  0.72030247106E+02 0.  0.
         -6    2    1    2    0  502 -0.63782061467E+02 -0.12041174549E+03 -0.14954045800E+03  0.26728429582E+03  0.17467514532E+03 0.  0.
        -24    2    5    5    0    0 -0.10716636893E+03 -0.12352693284E+03 -0.11865457859E+03  0.21373123733E+03  0.69703651458E+02 0.  0.
          5    1    3    3  501    0 -0.45361939157E+02  0.65180198549E+02 -0.34992756085E+02  0.86906540522E+02  0.47000000000E+01 0. -1.
        -11    1    4    4    0    0  0.64238414363E+02  0.40360898573E+02 -0.90223293512E+02  0.11788052725E+03  0.00000000000E+00 0.  1.
         12    1    4    4    0    0  0.44905586262E+02  0.14870648373E+02  0.52008548330E+01  0.47588830113E+02  0.00000000000E+00 0. -1.
         -5    1    5    5    0  502  0.43384307460E+02  0.31151873434E+01 -0.30885879413E+02  0.53553058485E+02  0.47000000000E+01 0.  1.
         13    1    6    6    0    0 -0.85831595738E+02 -0.46066876374E+02 -0.66299323085E+02  0.11783386681E+03  0.00000000000E+00 0. -1.
        -14    1    6    6    0    0 -0.21334773189E+02 -0.77460056465E+02 -0.52355255502E+02  0.95897370523E+02  0.00000000000E+00 0.  1.
</event>
<event>
12    1  0.9028446E-003  0.2541596E+03  0.7818608E-02  0.1110805E+00
         21   -1    0    0  503  502  0.00000000000E+00  0.00000000000E+00  0.60238718236E+03  0.60238718236E+03  0.00000000000E+00 0. -1.
         21   -1    0    0  501  503 -0.00000000000E+00 -0.00000000000E+00 -0.10707821789E+03  0.10707821789E+03  0.00000000000E+00 0. -1.
          6    2    1    2  501    0  0.17946149633E+03 -0.51932070589E+02  0.25917053300E+03  0.36253822899E+03  0.17135119981E+03 0.  0.
         24    2    3    3    0    0  0.16966305577E+03  0.92620234133E+01  0.21935971201E+03  0.28872957064E+03  0.79841994846E+02 0.  0.
         -6    2    1    2    0  502 -0.17946149633E+03  0.51932070589E+02  0.23613843146E+03  0.34692717126E+03  0.17231870103E+03 0.  0.
        -24    2    5    5    0    0 -0.18473198458E+03  0.13928045557E+01  0.16958525458E+03  0.26306173851E+03  0.79463662563E+02 0.  0.
          5    1    3    3  501    0  0.97984405691E+01 -0.61194094002E+02  0.39810820988E+02  0.73808658341E+02  0.47000000000E+01 0. -1.
        -13    1    4    4    0    0  0.52364153194E+02  0.40074353262E+02  0.87720054237E+02  0.10973953820E+03  0.00000000000E+00 0.  1.
         14    1    4    4    0    0  0.11729890257E+03 -0.30812329849E+02  0.13163965777E+03  0.17899003244E+03  0.00000000000E+00 0. -1.
         -5    1    5    5    0  502  0.52704882405E+01  0.50539266033E+02  0.66553176880E+02  0.83865432750E+02  0.47000000000E+01 0.  1.
         13    1    6    6    0    0 -0.11946821739E+03 -0.34748587424E+02  0.87295127851E+02  0.15198867932E+03  0.00000000000E+00 0. -1.
        -14    1    6    6    0    0 -0.65263767187E+02  0.36141391980E+02  0.82290126733E+02  0.11107305920E+03  0.00000000000E+00 0.  1.
</event>
<event>
12    1  0.9028446E-003  0.2461817E+03  0.7818608E-02  0.1115985E+00
         21   -1    0    0  501  502  0.00000000000E+00  0.00000000000E+00  0.50231636772E+03  0.50231636772E+03  0.00000000000E+00 0.  1.
         21   -1    0    0  502  503 -0.00000000000E+00 -0.00000000000E+00 -0.14842344377E+03  0.14842344377E+03  0.00000000000E+00 0. -1.
          6    2    1    2  501    0  0.56313662219E+02 -0.16528296733E+03  0.31910245080E+03  0.40211193711E+03  0.17139996506E+03 0.  0.
         24    2    3    3    0    0 -0.28742110461E+02 -0.50288208477E+02  0.14694977833E+03  0.17824386956E+03  0.82593140525E+02 0.  0.
         -6    2    1    2    0  503 -0.56313662219E+02  0.16528296733E+03  0.34790473156E+02  0.24862787438E+03  0.17353891510E+03 0.  0.
        -24    2    5    5    0    0 -0.13315623489E+02  0.18283726224E+03  0.36129844852E+02  0.20192810435E+03  0.76569075625E+02 0.  0.
          5    1    3    3  501    0  0.85055772680E+02 -0.11499475885E+03  0.17215267247E+03  0.22386806755E+03  0.47000000000E+01 0. -1.
        -13    1    4    4    0    0 -0.21325957440E+02 -0.43926248230E+02  0.15688538328E+03  0.16430865842E+03  0.00000000000E+00 0.  1.
         14    1    4    4    0    0 -0.74161530208E+01 -0.63619602470E+01 -0.99356049559E+01  0.13935211145E+02  0.00000000000E+00 0. -1.
         -5    1    5    5    0  503 -0.42998038730E+02 -0.17554294916E+02 -0.13393716955E+01  0.46699770033E+02  0.47000000000E+01 0.  1.
         13    1    6    6    0    0  0.20015589677E+02  0.14814041438E+03  0.18232161810E+02  0.15059421611E+03  0.00000000000E+00 0. -1.
        -14    1    6    6    0    0 -0.33331213166E+02  0.34696847866E+02  0.17897683042E+02  0.51333888234E+02  0.00000000000E+00 0.  1.
</event>
<event>
12    1  0.9028446E-003  0.2000016E+03  0.7818608E-02  0.1149891E+00
         21   -1    0    0  503  502  0.00000000000E+00  0.00000000000E+00  0.84308920651E+03  0.84308920651E+03  0.00000000000E+00 0.  1.
         21   -1    0    0  501  503 -0.00000000000E+00 -0.00000000000E+00 -0.47274744720E+02  0.47274744720E+02  0.00000000000E+00 0.  1.
          6    2    1    2  501    0  0.62178389430E+02 -0.80178422105E+02  0.39969699976E+03  0.44661886293E+03  0.17151089068E+03 0.  0.
         24    2    3    3    0    0  0.92541808215E+02 -0.14372931601E+02  0.21071869376E+03  0.24416593033E+03  0.80274941304E+02 0.  0.
         -6    2    1    2    0  502 -0.62178389430E+02  0.80178422105E+02  0.39611746203E+03  0.44374508830E+03  0.17235407794E+03 0.  0.
        -24    2    5    5    0    0 -0.42147568221E+02  0.35335552495E+01  0.32377183496E+03  0.33635957173E+03  0.80750584271E+02 0.  0.
          5    1    3    3  501    0 -0.30363418784E+02 -0.65805490504E+02  0.18897830600E+03  0.20245293260E+03  0.47000000000E+01 0. -1.
        -13    1    4    4    0    0  0.10543507380E+02 -0.27075650372E+02  0.10946717953E+03  0.11325775816E+03  0.00000000000E+00 0.  1.
         14    1    4    4    0    0  0.81998300834E+02  0.12702718772E+02  0.10125151423E+03  0.13090817216E+03  0.00000000000E+00 0. -1.
         -5    1    5    5    0  502 -0.20030821209E+02  0.76644866855E+02  0.72345627071E+02  0.10738551657E+03  0.47000000000E+01 0.  1.
         13    1    6    6    0    0 -0.35107561748E+02 -0.14865431701E+02  0.55314900984E+02  0.67180802484E+02  0.00000000000E+00 0. -1.
        -14    1    6    6    0    0 -0.70400064730E+01  0.18398986950E+02  0.26845693397E+03  0.26917876924E+03  0.00000000000E+00 0.  1.
</event>
<event>
12    1  0.9028446E-003  0.1835024E+03  0.7818608E-02  0.1164710E+00
         21   -1    0    0  501  502  0.00000000000E+00  0.00000000000E+00  0.20740279511E+03  0.20740279511E+03  0.00000000000E+00 0.  1.
         21   -1    0    0  502  503 -0.00000000000E+00 -0.00000000000E+00 -0.18861675959E+03  0.18861675959E+03  0.00000000000E+00 0.  1.
          6    2    1    2  501    0 -0.36198457686E+01 -0.73154912668E+02 -0.65788435886E+02  0.19493906625E+03  0.16825093379E+03 0.  0.
         24    2    3    3    0    0  0.59958387411E+02 -0.25219294156E+02 -0.46101379732E+02  0.11278259702E+03  0.79771899553E+02 0.  0.
         -6    2    1    2    0  503  0.36198457686E+01  0.73154912668E+02  0.84574471398E+02  0.20108048845E+03  0.16708015170E+03 0.  0.
        -24    2    5    5    0    0  0.56848263318E+02  0.17096933766E+02  0.22311059842E+02  0.10170954777E+03  0.79517410228E+02 0.  0.
          5    1    3    3  501    0 -0.63578233179E+02 -0.47935618513E+02 -0.19687056154E+02  0.82156469230E+02  0.47000000000E+01 0. -1.
        -13    1    4    4    0    0  0.11728219070E+02 -0.37152191885E+02  0.75230153996E+01  0.39679115982E+02  0.00000000000E+00 0.  1.
         14    1    4    4    0    0  0.48230168340E+02  0.11932897729E+02 -0.53624395131E+02  0.73103481036E+02  0.00000000000E+00 0. -1.
         -5    1    5    5    0  503 -0.53228417550E+02  0.56057978903E+02  0.62263411556E+02  0.99370940682E+02  0.47000000000E+01 0.  1.
         11    1    6    6    0    0  0.98762323760E+01 -0.59775160728E+01 -0.27273638232E+02  0.29616245656E+02  0.00000000000E+00 0. -1.
        -12    1    6    6    0    0  0.46972030942E+02  0.23074449839E+02  0.49584698074E+02  0.72093302111E+02  0.00000000000E+00 0.  1.
</event>
<event>
12    1  0.9028446E-003  0.2016650E+03  0.7818608E-02  0.1150200E+00
         21   -1    0    0  503  502  0.00000000000E+00  0.00000000000E+00  0.11852595612E+03  0.11852595612E+03  0.00000000000E+00 0. -1.
         21   -1    0    0  501  503 -0.00000000000E+00 -0.00000000000E+00 -0.57455026246E+03  0.57455026246E+03  0.00000000000E+00 0.  1.
          6    2    1    2  501    0 -0.62444957765E+02 -0.60009222721E+02 -0.45189323299E+03  0.49136894688E+03  0.17243975289E+03 0.  0.
         24    2    3    3    0    0  0.28376106570E+02 -0.52128476997E+02 -0.27889452285E+03  0.29576420361E+03  0.78560344473E+02 0.  0.
         -6    2    1    2    0  502  0.62444957765E+02  0.60009222721E+02 -0.41310733516E+01  0.20170727170E+03  0.18212160258E+03 0.  0.
        -24    2    5    5    0    0  0.54238342713E+02 -0.35703019218E+02 -0.16090604248E+02  0.10478822214E+03  0.80654575524E+02 0.  0.
          5    1    3    3  501    0 -0.90821064335E+02 -0.78807457240E+01 -0.17299871014E+03  0.19560474327E+03  0.47000000000E+01 0. -1.
        -11    1    4    4    0    0 -0.12659805689E+02 -0.29547923052E+02 -0.35448669381E+02  0.47853511863E+02  0.00000000000E+00 0.  1.
         12    1    4    4    0    0  0.41035912259E+02 -0.22580553945E+02 -0.24344585347E+03  0.24791069175E+03  0.00000000000E+00 0. -1.
         -5    1    5    5    0  502  0.82066150520E+01  0.95712241940E+02  0.11959530897E+02  0.96919049557E+02  0.47000000000E+01 0.  1.
         11    1    6    6    0    0 -0.15589437388E+01  0.97975696763E+01  0.21419466150E+02  0.23605427496E+02  0.00000000000E+00 0. -1.
        -12    1    6    6    0    0  0.55797286452E+02 -0.45500588894E+02 -0.37510070398E+02  0.81182794645E+02  0.00000000000E+00 0.  1.
</event>
<event>
12    1  0.9028446E-003  0.1803588E+03  0.7818608E-02  0.1167857E+00
         21   -1    0    0  501  502  0.00000000000E+00  0.00000000000E+00  0.72654946641E+03  0.72654946641E+03  0.00000000000E+00 0. -1.
         21   -1    0    0  502  503 -0.00000000000E+00 -0.00000000000E+00 -0.47416820746E+02  0.47416820746E+02  0.00000000000E+00 0. -1.
          6    2    1    2  501    0  0.26507959547E+02 -0.39564799671E+02  0.43630628139E+03  0.47148660623E+03  0.17224518391E+03 0.  0.
         24    2    3    3    0    0 -0.24530118301E+02 -0.32994347144E+02  0.11000351829E+03  0.14111766180E+03  0.78250027401E+02 0.  0.
         -6    2    1    2    0  503 -0.26507959547E+02  0.39564799671E+02  0.24282636428E+03  0.30247968093E+03  0.17395766409E+03 0.  0.
        -24    2    5    5    0    0 -0.63115689586E+02  0.55626710669E+02  0.97054054016E+02  0.15125214600E+03  0.79873656833E+02 0.  0.
          5    1    3    3  501    0  0.51038077848E+02 -0.65704525266E+01  0.32630276309E+03  0.33036894442E+03  0.47000000000E+01 0. -1.
        -13    1    4    4    0    0 -0.41388426675E+02 -0.45833948513E+01  0.97097528814E+02  0.10565008033E+03  0.00000000000E+00 0.  1.
         14    1    4    4    0    0  0.16858308374E+02 -0.28410952293E+02  0.12905989480E+02  0.35467581478E+02  0.00000000000E+00 0. -1.
         -5    1    5    5    0  503  0.36607730039E+02 -0.16061910998E+02  0.14577231026E+03  0.15122753493E+03  0.47000000000E+01 0.  1.
         11    1    6    6    0    0 -0.33406748184E+02  0.73886373771E+02  0.65855161762E+02  0.10446104242E+03  0.00000000000E+00 0. -1.
        -12    1    6    6    0    0 -0.29708941402E+02 -0.18259663102E+02  0.31198892253E+02  0.46791103574E+02  0.00000000000E+00 0.  1.
</event>
<event>
12    1  0.9028446E-003  0.2056972E+03  0.7818608E-02  0.1145308E+00
         21   -1    0    0  503  502  0.00000000000E+00  0.00000000000E+00  0.74264145473E+03  0.74264145473E+03  0.00000000000E+00 0. -1.
         21   -1    0    0  501  503 -0.00000000000E+00 -0.00000000000E+00 -0.83714070717E+02  0.83714070717E+02  0.00000000000E+00 0. -1.
          6    2    1    2  501    0 -0.21482763657E+02  0.11040400069E+03  0.93475529828E+02  0.22465199052E+03  0.17052943929E+03 0.  0.
         24    2    3    3    0    0 -0.28566273053E+02  0.12573447748E+03  0.26269566986E+02  0.15519746536E+03  0.82285918121E+02 0.  0.
         -6    2    1    2    0  502  0.21482763657E+02 -0.11040400069E+03  0.56545185418E+03  0.60170353492E+03  0.17222308800E+03 0.  0.
        -24    2    5    5    0    0 -0.50921150722E+02 -0.83653390829E+02  0.38489849055E+03  0.40528681195E+03  0.80744650125E+02 0.  0.
          5    1    3    3  501    0  0.70835093957E+01 -0.15330476788E+02  0.67205962842E+02  0.69454525162E+02  0.47000000000E+01 0. -1.
        -11    1    4    4    0    0  0.76353593604E+01  0.60756267269E+02  0.47889430643E+02  0.77736865722E+02  0.00000000000E+00 0.  1.
         12    1    4    4    0    0 -0.36201632413E+02  0.64978210210E+02 -0.21619863657E+02  0.77460599636E+02  0.00000000000E+00 0. -1.
         -5    1    5    5    0  502  0.72403914380E+02 -0.26750609861E+02  0.18055336363E+03  0.19641672297E+03  0.47000000000E+01 0.  1.
         11    1    6    6    0    0 -0.44597820966E+02 -0.67517656183E+02  0.15603758185E+03  0.17577066445E+03  0.00000000000E+00 0. -1.
        -12    1    6    6    0    0 -0.63233297568E+01 -0.16135734646E+02  0.22886090871E+03  0.22951614751E+03  0.00000000000E+00 0.  1.
</event>
<event>
12    1  0.9028446E-003  0.1850522E+03  0.7818608E-02  0.1163282E+00
         21   -1    0    0  503  502  0.00000000000E+00  0.00000000000E+00  0.58560308119E+03  0.58560308119E+03  0.00000000000E+00 0.  1.
         21   -1    0    0  501  503 -0.00000000000E+00 -0.00000000000E+00 -0.73138811594E+02  0.73138811594E+02  0.00000000000E+00 0.  1.
          6    2    1    2  501    0  0.38029681553E+02 -0.55596324816E+02  0.40492943188E+03  0.44471371866E+03  0.17107085885E+03 0.  0.
         24    2    3    3    0    0 -0.17154432075E+02  0.14194325988E+02  0.11594455092E+03  0.14230609183E+03  0.79448923564E+02 0.  0.
         -6    2    1    2    0  502 -0.38029681553E+02  0.55596324816E+02  0.10753483772E+03  0.21402817413E+03  0.17235750632E+03 0.  0.
        -24    2    5    5    0    0  0.11862486676E+02 -0.19022698790E+02  0.89040456252E+02  0.12226020978E+03  0.80726540781E+02 0.  0.
          5    1    3    3  501    0  0.55184113628E+02 -0.69790650804E+02  0.28898488097E+03  0.30240762683E+03  0.47000000000E+01 0. -1.
        -11    1    4    4    0    0 -0.26594359971E+02  0.90314214028E+01  0.12507808829E+03  0.12819264692E+03  0.00000000000E+00 0.  1.
         12    1    4    4    0    0  0.94399278958E+01  0.51629045853E+01 -0.91335373701E+01  0.14113444913E+02  0.00000000000E+00 0. -1.
         -5    1    5    5    0  502 -0.49892168229E+02  0.74619023606E+02  0.18494381464E+02  0.91767964346E+02  0.47000000000E+01 0.  1.
         13    1    6    6    0    0  0.68005629656E+01 -0.42351303684E+02  0.88540581793E+02  0.98383510837E+02  0.00000000000E+00 0. -1.
        -14    1    6    6    0    0  0.50619237100E+01  0.23328604894E+02  0.49987445909E+00  0.23876698943E+02  0.00000000000E+00 0.  1.
</event>
<event>
12    1  0.9028446E-003  0.1781521E+03  0.7818608E-02  0.1169788E+00
         21   -1    0    0  503  502  0.00000000000E+00  0.00000000000E+00  0.63860040505E+03  0.63860040505E+03  0.00000000000E+00 0.  1.
         21   -1    0    0  501  503 -0.00000000000E+00 -0.00000000000E+00 -0.51987938342E+02  0.51987938342E+02  0.00000000000E+00 0.  1.
          6    2    1    2  501    0  0.16157702695E+02  0.42040336488E+02  0.36840514979E+03  0.40889238967E+03  0.17158721017E+03 0.  0.
         24    2    3    3    0    0  0.45705107722E+02  0.35930337133E+02  0.36510759551E+03  0.37817846611E+03  0.79595539688E+02 0.  0.
         -6    2    1    2    0  502 -0.16157702695E+02 -0.42040336488E+02  0.21820731693E+03  0.28169595373E+03  0.17236506588E+03 0.  0.
        -24    2    5    5    0    0  0.28354875571E+02 -0.15906924565E+02  0.20040644211E+03  0.22689370937E+03  0.10129651571E+03 0.  0.
          5    1    3    3  501    0 -0.29547405027E+02  0.61099993554E+01  0.32975542803E+01  0.30713923556E+02  0.47000000000E+01 0. -1.
        -13    1    4    4    0    0 -0.11183309817E+02 -0.14615322768E+02  0.12366902371E+03  0.12503080222E+03  0.00000000000E+00 0.  1.
         14    1    4    4    0    0  0.56888417539E+02  0.50545659901E+02  0.24143857179E+03  0.25314766389E+03  0.00000000000E+00 0. -1.
         -5    1    5    5    0  502 -0.44512578265E+02 -0.26133411923E+02  0.17800874820E+02  0.54802244361E+02  0.47000000000E+01 0.  1.
         11    1    6    6    0    0  0.47677846953E+02  0.28627331443E+02  0.83672148747E+02  0.10046755532E+03  0.00000000000E+00 0. -1.
        -12    1    6    6    0    0 -0.19322971383E+02 -0.44534256008E+02  0.11673429336E+03  0.12642615405E+03  0.00000000000E+00 0.  1.
</event>
<event>
12    1  0.9028446E-003  0.4335843E+03  0.7818608E-02  0.1033040E+00
         21   -1    0    0  503  502  0.00000000000E+00  0.00000000000E+00  0.25502666107E+03  0.25502666107E+03  0.00000000000E+00 0. -1.
         21   -1    0    0  501  503 -0.00000000000E+00 -0.00000000000E+00 -0.73268653154E+03  0.73268653154E+03  0.00000000000E+00 0.  1.
          6    2    1    2  501    0 -0.35302497562E+03 -0.16263946432E+03 -0.26662115038E+03  0.50900113591E+03  0.19213820486E+03 0.  0.
         24    2    3    3    0    0 -0.35706165966E+03 -0.11375065505E+03 -0.22634685449E+03  0.44535744495E+03  0.81719733902E+02 0.  0.
         -6    2    1    2    0  502  0.35302497562E+03  0.16263946432E+03 -0.21103872010E+03  0.47871205669E+03  0.18316567112E+03 0.  0.
        -24    2    5    5    0    0  0.29495075325E+03  0.13509976438E+03 -0.98380718590E+02  0.34892389976E+03  0.82590731044E+02 0.  0.
          5    1    3    3  501    0  0.40366840424E+01 -0.48888809275E+02 -0.40274295890E+02  0.63643690966E+02  0.47000000000E+01 0. -1.
        -13    1    4    4    0    0 -0.24713856913E+03 -0.38336504472E+02 -0.15354783242E+03  0.29346907293E+03  0.00000000000E+00 0.  1.
         14    1    4    4    0    0 -0.10992309053E+03 -0.75414150576E+02 -0.72799022071E+02  0.15188837201E+03  0.00000000000E+00 0. -1.
         -5    1    5    5    0  502  0.58074222370E+02  0.27539699947E+02 -0.11265800151E+03  0.12978815693E+03  0.47000000000E+01 0.  1.
         13    1    6    6    0    0  0.20780207923E+03  0.52901162712E+02 -0.53576388820E+02  0.22102186903E+03  0.00000000000E+00 0. -1.
        -14    1    6    6    0    0  0.87148674016E+02  0.82198601664E+02 -0.44804329770E+02  0.12790203073E+03  0.00000000000E+00 0.  1.
</event>
<event>
12    1  0.9028446E-003  0.5852295E+03  0.7818608E-02  0.9937109E-01
         21   -1    0    0  501  502  0.00000000000E+00  0.00000000000E+00  0.91008667174E+03  0.91008667174E+03  0.00000000000E+00 0.  1.
         21   -1    0    0  502  503 -0.00000000000E+00 -0.00000000000E+00 -0.40038045433E+03  0.40038045433E+03  0.00000000000E+00 0. -1.
          6    2    1    2  501    0 -0.29571344714E+03 -0.47474427203E+03  0.41795479695E+03  0.71915215839E+03  0.17223544346E+03 0.  0.
         24    2    3    3    0    0 -0.16030391693E+03 -0.33662521333E+03  0.21431592252E+03  0.43825449655E+03  0.84390811530E+02 0.  0.
         -6    2    1    2    0  503  0.29571344714E+03  0.47474427203E+03  0.91751420463E+02  0.59131496767E+03  0.16854228310E+03 0.  0.
        -24    2    5    5    0    0  0.15842232159E+03  0.31424389485E+03  0.11442365580E+03  0.37884062926E+03  0.81120847778E+02 0.  0.
          5    1    3    3  501    0 -0.13540953021E+03 -0.13811905870E+03  0.20363887443E+03  0.28089766184E+03  0.47000000000E+01 0. -1.
        -11    1    4    4    0    0 -0.73947472580E+02 -0.15780291899E+03  0.14877115804E+03  0.22913499822E+03  0.00000000000E+00 0.  1.
         12    1    4    4    0    0 -0.86356444346E+02 -0.17882229433E+03  0.65544764474E+02  0.20911949833E+03  0.00000000000E+00 0. -1.
         -5    1    5    5    0  503  0.13729112555E+03  0.16050037718E+03 -0.22672235333E+02  0.21247433841E+03  0.47000000000E+01 0.  1.
         11    1    6    6    0    0  0.47598758170E+02  0.14532135776E+03  0.14947311458E+02  0.15364687085E+03  0.00000000000E+00 0. -1.
        -12    1    6    6    0    0  0.11082356342E+03  0.16892253709E+03  0.99476344339E+02  0.22519375841E+03  0.00000000000E+00 0.  1.
</event>
<event>
12    1  0.9028446E-003  0.2408448E+03  0.7818608E-02  0.1121254E+00
         21   -1    0    0  501  502  0.00000000000E+00  0.00000000000E+00  0.51311361822E+03  0.51311361822E+03  0.00000000000E+00 0. -1.
         21   -1    0    0  502  503 -0.00000000000E+00 -0.00000000000E+00 -0.24723143392E+03  0.24723143392E+03  0.00000000000E+00 0. -1.
          6    2    1    2  501    0 -0.10343196250E+03 -0.11052925189E+03  0.42012988115E+03  0.48426781557E+03  0.18732675669E+03 0.  0.
         24    2    3    3    0    0 -0.13395983175E+03 -0.50335262173E+02  0.22973238137E+03  0.28220701996E+03  0.79905944243E+02 0.  0.
         -6    2    1    2    0  503  0.10343196250E+03  0.11052925189E+03 -0.15424769685E+03  0.27607723656E+03  0.17178883018E+03 0.  0.
        -24    2    5    5    0    0  0.15869804202E+02  0.93658306670E+02 -0.87071345285E+02  0.16433417159E+03  0.10198319317E+03 0.  0.
          5    1    3    3  501    0  0.30527869249E+02 -0.60193989715E+02  0.19039749978E+03  0.20206079561E+03  0.47000000000E+01 0. -1.
        -13    1    4    4    0    0 -0.99310498209E+02 -0.68752557341E+02  0.14420710048E+03  0.18810948148E+03  0.00000000000E+00 0.  1.
         14    1    4    4    0    0 -0.34649333544E+02  0.18417295169E+02  0.85525280892E+02  0.94097538480E+02  0.00000000000E+00 0. -1.
         -5    1    5    5    0  503  0.87562158301E+02  0.16870945217E+02 -0.67176351568E+02  0.11174306497E+03  0.47000000000E+01 0.  1.
         11    1    6    6    0    0 -0.35628018439E+02  0.24922579899E+02 -0.60358863314E+02  0.74388729437E+02  0.00000000000E+00 0. -1.
        -12    1    6    6    0    0  0.51497822641E+02  0.68735726771E+02 -0.26712481971E+02  0.89945442156E+02  0.00000000000E+00 0.  1.
</event>
<event>
12    1  0.9028446E-003  0.1923322E+03  0.7818608E-02  0.1157075E+00
         21   -1    0    0  501  502  0.00000000000E+00  0.00000000000E+00  0.12867257040E+03  0.12867257040E+03  0.00000000000E+00 0.  1.
         21   -1    0    0  502  503 -0.00000000000E+00 -0.00000000000E+00 -0.30876349894E+03  0.30876349894E+03  0.00000000000E+00 0. -1.
          6    2    1    2  501    0  0.65429341162E+02 -0.43812646807E+02 -0.27338868839E+02  0.19426550193E+03  0.17547400031E+03 0.  0.
         24    2    3    3    0    0  0.90243504844E+02  0.21181613896E+02 -0.24396562224E+02  0.12447478756E+03  0.79411772153E+02 0.  0.
         -6    2    1    2    0  503 -0.65429341162E+02  0.43812646807E+02 -0.15275205970E+03  0.24317056741E+03  0.17204123461E+03 0.  0.
        -24    2    5    5    0    0  0.27143813754E+02  0.97021558144E+01 -0.32419859047E+02  0.87493841079E+02  0.75981619577E+02 0.  0.
          5    1    3    3  501    0 -0.24814163682E+02 -0.64994260703E+02 -0.29423066152E+01  0.69790714366E+02  0.47000000000E+01 0. -1.
        -11    1    4    4    0    0  0.40511879291E+02  0.38522264181E+02  0.15944038733E+02  0.58132517342E+02  0.00000000000E+00 0.  1.
         12    1    4    4    0    0  0.49731625552E+02 -0.17340650286E+02 -0.40340600956E+02  0.66342270220E+02  0.00000000000E+00 0. -1.
         -5    1    5    5    0  503 -0.92573154915E+02  0.34110490993E+02 -0.12033220065E+03  0.15567672633E+03  0.47000000000E+01 0.  1.
         13    1    6    6    0    0  0.14570884741E+02 -0.56326943479E+01 -0.55155571343E+02  0.57325168800E+02  0.00000000000E+00 0. -1.
        -14    1    6    6    0    0  0.12572929012E+02  0.15334850162E+02  0.22735712296E+02  0.30168672279E+02  0.00000000000E+00 0.  1.
</event>
<event>
12    1  0.9028446E-003  0.1921156E+03  0.7818608E-02  0.1157594E+00
         21   -1    0    0  501  502  0.00000000000E+00  0.00000000000E+00  0.19638592198E+03  0.19638592198E+03  0.00000000000E+00 0.  1.
         21   -1    0    0  502  503 -0.00000000000E+00 -0.00000000000E+00 -0.18908560804E+03  0.18908560804E+03  0.00000000000E+00 0. -1.
          6    2    1    2  501    0 -0.68862426730E+02  0.28897922398E+02 -0.29424194647E+02  0.19435578965E+03  0.17700640103E+03 0.  0.
         24    2    3    3    0    0 -0.11156025495E+03  0.34999605115E+02 -0.20971935177E+01  0.14308016136E+03  0.82443141078E+02 0.  0.
         -6    2    1    2    0  503  0.68862426730E+02 -0.28897922398E+02  0.36724508589E+02  0.19111574037E+03  0.17204479926E+03 0.  0.
        -24    2    5    5    0    0  0.13338588943E+02 -0.52604015721E+02 -0.30578982281E+02  0.10057997227E+03  0.78969337334E+02 0.  0.
          5    1    3    3  501    0  0.42697828218E+02 -0.61016827174E+01 -0.27327001129E+02  0.51275628297E+02  0.47000000000E+01 0. -1.
        -13    1    4    4    0    0 -0.64985893087E+02 -0.64327702543E+01  0.31238036102E+02  0.72390342816E+02  0.00000000000E+00 0.  1.
         14    1    4    4    0    0 -0.46574361860E+02  0.41432375369E+02 -0.33335229620E+02  0.70689818540E+02  0.00000000000E+00 0. -1.
         -5    1    5    5    0  503  0.55523837786E+02  0.23706093323E+02  0.67303490870E+02  0.90535768106E+02  0.47000000000E+01 0.  1.
         11    1    6    6    0    0 -0.20074828407E+02  0.60715347611E+01 -0.25283930701E+02  0.32850257558E+02  0.00000000000E+00 0. -1.
        -12    1    6    6    0    0  0.33413417350E+02 -0.58675550482E+02 -0.52950515798E+01  0.67729714709E+02  0.00000000000E+00 0.  1.
</event>
<event>
12    1  0.9028446E-003  0.2258035E+03  0.7818608E-02  0.1129696E+00
         21   -1    0    0  501  502  0.00000000000E+00  0.00000000000E+00  0.13148319351E+03  0.13148319351E+03  0.00000000000E+00 0.  1.
         21   -1    0    0  502  503 -0.00000000000E+00 -0.00000000000E+00 -0.41135468678E+03  0.41135468678E+03  0.00000000000E+00 0. -1.
          6    2    1    2  501    0 -0.14223899410E+03 -0.45718924495E+02 -0.20567697334E+03  0.30515733677E+03  0.16880708315E+03 0.  0.
         24    2    3    3    0    0 -0.82634216044E+02 -0.88687690877E+02 -0.97361500782E+02  0.17418643906E+03  0.78534919258E+02 0.  0.
         -6    2    1    2    0  503  0.14223899410E+03  0.45718924495E+02 -0.74194519935E+02  0.23768054352E+03  0.16930759723E+03 0.  0.
        -24    2    5    5    0    0  0.74962258679E+02  0.22491601525E+02 -0.11131697224E+03  0.15727013296E+03  0.78849312282E+02 0.  0.
          5    1    3    3  501    0 -0.59604778054E+02  0.42968766382E+02 -0.10831547256E+03  0.13097089771E+03  0.47000000000E+01 0. -1.
        -13    1    4    4    0    0 -0.70455425647E+02 -0.18215944076E+02 -0.45173847396E+02  0.85653161706E+02  0.00000000000E+00 0.  1.
         14    1    4    4    0    0 -0.12178790396E+02 -0.70471746800E+02 -0.52187653387E+02  0.88533277351E+02  0.00000000000E+00 0. -1.
         -5    1    5    5    0  503  0.67276735418E+02  0.23227322970E+02  0.37122452307E+02  0.80410410558E+02  0.47000000000E+01 0.  1.
         13    1    6    6    0    0  0.36718963514E+02 -0.28266200165E+02 -0.58541530805E+02  0.74661711621E+02  0.00000000000E+00 0. -1.
        -14    1    6    6    0    0  0.38243295165E+02  0.50757801690E+02 -0.52775441437E+02  0.82608421341E+02  0.00000000000E+00 0.  1.
</event>
<event>
12    1  0.9028446E-003  0.1931695E+03  0.7818608E-02  0.1155652E+00
         21   -1    0    0  501  502  0.00000000000E+00  0.00000000000E+00  0.29770584965E+03  0.29770584965E+03  0.00000000000E+00 0. -1.
         21   -1    0    0  502  503 -0.00000000000E+00 -0.00000000000E+00 -0.12590356816E+03  0.12590356816E+03  0.00000000000E+00 0. -1.
          6    2    1    2  501    0  0.30298907505E+02  0.81909762541E+02  0.10074397239E+03  0.21778488477E+03  0.17220242468E+03 0.  0.
         24    2    3    3    0    0  0.46836613311E+02 -0.78315626352E+01  0.22696662375E+02  0.97616362442E+02  0.82212006506E+02 0.  0.
         -6    2    1    2    0  503 -0.30298907505E+02 -0.81909762541E+02  0.71058309103E+02  0.20582453304E+03  0.17229980300E+03 0.  0.
        -24    2    5    5    0    0  0.51547416001E+01 -0.89718966978E+02 -0.47431794496E+01  0.12164674158E+03  0.81849664561E+02 0.  0.
          5    1    3    3  501    0 -0.16537705805E+02  0.89741325177E+02  0.78047310017E+02  0.12016852233E+03  0.47000000000E+01 0. -1.
        -13    1    4    4    0    0  0.69711540688E+02  0.26087704974E+01  0.17864600489E+02  0.72011447279E+02  0.00000000000E+00 0.  1.
         14    1    4    4    0    0 -0.22874927377E+02 -0.10440333133E+02  0.48320618864E+01  0.25604915163E+02  0.00000000000E+00 0. -1.
         -5    1    5    5    0  503 -0.35453649105E+02  0.78092044364E+01  0.75801488552E+02  0.84177791463E+02  0.47000000000E+01 0.  1.
         11    1    6    6    0    0  0.25577868686E+02 -0.79637784040E+02  0.22029570372E+02  0.86496855342E+02  0.00000000000E+00 0. -1.
        -12    1    6    6    0    0 -0.20423127086E+02 -0.10081182938E+02 -0.26772749821E+02  0.35149886236E+02  0.00000000000E+00 0.  1.
</event>
<event>
12    1  0.9028446E-003  0.1782874E+03  0.7818608E-02  0.1174230E+00
         21   -1    0    0  503  502  0.00000000000E+00  0.00000000000E+00  0.31078390538E+03  0.31078390538E+03  0.00000000000E+00 0. -1.
         21   -1    0    0  501  503 -0.00000000000E+00 -0.00000000000E+00 -0.95540390290E+02  0.95540390290E+02  0.00000000000E+00 0. -1.
          6    2    1    2  501    0 -0.36383088725E+02  0.29118708704E+02  0.74364961904E+02  0.19317490322E+03  0.17208941668E+03 0.  0.
         24    2    3    3    0    0 -0.48816701650E+01 -0.43007458535E+02  0.28019154429E+02  0.10171700448E+03  0.87680121986E+02 0.  0.
         -6    2    1    2    0  502  0.36383088725E+02 -0.29118708704E+02  0.14087855318E+03  0.21314939245E+03  0.15301721607E+03 0.  0.
        -24    2    5    5    0    0  0.77387707818E+01  0.29921195826E+02  0.11373000420E+03  0.14197818346E+03  0.79171485963E+02 0.  0.
          5    1    3    3  501    0 -0.31501418560E+02  0.72126167239E+02  0.46345807475E+02  0.91457898742E+02  0.47000000000E+01 0. -1.
        -11    1    4    4    0    0  0.81214071801E+01 -0.47850538411E+02  0.53788826331E+02  0.72449079489E+02  0.00000000000E+00 0.  1.
         12    1    4    4    0    0 -0.13003077345E+02  0.48430798755E+01 -0.25769671902E+02  0.29267924987E+02  0.00000000000E+00 0. -1.
         -5    1    5    5    0  502  0.28644317943E+02 -0.59039904529E+02  0.27148548979E+02  0.71171208989E+02  0.47000000000E+01 0.  1.
         11    1    6    6    0    0  0.40718681936E+02  0.32120516718E+02  0.72329164660E+02  0.89001386019E+02  0.00000000000E+00 0. -1.
        -12    1    6    6    0    0 -0.32979911155E+02 -0.21993208927E+01  0.41400839542E+02  0.52976797439E+02  0.00000000000E+00 0.  1.
</event>
<event>
12    1  0.9028446E-003  0.1984693E+03  0.7818608E-02  0.1151289E+00
         21   -1    0    0  501  502  0.00000000000E+00  0.00000000000E+00  0.14736304995E+03  0.14736304995E+03  0.00000000000E+00 0. -1.
         21   -1    0    0  502  503 -0.00000000000E+00 -0.00000000000E+00 -0.26960062804E+03  0.26960062804E+03  0.00000000000E+00 0. -1.
          6    2    1    2  501    0 -0.59093347222E+02 -0.74040881903E+02 -0.36262100001E+02  0.20175480233E+03  0.17440179038E+03 0.  0.
         24    2    3    3    0    0  0.11802334090E+02 -0.94190547306E+02 -0.19420114907E+02  0.12600555080E+03  0.80554973019E+02 0.  0.
         -6    2    1    2    0  503  0.59093347222E+02  0.74040881903E+02 -0.85975478087E+02  0.21520887566E+03  0.17305779801E+03 0.  0.
        -24    2    5    5    0    0 -0.10760295362E+02 -0.15515643589E+02 -0.50953578034E+02  0.96261298451E+02  0.79457229455E+02 0.  0.
          5    1    3    3  501    0 -0.70895681313E+02  0.20149665403E+02 -0.16841985095E+02  0.75749251525E+02  0.47000000000E+01 0. -1.
        -13    1    4    4    0    0 -0.23489995037E+02 -0.29862865379E+02  0.19761489611E+02  0.42826242738E+02  0.00000000000E+00 0.  1.
         14    1    4    4    0    0  0.35292329127E+02 -0.64327681927E+02 -0.39181604517E+02  0.83179308063E+02  0.00000000000E+00 0. -1.
         -5    1    5    5    0  503  0.69853642584E+02  0.89556525491E+02 -0.35021900053E+02  0.11894757721E+03  0.47000000000E+01 0.  1.
         11    1    6    6    0    0  0.18786415203E+02  0.15168277230E+02  0.62485447164E+01  0.24940937059E+02  0.00000000000E+00 0. -1.
        -12    1    6    6    0    0 -0.29546710564E+02 -0.30683920819E+02 -0.57202122750E+02  0.71320361392E+02  0.00000000000E+00 0.  1.
</event>
<event>
12    1  0.9028446E-003  0.1906918E+03  0.7818608E-02  0.1158621E+00
         21   -1    0    0  503  502  0.00000000000E+00  0.00000000000E+00  0.26804507078E+02  0.26804507078E+02  0.00000000000E+00 0.  1.
         21   -1    0    0  501  503 -0.00000000000E+00 -0.00000000000E+00 -0.13471514464E+04  0.13471514464E+04  0.00000000000E+00 0. -1.
          6    2    1    2  501    0 -0.51487573782E+02 -0.58918070930E+02 -0.72667264617E+03  0.75040760951E+03  0.17010625027E+03 0.  0.
         24    2    3    3    0    0  0.17543684030E+02 -0.80500234757E+02 -0.44742342589E+03  0.46190575270E+03  0.79881998624E+02 0.  0.
         -6    2    1    2    0  502  0.51487573782E+02  0.58918070930E+02 -0.59367429310E+03  0.62354834392E+03  0.17389957326E+03 0.  0.
        -24    2    5    5    0    0 -0.34374824250E+02  0.20978958595E+02 -0.37845497125E+03  0.38870121462E+03  0.78985591976E+02 0.  0.
          5    1    3    3  501    0 -0.69031257813E+02  0.21582163827E+02 -0.27924922029E+03  0.28850185681E+03  0.47000000000E+01 0. -1.
        -11    1    4    4    0    0 -0.30252918477E+02 -0.48320114833E+02 -0.21163275987E+03  0.21917686379E+03  0.00000000000E+00 0.  1.
         12    1    4    4    0    0  0.47796602507E+02 -0.32180119924E+02 -0.23579066602E+03  0.24272888891E+03  0.00000000000E+00 0. -1.
         -5    1    5    5    0  502  0.85862398032E+02  0.37939112335E+02 -0.21521932185E+03  0.23484712930E+03  0.47000000000E+01 0.  1.
         11    1    6    6    0    0  0.12830739452E+02  0.26188099884E+02 -0.25094812818E+03  0.25263690841E+03  0.00000000000E+00 0. -1.
        -12    1    6    6    0    0 -0.47205563702E+02 -0.52091412890E+01 -0.12750684307E+03  0.13606430622E+03  0.00000000000E+00 0.  1.
</event>
<event>
12    1  0.9028446E-003  0.1908264E+03  0.7818608E-02  0.1159675E+00
         21   -1    0    0  501  502  0.00000000000E+00  0.00000000000E+00  0.14599140222E+03  0.14599140222E+03  0.00000000000E+00 0. -1.
         21   -1    0    0  502  503 -0.00000000000E+00 -0.00000000000E+00 -0.25399100762E+03  0.25399100762E+03  0.00000000000E+00 0. -1.
          6    2    1    2  501    0 -0.49378330490E+02  0.38129481355E+02 -0.56516606687E+01  0.19091005568E+03  0.18034032056E+03 0.  0.
         24    2    3    3    0    0  0.44751620757E+02  0.18652829251E+02  0.23496042948E+01  0.94339366855E+02  0.80893509622E+02 0.  0.
         -6    2    1    2    0  503  0.49378330490E+02 -0.38129481355E+02 -0.10234794473E+03  0.20907235415E+03  0.17130111094E+03 0.  0.
        -24    2    5    5    0    0  0.71504381015E+02 -0.59360031616E+02 -0.25366410773E+02  0.12607509548E+03  0.81332558348E+02 0.  0.
          5    1    3    3  501    0 -0.94129951247E+02  0.19476652104E+02 -0.80012649635E+01  0.96570688824E+02  0.47000000000E+01 0. -1.
        -13    1    4    4    0    0  0.43844300776E+02  0.25595919852E+01 -0.33365416462E+02  0.55155464257E+02  0.00000000000E+00 0.  1.
         14    1    4    4    0    0  0.90731998021E+00  0.16093237265E+02  0.35715020756E+02  0.39183902599E+02  0.00000000000E+00 0. -1.
         -5    1    5    5    0  503 -0.22126050524E+02  0.21230550261E+02 -0.76981533959E+02  0.82997258670E+02  0.47000000000E+01 0.  1.
         13    1    6    6    0    0  0.53663451005E+02 -0.46476720630E+02 -0.54546218890E+02  0.89527322809E+02  0.00000000000E+00 0. -1.
        -14    1    6    6    0    0  0.17840930010E+02 -0.12883310986E+02  0.29179808117E+02  0.36547772672E+02  0.00000000000E+00 0.  1.
</event>
<event>
12    1  0.9028446E-003  0.2973677E+03  0.7818608E-02  0.1086659E+00
         21   -1    0    0  501  502  0.00000000000E+00  0.00000000000E+00  0.77872515588E+02  0.77872515588E+02  0.00000000000E+00 0. -1.
         21   -1    0    0  502  503 -0.00000000000E+00 -0.00000000000E+00 -0.11482289107E+04  0.11482289107E+04  0.00000000000E+00 0.  1.
          6    2    1    2  501    0  0.43717145057E+02 -0.23753476766E+03 -0.60587367544E+03  0.67458376027E+03  0.17218125453E+03 0.  0.
         24    2    3    3    0    0  0.51555754317E+02 -0.12613674267E+03 -0.20779855181E+03  0.26111446538E+03  0.80200076318E+02 0.  0.
         -6    2    1    2    0  503 -0.43717145057E+02  0.23753476766E+03 -0.46448271966E+03  0.55151766601E+03  0.17347502539E+03 0.  0.
        -24    2    5    5    0    0 -0.24934280648E+02  0.25496509295E+03 -0.39730684600E+03  0.47946698775E+03  0.80043397520E+02 0.  0.
          5    1    3    3  501    0 -0.78386092610E+01 -0.11139802499E+03 -0.39807512363E+03  0.41346929489E+03  0.47000000000E+01 0. -1.
        -13    1    4    4    0    0  0.19487669997E+02  0.71890109736E+01 -0.22925166688E+02  0.30935649797E+02  0.00000000000E+00 0.  1.
         14    1    4    4    0    0  0.32068084321E+02 -0.13332575364E+03 -0.18487338513E+03  0.23017881558E+03  0.00000000000E+00 0. -1.
         -5    1    5    5    0  503 -0.18782864408E+02 -0.17430325293E+02 -0.67175873664E+02  0.72050678260E+02  0.47000000000E+01 0.  1.
         11    1    6    6    0    0 -0.46205014479E+02  0.12122633305E+03 -0.15735493990E+03  0.20393946234E+03  0.00000000000E+00 0. -1.
        -12    1    6    6    0    0  0.21270733831E+02  0.13373875990E+03 -0.23995190609E+03  0.27552752541E+03  0.00000000000E+00 0.  1.
</event>
<event>
12    1  0.9028446E-003  0.2638841E+03  0.7818608E-02  0.1104886E+00
         21   -1    0    0  503  502  0.00000000000E+00  0.00000000000E+00  0.41656869139E+03  0.41656869139E+03  0.00000000000E+00 0. -1.
         21   -1    0    0  501  503 -0.00000000000E+00 -0.00000000000E+00 -0.17089102271E+03  0.17089102271E+03  0.00000000000E+00 0.  1.
          6    2    1    2  501    0 -0.14434786908E+03  0.13727949271E+03  0.16763681777E+03  0.31262902317E+03  0.17306887943E+03 0.  0.
         24    2    3    3    0    0 -0.15683375989E+03  0.13588655252E+03  0.10068529409E+03  0.24434700303E+03  0.80659444850E+02 0.  0.
         -6    2    1    2    0  502  0.14434786908E+03 -0.13727949271E+03  0.78040850909E+02  0.27483069092E+03  0.17250961664E+03 0.  0.
        -24    2    5    5    0    0  0.10743053703E+03 -0.16901410330E+03  0.61028913621E+02  0.22304776975E+03  0.76933035119E+02 0.  0.
          5    1    3    3  501    0  0.12485890814E+02  0.13929401934E+01  0.66951523680E+02  0.68282020143E+02  0.47000000000E+01 0. -1.
        -13    1    4    4    0    0 -0.34439440183E+02  0.15355081522E+02 -0.11209189798E+02  0.39338270229E+02  0.00000000000E+00 0.  1.
         14    1    4    4    0    0 -0.12239431971E+03  0.12053147100E+03  0.11189448389E+03  0.20500873280E+03  0.00000000000E+00 0. -1.
         -5    1    5    5    0  502  0.36917332046E+02  0.31734610585E+02  0.17011937288E+02  0.51782921168E+02  0.47000000000E+01 0.  1.
         11    1    6    6    0    0  0.50520558424E+02 -0.11408938903E+03  0.70625775000E+02  0.14337613332E+03  0.00000000000E+00 0. -1.
        -12    1    6    6    0    0  0.56909978610E+02 -0.54924714273E+02 -0.95968613788E+01  0.79671636432E+02  0.00000000000E+00 0.  1.
</event>
<event>
12    1  0.9028446E-003  0.1942083E+03  0.7818608E-02  0.1154809E+00
         21   -1    0    0  501  502  0.00000000000E+00  0.00000000000E+00  0.29464582052E+02  0.29464582052E+02  0.00000000000E+00 0. -1.
         21   -1    0    0  502  503 -0.00000000000E+00 -0.00000000000E+00 -0.16736669098E+04  0.16736669098E+04  0.00000000000E+00 0. -1.
          6    2    1    2  501    0  0.74805608745E+02 -0.49715535631E+02 -0.40839689251E+03  0.45222218422E+03  0.17218991987E+03 0.  0.
         24    2    3    3    0    0 -0.82428906946E+00  0.42869740570E+01 -0.29102158680E+03  0.30243832365E+03  0.82196824934E+02 0.  0.
         -6    2    1    2    0  503 -0.74805608745E+02  0.49715535631E+02 -0.12358054352E+04  0.12509093076E+04  0.17173091911E+03 0.  0.
        -24    2    5    5    0    0  0.68012956220E+01  0.38035773686E+02 -0.93802305010E+03  0.94189063089E+03  0.76011448702E+02 0.  0.
          5    1    3    3  501    0  0.75629897815E+02 -0.54002509688E+02 -0.11737530571E+03  0.14978386057E+03  0.47000000000E+01 0. -1.
        -11    1    4    4    0    0  0.22008741285E+02  0.30287094569E+02 -0.76795171054E+02  0.85435303521E+02  0.00000000000E+00 0.  1.
         12    1    4    4    0    0 -0.22833030354E+02 -0.26000120512E+02 -0.21422641575E+03  0.21700302013E+03  0.00000000000E+00 0. -1.
         -5    1    5    5    0  503 -0.81606904367E+02  0.11679761945E+02 -0.29778238513E+03  0.30901867674E+03  0.47000000000E+01 0.  1.
         13    1    6    6    0    0 -0.85924819607E+01 -0.66390962811E+01 -0.64425895939E+03  0.64435045984E+03  0.00000000000E+00 0. -1.
        -14    1    6    6    0    0  0.15393777583E+02  0.44674869967E+02 -0.29376409071E+03  0.29754017105E+03  0.00000000000E+00 0.  1.
</event>
<event>
12    1  0.9028446E-003  0.3332613E+03  0.7818608E-02  0.1070428E+00
         21   -1    0    0  503  502  0.00000000000E+00  0.00000000000E+00  0.12532023979E+04  0.12532023979E+04  0.00000000000E+00 0. -1.
         21   -1    0    0  501  503 -0.00000000000E+00 -0.00000000000E+00 -0.20509407483E+03  0.20509407483E+03  0.00000000000E+00 0.  1.
          6    2    1    2  501    0  0.19894436642E+03 -0.19440723282E+03 -0.27283202889E+02  0.33437628235E+03  0.18354860918E+03 0.  0.
         24    2    3    3    0    0  0.15993461986E+03 -0.22183369586E+03 -0.25243615070E+02  0.28641566184E+03  0.81286038132E+02 0.  0.
         -6    2    1    2    0  502 -0.19894436642E+03  0.19440723282E+03  0.10753915260E+04  0.11239201904E+04  0.17133775744E+03 0.  0.
        -24    2    5    5    0    0 -0.17849266102E+03  0.99319216123E+02  0.85887549150E+03  0.88651486956E+03  0.80731451883E+02 0.  0.
          5    1    3    3  501    0  0.39009746560E+02  0.27426463034E+02 -0.20395878190E+01  0.47960620510E+02  0.47000000000E+01 0. -1.
        -13    1    4    4    0    0  0.67025453424E+02 -0.39516980420E+02 -0.25212416251E+02  0.81790397245E+02  0.00000000000E+00 0.  1.
         14    1    4    4    0    0  0.92909166440E+02 -0.18231671544E+03 -0.31198818971E-01  0.20462526459E+03  0.00000000000E+00 0. -1.
         -5    1    5    5    0  502 -0.20451705406E+02  0.95088016700E+02  0.21651603446E+03  0.23740532082E+03  0.47000000000E+01 0.  1.
         13    1    6    6    0    0 -0.12843918957E+03  0.52440342097E+02  0.69765253735E+03  0.71131264417E+03  0.00000000000E+00 0. -1.
        -14    1    6    6    0    0 -0.50053471449E+02  0.46878874026E+02  0.16122295415E+03  0.17520222538E+03  0.00000000000E+00 0.  1.
</event>
<event>
12    1  0.9028446E-003  0.2024635E+03  0.7818608E-02  0.1147940E+00
         21   -1    0    0  503  502  0.00000000000E+00  0.00000000000E+00  0.90515437414E+03  0.90515437414E+03  0.00000000000E+00 0.  1.
         21   -1    0    0  501  503 -0.00000000000E+00 -0.00000000000E+00 -0.46409393497E+02  0.46409393497E+02  0.00000000000E+00 0.  1.
          6    2    1    2  501    0  0.27813219573E+01 -0.10563425505E+03  0.51345447805E+03  0.55193023804E+03  0.17269960929E+03 0.  0.
         24    2    3    3    0    0 -0.17826700008E+02 -0.46495573594E+02  0.45997685063E+03  0.46944374916E+03  0.79492772724E+02 0.  0.
         -6    2    1    2    0  502 -0.27813219573E+01  0.10563425505E+03  0.34529050260E+03  0.39963352960E+03  0.17121651556E+03 0.  0.
        -24    2    5    5    0    0  0.41933072422E+02  0.11886465197E+03  0.22753837121E+03  0.27289728808E+03  0.82535031462E+02 0.  0.
          5    1    3    3  501    0  0.20608021966E+02 -0.59138681455E+02  0.53477627414E+02  0.82486488878E+02  0.47000000000E+01 0. -1.
        -11    1    4    4    0    0 -0.41788304499E+02 -0.15456254550E+02  0.13623311049E+03  0.14333394082E+03  0.00000000000E+00 0.  1.
         12    1    4    4    0    0  0.23961604491E+02 -0.31039319044E+02  0.32374374014E+03  0.32610980834E+03  0.00000000000E+00 0. -1.
         -5    1    5    5    0  502 -0.44714394380E+02 -0.13230396916E+02  0.11775213139E+03  0.12673624152E+03  0.47000000000E+01 0.  1.
         11    1    6    6    0    0  0.42945841716E+02  0.13668154137E+02  0.77507856708E+02  0.89658416279E+02  0.00000000000E+00 0. -1.
        -12    1    6    6    0    0 -0.10127692932E+01  0.10519649783E+03  0.15003051450E+03  0.18323887180E+03  0.00000000000E+00 0.  1.
</event>
<event>
12    1  0.9028446E-003  0.2366730E+03  0.7818608E-02  0.1122060E+00
         21   -1    0    0  503  502  0.00000000000E+00  0.00000000000E+00  0.37579996617E+02  0.37579996617E+02  0.00000000000E+00 0.  1.
         21   -1    0    0  501  503 -0.00000000000E+00 -0.00000000000E+00 -0.15659976658E+04  0.15659976658E+04  0.00000000000E+00 0. -1.
          6    2    1    2  501    0 -0.10851034923E+03 -0.12069648569E+03 -0.94128210477E+03  0.97053559252E+03  0.17200348260E+03 0.  0.
         24    2    3    3    0    0 -0.22020737229E+02  0.42633117769E+01 -0.31007612757E+03  0.32127564487E+03  0.81041633740E+02 0.  0.
         -6    2    1    2    0  502  0.10851034923E+03  0.12069648569E+03 -0.58713556437E+03  0.63304206986E+03  0.17225548965E+03 0.  0.
        -24    2    5    5    0    0  0.58504491457E+02  0.97148235607E+01 -0.41249644634E+03  0.42011385029E+03  0.53152381403E+02 0.  0.
          5    1    3    3  501    0 -0.86489612002E+02 -0.12495979747E+03 -0.63120597720E+03  0.64925994765E+03  0.47000000000E+01 0. -1.
        -13    1    4    4    0    0  0.19201024737E+02 -0.88765517236E+01 -0.22342002163E+03  0.22441920280E+03  0.00000000000E+00 0.  1.
         14    1    4    4    0    0 -0.41221761965E+02  0.13139863501E+02 -0.86656105943E+02  0.96856442065E+02  0.00000000000E+00 0. -1.
         -5    1    5    5    0  502  0.50005857774E+02  0.11098166213E+03 -0.17463911803E+03  0.21292821957E+03  0.47000000000E+01 0.  1.
         13    1    6    6    0    0  0.74251064298E+01 -0.19448345409E+02 -0.10626812589E+03  0.10828797221E+03  0.00000000000E+00 0. -1.
        -14    1    6    6    0    0  0.51079385027E+02  0.29163168970E+02 -0.30622832045E+03  0.31182587809E+03  0.00000000000E+00 0.  1.
</event>
<event>
12    1  0.9028446E-003  0.3765793E+03  0.7818608E-02  0.1052205E+00
         21   -1    0    0  501  502  0.00000000000E+00  0.00000000000E+00  0.62711257329E+03  0.62711257329E+03  0.00000000000E+00 0.  1.
         21   -1    0    0  502  503 -0.00000000000E+00 -0.00000000000E+00 -0.25076692619E+03  0.25076692619E+03  0.00000000000E+00 0. -1.
          6    2    1    2  501    0 -0.13179006456E+03  0.30876584317E+03  0.32574414826E+03  0.49791571467E+03  0.17060434274E+03 0.  0.
         24    2    3    3    0    0 -0.10406191877E+03  0.27973095909E+03  0.33391475277E+03  0.45667588755E+03  0.89305720648E+02 0.  0.
         -6    2    1    2    0  503  0.13179006456E+03 -0.30876584317E+03  0.50601498836E+02  0.37996378480E+03  0.17060773445E+03 0.  0.
        -24    2    5    5    0    0  0.94584632561E+02 -0.13822875459E+03  0.69928980794E+02  0.20428571471E+03  0.93750464372E+02 0.  0.
          5    1    3    3  501    0 -0.27728145788E+02  0.29034884081E+02 -0.81706045124E+01  0.41239827116E+02  0.47000000000E+01 0. -1.
        -13    1    4    4    0    0 -0.23512244582E+02  0.16479821174E+03  0.22019480724E+03  0.27603809406E+03  0.00000000000E+00 0.  1.
         14    1    4    4    0    0 -0.80549674189E+02  0.11493274734E+03  0.11371994554E+03  0.18063779349E+03  0.00000000000E+00 0. -1.
         -5    1    5    5    0  503  0.37205431997E+02 -0.17053708858E+03 -0.19327481958E+02  0.17567807009E+03  0.47000000000E+01 0.  1.
         11    1    6    6    0    0 -0.16233031410E+02 -0.41409511906E+02  0.11373739001E+02  0.45908832743E+02  0.00000000000E+00 0. -1.
        -12    1    6    6    0    0  0.11081766397E+03 -0.96819242682E+02  0.58555241794E+02  0.15837688197E+03  0.00000000000E+00 0.  1.
</event>
<event>
12    1  0.9028446E-003  0.1775800E+03  0.7818608E-02  0.1170569E+00
         21   -1    0    0  501  502  0.00000000000E+00  0.00000000000E+00  0.56128388983E+03  0.56128388983E+03  0.00000000000E+00 0.  1.
         21   -1    0    0  502  503 -0.00000000000E+00 -0.00000000000E+00 -0.65588549516E+02  0.65588549516E+02  0.00000000000E+00 0.  1.
          6    2    1    2  501    0  0.12121660304E+02 -0.39129345116E+02  0.37070764492E+03  0.41104598925E+03  0.17279064494E+03 0.  0.
         24    2    3    3    0    0  0.37202467086E+02 -0.86262907192E+02  0.28899327731E+03  0.31332215686E+03  0.76343610967E+02 0.  0.
         -6    2    1    2    0  503 -0.12121660304E+02  0.39129345116E+02  0.12498769540E+03  0.21582645010E+03  0.17111718869E+03 0.  0.
        -24    2    5    5    0    0  0.12584699808E+02  0.54840106057E+01  0.14729843720E+03  0.16826310324E+03  0.80169777771E+02 0.  0.
          5    1    3    3  501    0 -0.25080806782E+02  0.47133562075E+02  0.81714367603E+02  0.97723832383E+02  0.47000000000E+01 0. -1.
        -11    1    4    4    0    0 -0.22589845451E+02 -0.13792378420E+02  0.77636131055E+02  0.82023774999E+02  0.00000000000E+00 0.  1.
         12    1    4    4    0    0  0.59792312537E+02 -0.72470528772E+02  0.21135714626E+03  0.23129838186E+03  0.00000000000E+00 0. -1.
         -5    1    5    5    0  503 -0.24706360112E+02  0.33645334511E+02 -0.22310741808E+02  0.47563346858E+02  0.47000000000E+01 0.  1.
         11    1    6    6    0    0  0.17121568901E+02  0.39917850010E+02  0.58096313923E+02  0.72538021495E+02  0.00000000000E+00 0. -1.
        -12    1    6    6    0    0 -0.45368690934E+01 -0.34433839404E+02  0.89202123281E+02  0.95725081745E+02  0.00000000000E+00 0.  1.
</event>
<event>
12    1  0.9028446E-003  0.1904672E+03  0.7818608E-02  0.1158256E+00
         21   -1    0    0  503  502  0.00000000000E+00  0.00000000000E+00  0.80218696503E+02  0.80218696503E+02  0.00000000000E+00 0.  1.
         21   -1    0    0  501  503 -0.00000000000E+00 -0.00000000000E+00 -0.45301925033E+03  0.45301925033E+03  0.00000000000E+00 0. -1.
          6    2    1    2  501    0  0.54260048262E+02 -0.64496568824E+02 -0.20873050505E+03  0.28257064213E+03  0.17080334842E+03 0.  0.
         24    2    3    3    0    0  0.48570024272E+02 -0.59655860118E+02 -0.39776610242E+02  0.11338637157E+03  0.73187578402E+02 0.  0.
         -6    2    1    2    0  502 -0.54260048262E+02  0.64496568824E+02 -0.16407004877E+03  0.25066730470E+03  0.16973849449E+03 0.  0.
        -24    2    5    5    0    0  0.22895537663E+02 -0.13579481623E+01 -0.68501958370E+02  0.11122143079E+03  0.84567361894E+02 0.  0.
          5    1    3    3  501    0  0.56900239902E+01 -0.48407087055E+01 -0.16895389481E+03  0.16918427056E+03  0.47000000000E+01 0. -1.
        -11    1    4    4    0    0 -0.13542638165E+02  0.68447925457E+01 -0.51410733520E+01  0.16021387851E+02  0.00000000000E+00 0.  1.
         12    1    4    4    0    0  0.62112662437E+02 -0.66500652664E+02 -0.34635536890E+02  0.97364983723E+02  0.00000000000E+00 0. -1.
         -5    1    5    5    0  502 -0.77155585925E+02  0.65854516986E+02 -0.95568090403E+02  0.13944587391E+03  0.47000000000E+01 0.  1.
         13    1    6    6    0    0 -0.65934856558E+01 -0.22781723596E+02 -0.70832253310E+02  0.74697316498E+02  0.00000000000E+00 0. -1.
        -14    1    6    6    0    0  0.29489023319E+02  0.21423775433E+02  0.23302949394E+01  0.36524114289E+02  0.00000000000E+00 0.  1.
</event>
<event>
12    1  0.9028446E-003  0.2135835E+03  0.7818608E-02  0.1139056E+00
         21   -1    0    0  501  502  0.00000000000E+00  0.00000000000E+00  0.26418404411E+03  0.26418404411E+03  0.00000000000E+00 0. -1.
         21   -1    0    0  502  503 -0.00000000000E+00 -0.00000000000E+00 -0.17371456977E+03  0.17371456977E+03  0.00000000000E+00 0. -1.
          6    2    1    2  501    0  0.12271449737E+03 -0.13736951072E+02  0.20038194137E+02  0.21300203319E+03  0.17239717292E+03 0.  0.
         24    2    3    3    0    0  0.13157669213E+03 -0.59278858055E+02  0.63050346067E+01  0.16438831642E+03  0.78468823043E+02 0.  0.
         -6    2    1    2    0  503 -0.12271449737E+03  0.13736951072E+02  0.70431280196E+02  0.22489658069E+03  0.17427092438E+03 0.  0.
        -24    2    5    5    0    0 -0.35424592734E+01  0.16943773820E+02 -0.75938167501E+01  0.82340401830E+02  0.80141345333E+02 0.  0.
          5    1    3    3  501    0 -0.88621947634E+01  0.45541906983E+02  0.13733159530E+02  0.48613716771E+02  0.47000000000E+01 0. -1.
        -11    1    4    4    0    0  0.16969757201E+02 -0.44536267713E+02 -0.66164598505E+01  0.48116830134E+02  0.00000000000E+00 0.  1.
         12    1    4    4    0    0  0.11460693493E+03 -0.14742590343E+02  0.12921494457E+02  0.11627148629E+03  0.00000000000E+00 0. -1.
         -5    1    5    5    0  503 -0.11917203810E+03 -0.32068227479E+01  0.78025096946E+02  0.14255617885E+03  0.47000000000E+01 0.  1.
         11    1    6    6    0    0  0.65237646062E+01 -0.31443976345E+02 -0.72202800380E+01  0.32915279079E+02  0.00000000000E+00 0. -1.
        -12    1    6    6    0    0 -0.10066223880E+02  0.48387750166E+02 -0.37353671207E+00  0.49425122751E+02  0.00000000000E+00 0.  1.
</event>
<event>
12    1  0.9028446E-003  0.2412909E+03  0.7818608E-02  0.1119365E+00
         21   -1    0    0  503  502  0.00000000000E+00  0.00000000000E+00  0.91602753456E+02  0.91602753456E+02  0.00000000000E+00 0. -1.
         21   -1    0    0  501  503 -0.00000000000E+00 -0.00000000000E+00 -0.87401467687E+03  0.87401467687E+03  0.00000000000E+00 0.  1.
          6    2    1    2  501    0 -0.10482911715E+03  0.13113807564E+03 -0.64541893909E+03  0.68814963160E+03  0.16969964599E+03 0.  0.
         24    2    3    3    0    0 -0.13994830960E+03  0.92836909217E+02 -0.52625377311E+03  0.55806210795E+03  0.79284686647E+02 0.  0.
         -6    2    1    2    0  502  0.10482911715E+03 -0.13113807564E+03 -0.13699298433E+03  0.27746779873E+03  0.17330598055E+03 0.  0.
        -24    2    5    5    0    0  0.10300516359E+03 -0.10974683136E+03 -0.16825469061E+03  0.23925397378E+03  0.79236306935E+02 0.  0.
          5    1    3    3  501    0  0.35119192455E+02  0.38301166419E+02 -0.11916516597E+03  0.13008752365E+03  0.47000000000E+01 0. -1.
        -13    1    4    4    0    0 -0.11569695159E+03  0.78116599339E+02 -0.31033764685E+03  0.34029023311E+03  0.00000000000E+00 0.  1.
         14    1    4    4    0    0 -0.24251358013E+02  0.14720309879E+02 -0.21591612627E+03  0.21777187484E+03  0.00000000000E+00 0. -1.
         -5    1    5    5    0  502  0.18239535604E+01 -0.21391244275E+02  0.31261706280E+02  0.38213824955E+02  0.47000000000E+01 0.  1.
         13    1    6    6    0    0  0.57940842710E+02 -0.89356268289E+02 -0.65008274580E+02  0.12477082872E+03  0.00000000000E+00 0. -1.
        -14    1    6    6    0    0  0.45064320875E+02 -0.20390563073E+02 -0.10324641603E+03  0.11448314505E+03  0.00000000000E+00 0.  1.
</event>
<event>
12    1  0.9028446E-003  0.1755223E+03  0.7818608E-02  0.1172797E+00
         21   -1    0    0  503  502  0.00000000000E+00  0.00000000000E+00  0.92385010782E+03  0.92385010782E+03  0.00000000000E+00 0. -1.
         21   -1    0    0  501  503 -0.00000000000E+00 -0.00000000000E+00 -0.37156646222E+02  0.37156646222E+02  0.00000000000E+00 0. -1.
          6    2    1    2  501    0  0.68231162079E+01 -0.20842334523E+00  0.28343560840E+03  0.33338240010E+03  0.17538951574E+03 0.  0.
         24    2    3    3    0    0  0.10177968486E+02 -0.65274555336E+02  0.20982065089E+03  0.23496437058E+03  0.82578394777E+02 0.  0.
         -6    2    1    2    0  502 -0.68231162079E+01  0.20842334523E+00  0.60325785320E+03  0.62762435394E+03  0.17304824142E+03 0.  0.
        -24    2    5    5    0    0 -0.64187075658E+02  0.25913325444E+02  0.30803004019E+03  0.32574206328E+03  0.80211626455E+02 0.  0.
          5    1    3    3  501    0 -0.33548522776E+01  0.65066131991E+02  0.73614957503E+02  0.98418029518E+02  0.47000000000E+01 0. -1.
        -11    1    4    4    0    0 -0.12377947251E+01 -0.47245826064E+02  0.34910874810E+02  0.58757717759E+02  0.00000000000E+00 0.  1.
         12    1    4    4    0    0  0.11415763211E+02 -0.18028729272E+02  0.17490977608E+03  0.17620665282E+03  0.00000000000E+00 0. -1.
         -5    1    5    5    0  502  0.57363959450E+02 -0.25704902099E+02  0.29522781301E+03  0.30188229066E+03  0.47000000000E+01 0.  1.
         11    1    6    6    0    0 -0.51925837978E+02 -0.10298726164E+02  0.25458417925E+03  0.26002973048E+03  0.00000000000E+00 0. -1.
        -12    1    6    6    0    0 -0.12261237680E+02  0.36212051608E+02  0.53445860939E+02  0.65712332804E+02  0.00000000000E+00 0.  1.
</event>
<event>
12    1  0.9028446E-003  0.1843016E+03  0.7818608E-02  0.1167991E+00
         21   -1    0    0  501  502  0.00000000000E+00  0.00000000000E+00  0.59318112603E+02  0.59318112603E+02  0.00000000000E+00 0.  1.
         21   -1    0    0  502  503 -0.00000000000E+00 -0.00000000000E+00 -0.59971272506E+03  0.59971272506E+03  0.00000000000E+00 0.  1.
          6    2    1    2  501    0  0.66234822439E+02  0.13665970203E+00 -0.13865502254E+03  0.21703334598E+03  0.15326835163E+03 0.  0.
         24    2    3    3    0    0  0.15337534821E+02  0.44279127658E+02 -0.52865037965E+02  0.10784954307E+03  0.81491905005E+02 0.  0.
         -6    2    1    2    0  503 -0.66234822439E+02 -0.13665970203E+00 -0.40173958991E+03  0.44199749168E+03  0.17198841289E+03 0.  0.
        -24    2    5    5    0    0  0.49236754282E+01  0.33787308655E+02 -0.83617151249E+02  0.11421960434E+03  0.69917560213E+02 0.  0.
          5    1    3    3  501    0  0.50897287618E+02 -0.44142467956E+02 -0.85789984574E+02  0.10918380291E+03  0.47000000000E+01 0. -1.
        -11    1    4    4    0    0  0.14714948769E+02 -0.14487260432E+02  0.89947204022E+01  0.22523663717E+02  0.00000000000E+00 0.  1.
         12    1    4    4    0    0  0.62258605142E+00  0.58766388090E+02 -0.61859758368E+02  0.85325879356E+02  0.00000000000E+00 0. -1.
         -5    1    5    5    0  503 -0.71158497867E+02 -0.33923968357E+02 -0.31812243867E+03  0.32777788734E+03  0.47000000000E+01 0.  1.
         11    1    6    6    0    0 -0.15011608039E+02  0.31983302413E+02 -0.87017053742E+02  0.93916173533E+02  0.00000000000E+00 0. -1.
        -12    1    6    6    0    0  0.19935283467E+02  0.18040062421E+01  0.33999024939E+01  0.20303430804E+02  0.00000000000E+00 0.  1.
</event>
<event>
12    1  0.9028446E-003  0.1745134E+03  0.7818608E-02  0.1174083E+00
         21   -1    0    0  503  502  0.00000000000E+00  0.00000000000E+00  0.42940078579E+02  0.42940078579E+02  0.00000000000E+00 0. -1.
         21   -1    0    0  501  503 -0.00000000000E+00 -0.00000000000E+00 -0.71323777484E+03  0.71323777484E+03  0.00000000000E+00 0. -1.
          6    2    1    2  501    0 -0.22210612341E+02  0.19688729243E+02 -0.39149079408E+03  0.42725806312E+03  0.16853324091E+03 0.  0.
         24    2    3    3    0    0 -0.45714207497E+00  0.47211302181E+02 -0.38052229476E+03  0.39020265235E+03  0.72331024211E+02 0.  0.
         -6    2    1    2    0  502  0.22210612341E+02 -0.19688729243E+02 -0.27880690218E+03  0.32891979030E+03  0.17197087657E+03 0.  0.
        -24    2    5    5    0    0  0.65349129926E+02 -0.39018844232E+02 -0.24991320841E+03  0.27331834621E+03  0.80332606405E+02 0.  0.
          5    1    3    3  501    0 -0.21753470266E+02 -0.27522572938E+02 -0.10968499326E+02  0.37055410768E+02  0.47000000000E+01 0. -1.
        -11    1    4    4    0    0  0.32429631446E+02  0.36937627375E+02 -0.17331432914E+03  0.18014973216E+03  0.00000000000E+00 0.  1.
         12    1    4    4    0    0 -0.32886773521E+02  0.10273674806E+02 -0.20720796562E+03  0.21005292019E+03  0.00000000000E+00 0. -1.
         -5    1    5    5    0  502 -0.43138517585E+02  0.19330114990E+02 -0.28893693772E+02  0.55601444089E+02  0.47000000000E+01 0.  1.
         11    1    6    6    0    0  0.65055231829E+02 -0.43341138855E+02 -0.11927562934E+03  0.14260895225E+03  0.00000000000E+00 0. -1.
        -12    1    6    6    0    0  0.29389809718E+00  0.43222946224E+01 -0.13063757907E+03  0.13070939397E+03  0.00000000000E+00 0.  1.
</event>
<event>
12    1  0.9028446E-003  0.1805589E+03  0.7818608E-02  0.1167916E+00
         21   -1    0    0  503  502  0.00000000000E+00  0.00000000000E+00  0.60161493473E+02  0.60161493473E+02  0.00000000000E+00 0. -1.
         21   -1    0    0  501  503 -0.00000000000E+00 -0.00000000000E+00 -0.62723894421E+03  0.62723894421E+03  0.00000000000E+00 0. -1.
          6    2    1    2  501    0  0.20496867066E+02  0.51404739427E+02 -0.41433379115E+03  0.45090069905E+03  0.16904550014E+03 0.  0.
         24    2    3    3    0    0  0.35795171673E+02  0.27581563267E+01 -0.37821916625E+03  0.38823584204E+03  0.79927652223E+02 0.  0.
         -6    2    1    2    0  502 -0.20496867066E+02 -0.51404739427E+02 -0.15274365959E+03  0.23649973864E+03  0.17186893854E+03 0.  0.
        -24    2    5    5    0    0 -0.40245820550E+02 -0.36472100199E+02 -0.17671719788E+03  0.20171719393E+03  0.80690260481E+02 0.  0.
          5    1    3    3  501    0 -0.15298304607E+02  0.48646583100E+02 -0.36114624903E+02  0.62664857002E+02  0.47000000000E+01 0. -1.
        -11    1    4    4    0    0  0.50549225594E+02  0.92609174666E+00 -0.12870183745E+03  0.13827597339E+03  0.00000000000E+00 0.  1.
         12    1    4    4    0    0 -0.14754053920E+02  0.18320645801E+01 -0.24951732879E+03  0.24995986865E+03  0.00000000000E+00 0. -1.
         -5    1    5    5    0  502  0.19748953484E+02 -0.14932639228E+02  0.23973538292E+02  0.34782544707E+02  0.47000000000E+01 0.  1.
         13    1    6    6    0    0 -0.13569205643E+02 -0.13711948798E+02  0.21816948077E+01  0.19413929892E+02  0.00000000000E+00 0. -1.
        -14    1    6    6    0    0 -0.26676614907E+02 -0.22760151402E+02 -0.17889889269E+03  0.18230326404E+03  0.00000000000E+00 0.  1.
</event>
<event>
12    1  0.9028446E-003  0.2083278E+03  0.7818608E-02  0.1143141E+00
         21   -1    0    0  501  502  0.00000000000E+00  0.00000000000E+00  0.42798963187E+03  0.42798963187E+03  0.00000000000E+00 0.  1.
         21   -1    0    0  502  503 -0.00000000000E+00 -0.00000000000E+00 -0.17228670850E+03  0.17228670850E+03  0.00000000000E+00 0.  1.
          6    2    1    2  501    0  0.69074427509E+02 -0.95022081724E+02  0.32094652121E+03  0.38197104839E+03  0.17057180244E+03 0.  0.
         24    2    3    3    0    0  0.28247662148E+02 -0.12854153344E+03  0.21455794284E+03  0.26309717397E+03  0.76577776675E+02 0.  0.
         -6    2    1    2    0  503 -0.69074427509E+02  0.95022081724E+02 -0.65243597842E+02  0.21830529197E+03  0.17204650794E+03 0.  0.
        -24    2    5    5    0    0  0.47735791970E+01  0.46495931114E+02 -0.87545371844E+02  0.12704865106E+03  0.79325336026E+02 0.  0.
          5    1    3    3  501    0  0.40826765361E+02  0.33519451717E+02  0.10638857837E+03  0.11887387442E+03  0.47000000000E+01 0. -1.
        -11    1    4    4    0    0  0.26489277040E+02 -0.71997460208E+02  0.18274450910E+03  0.19819402534E+03  0.00000000000E+00 0.  1.
         12    1    4    4    0    0  0.17583851082E+01 -0.56544073233E+02  0.31813433739E+02  0.64903148631E+02  0.00000000000E+00 0. -1.
         -5    1    5    5    0  503 -0.73848006706E+02  0.48526150610E+02  0.22301774003E+02  0.91256640915E+02  0.47000000000E+01 0.  1.
         13    1    6    6    0    0 -0.81432827250E+01  0.18693964760E+01  0.13476338674E+02  0.15856210164E+02  0.00000000000E+00 0. -1.
        -14    1    6    6    0    0  0.12916861922E+02  0.44626534638E+02 -0.10102171052E+03  0.11119244089E+03  0.00000000000E+00 0.  1.
</event>
<event>
12    1  0.9028446E-003  0.2130787E+03  0.7818608E-02  0.1140492E+00
         21   -1    0    0  503  502  0.00000000000E+00  0.00000000000E+00  0.31172591488E+03  0.31172591488E+03  0.00000000000E+00 0.  1.
         21   -1    0    0  501  503 -0.00000000000E+00 -0.00000000000E+00 -0.14233104828E+03  0.14233104828E+03  0.00000000000E+00 0. -1.
          6    2    1    2  501    0 -0.81759368190E+02 -0.86334768089E+02  0.10488011505E+03  0.23142564979E+03  0.16858145324E+03 0.  0.
         24    2    3    3    0    0 -0.24574641313E+02  0.43993599210E+01  0.41058829407E+01  0.84183295719E+02  0.80291354703E+02 0.  0.
         -6    2    1    2    0  502  0.81759368190E+02  0.86334768089E+02  0.64514751543E+02  0.22263131338E+03  0.17681702990E+03 0.  0.
        -24    2    5    5    0    0  0.11816856955E+03  0.91906458612E+02  0.23074572290E+02  0.16698913391E+03  0.70301685566E+02 0.  0.
          5    1    3    3  501    0 -0.57184726877E+02 -0.90734128010E+02  0.10077423211E+03  0.14724235407E+03  0.47000000000E+01 0. -1.
        -11    1    4    4    0    0 -0.36033475777E+01 -0.22313075974E+02  0.32724940068E+02  0.39771587542E+02  0.00000000000E+00 0.  1.
         12    1    4    4    0    0 -0.20971293735E+02  0.26712435895E+02 -0.28619057127E+02  0.44411708177E+02  0.00000000000E+00 0. -1.
         -5    1    5    5    0  502 -0.36409201362E+02 -0.55716905227E+01  0.41440179253E+02  0.55642179465E+02  0.47000000000E+01 0.  1.
         13    1    6    6    0    0  0.96492908884E+02  0.73039438663E+02  0.46770698920E+02  0.12974258878E+03  0.00000000000E+00 0. -1.
        -14    1    6    6    0    0  0.21675660668E+02  0.18867019949E+02 -0.23696126630E+02  0.37246545134E+02  0.00000000000E+00 0.  1.
</event>
<event>
12    1  0.9028446E-003  0.1885071E+03  0.7818608E-02  0.1160164E+00
         21   -1    0    0  501  502  0.00000000000E+00  0.00000000000E+00  0.64493605136E+03  0.64493605136E+03  0.00000000000E+00 0. -1.
         21   -1    0    0  502  503 -0.00000000000E+00 -0.00000000000E+00 -0.62378122413E+02  0.62378122413E+02  0.00000000000E+00 0. -1.
          6    2    1    2  501    0  0.73944083202E+02  0.38902055879E+01  0.41469744932E+03  0.45490166426E+03  0.17169358910E+03 0.  0.
         24    2    3    3    0    0  0.39997867929E+02  0.37918131690E+02  0.10751688973E+03  0.14394791935E+03  0.78252845048E+02 0.  0.
         -6    2    1    2    0  503 -0.73944083202E+02 -0.38902055879E+01  0.16786047963E+03  0.25241250951E+03  0.17335533795E+03 0.  0.
        -24    2    5    5    0    0 -0.94360533260E+02  0.46600998704E+02  0.10912236023E+03  0.17217255802E+03  0.81609661914E+02 0.  0.
          5    1    3    3  501    0  0.33946215272E+02 -0.34027926102E+02  0.30718055958E+03  0.31095374491E+03  0.47000000000E+01 0. -1.
        -11    1    4    4    0    0 -0.49569812292E+01  0.31178106794E+02  0.52099708781E+01  0.31996715499E+02  0.00000000000E+00 0.  1.
         12    1    4    4    0    0  0.44954849159E+02  0.67400248956E+01  0.10230691886E+03  0.11195120385E+03  0.00000000000E+00 0. -1.
         -5    1    5    5    0  503  0.20416450059E+02 -0.50491204292E+02  0.58738119404E+02  0.80239951489E+02  0.47000000000E+01 0.  1.
         11    1    6    6    0    0 -0.47155173211E+02  0.49428482867E+02  0.19835161450E+02  0.71135215673E+02  0.00000000000E+00 0. -1.
        -12    1    6    6    0    0 -0.47205360049E+02 -0.28274841622E+01  0.89287198777E+02  0.10103734235E+03  0.00000000000E+00 0.  1.
</event>
<event>
12    1  0.9028446E-003  0.1731392E+03  0.7818608E-02  0.1174689E+00
         21   -1    0    0  503  502  0.00000000000E+00  0.00000000000E+00  0.37237004394E+03  0.37237004394E+03  0.00000000000E+00 0. -1.
         21   -1    0    0  501  503 -0.00000000000E+00 -0.00000000000E+00 -0.94836385252E+02  0.94836385252E+02  0.00000000000E+00 0.  1.
          6    2    1    2  501    0  0.17324630949E+02  0.48023899893E+01  0.47413681218E+02  0.17922660780E+03  0.17190379283E+03 0.  0.
         24    2    3    3    0    0 -0.20189141430E+02  0.62879773496E+02  0.37622212540E+02  0.10923926285E+03  0.78462209541E+02 0.  0.
         -6    2    1    2    0  502 -0.17324630949E+02 -0.48023899893E+01  0.23011997747E+03  0.28797982139E+03  0.17220327440E+03 0.  0.
        -24    2    5    5    0    0  0.39935397874E+02  0.36597875524E+02  0.17061198357E+03  0.19548125804E+03  0.78550829460E+02 0.  0.
          5    1    3    3  501    0  0.37513772380E+02 -0.58077383506E+02  0.97914686779E+01  0.69987344941E+02  0.47000000000E+01 0. -1.
        -11    1    4    4    0    0 -0.10308338536E+02  0.78981038388E+02  0.17329517468E+02  0.81514283680E+02  0.00000000000E+00 0.  1.
         12    1    4    4    0    0 -0.98808028944E+01 -0.16101264892E+02  0.20292695072E+02  0.27724979175E+02  0.00000000000E+00 0. -1.
         -5    1    5    5    0  502 -0.57260028824E+02 -0.41400265513E+02  0.59507993893E+02  0.92498563354E+02  0.47000000000E+01 0.  1.
         11    1    6    6    0    0  0.51734138188E+01  0.14489452215E+02  0.14738887968E+03  0.14818971047E+03  0.00000000000E+00 0. -1.
        -12    1    6    6    0    0  0.34761984055E+02  0.22108423309E+02  0.23223103890E+02  0.47291547564E+02  0.00000000000E+00 0.  1.
</event>
<event>
12    1  0.9028446E-003  0.1822676E+03  0.7818608E-02  0.1165783E+00
         21   -1    0    0  501  502  0.00000000000E+00  0.00000000000E+00  0.12722233554E+03  0.12722233554E+03  0.00000000000E+00 0. -1.
         21   -1    0    0  502  503 -0.00000000000E+00 -0.00000000000E+00 -0.27354739892E+03  0.27354739892E+03  0.00000000000E+00 0.  1.
          6    2    1    2  501    0 -0.25476161462E+02 -0.54788869868E+02 -0.29008572612E+02  0.18456160526E+03  0.17196114034E+03 0.  0.
         24    2    3    3    0    0 -0.43475680796E+01 -0.10209491866E+03 -0.17394938813E+02  0.13125826389E+03  0.80522507277E+02 0.  0.
         -6    2    1    2    0  503  0.25476161462E+02  0.54788869868E+02 -0.11731649077E+03  0.21620812921E+03  0.17126570313E+03 0.  0.
        -24    2    5    5    0    0 -0.82795419847E+00 -0.15285098671E+02 -0.50861598574E+01  0.81226631430E+02  0.79608899514E+02 0.  0.
          5    1    3    3  501    0 -0.21128593382E+02  0.47306048795E+02 -0.11613633799E+02  0.53303341367E+02  0.47000000000E+01 0. -1.
        -13    1    4    4    0    0 -0.37951137435E+02 -0.64728673524E+02  0.70690812287E+01  0.75366185509E+02  0.00000000000E+00 0.  1.
         14    1    4    4    0    0  0.33603569355E+02 -0.37366245139E+02 -0.24464020042E+02  0.55892078381E+02  0.00000000000E+00 0. -1.
         -5    1    5    5    0  503  0.26304115660E+02  0.70073968539E+02 -0.11223033091E+03  0.13498149778E+03  0.47000000000E+01 0.  1.
         13    1    6    6    0    0  0.30284012698E+02 -0.33339053752E+02 -0.43309696042E+01  0.45247886447E+02  0.00000000000E+00 0. -1.
        -14    1    6    6    0    0 -0.31111966897E+02  0.18053955081E+02 -0.75519025318E+00  0.35978744983E+02  0.00000000000E+00 0.  1.
</event>
<event>
12    1  0.9028446E-003  0.1902488E+03  0.7818608E-02  0.1159168E+00
         21   -1    0    0  501  502  0.00000000000E+00  0.00000000000E+00  0.67495832144E+02  0.67495832144E+02  0.00000000000E+00 0. -1.
         21   -1    0    0  502  503 -0.00000000000E+00 -0.00000000000E+00 -0.52757015628E+03  0.52757015628E+03  0.00000000000E+00 0. -1.
          6    2    1    2  501    0  0.16897137046E+01  0.64526764092E+02 -0.20596575760E+03  0.27762971568E+03  0.17461330793E+03 0.  0.
         24    2    3    3    0    0 -0.55460894428E+02 -0.31723252363E+01 -0.10881036422E+03  0.14605988947E+03  0.80048869395E+02 0.  0.
         -6    2    1    2    0  503 -0.16897137046E+01 -0.64526764092E+02 -0.25410856654E+03  0.31743627275E+03  0.17896386577E+03 0.  0.
        -24    2    5    5    0    0 -0.62705467214E+01  0.51276501239E+01 -0.36064241261E+02  0.88442519044E+02  0.80348224157E+02 0.  0.
          5    1    3    3  501    0  0.57150608133E+02  0.67699089328E+02 -0.97155393385E+02  0.13156982621E+03  0.47000000000E+01 0. -1.
        -11    1    4    4    0    0 -0.51056002819E+01 -0.28428858346E+02 -0.70261233080E+01  0.29725974330E+02  0.00000000000E+00 0.  1.
         12    1    4    4    0    0 -0.50355294146E+02  0.25256533110E+02 -0.10178424091E+03  0.11633391514E+03  0.00000000000E+00 0. -1.
         -5    1    5    5    0  503  0.45808330167E+01 -0.69654414216E+02 -0.21804432528E+03  0.22899375371E+03  0.47000000000E+01 0.  1.
         11    1    6    6    0    0 -0.23467707753E+02 -0.27943044735E+02 -0.35868262776E+02  0.51167170440E+02  0.00000000000E+00 0. -1.
        -12    1    6    6    0    0  0.17197161031E+02  0.33070694859E+02 -0.19597848503E+00  0.37275348604E+02  0.00000000000E+00 0.  1.
</event>
<event>
12    1  0.9028446E-003  0.1754209E+03  0.7818608E-02  0.1172436E+00
         21   -1    0    0  503  502  0.00000000000E+00  0.00000000000E+00  0.30984209482E+02  0.30984209482E+02  0.00000000000E+00 0. -1.
         21   -1    0    0  501  503 -0.00000000000E+00 -0.00000000000E+00 -0.99038584772E+03  0.99038584772E+03  0.00000000000E+00 0. -1.
          6    2    1    2  501    0 -0.29204647796E+02  0.21037627789E+02 -0.47638808620E+03  0.50765943574E+03  0.17168867402E+03 0.  0.
         24    2    3    3    0    0 -0.54063491287E+02  0.49358109180E+02 -0.44526967729E+03  0.45856302916E+03  0.81583590053E+02 0.  0.
         -6    2    1    2    0  502  0.29204647796E+02 -0.21037627789E+02 -0.48301355204E+03  0.51371062147E+03  0.17117540102E+03 0.  0.
        -24    2    5    5    0    0  0.19051067532E+02 -0.71013202146E+01 -0.48845115128E+03  0.49502979315E+03  0.77824141520E+02 0.  0.
          5    1    3    3  501    0  0.24858843492E+02 -0.28320481391E+02 -0.31118408906E+02  0.49096406577E+02  0.47000000000E+01 0. -1.
        -11    1    4    4    0    0  0.14770382103E+02 -0.92675356274E+01 -0.10731719993E+03  0.10872457314E+03  0.00000000000E+00 0.  1.
         12    1    4    4    0    0 -0.68833873390E+02  0.58625644807E+02 -0.33795247737E+03  0.34983845602E+03  0.00000000000E+00 0. -1.
         -5    1    5    5    0  502  0.10153580264E+02 -0.13936307575E+02  0.54375992351E+01  0.18680828312E+02  0.47000000000E+01 0.  1.
         13    1    6    6    0    0  0.53702605527E+01  0.29233499192E+02 -0.34934479290E+03  0.35060693305E+03  0.00000000000E+00 0. -1.
        -14    1    6    6    0    0  0.13680806979E+02 -0.36334819407E+02 -0.13910635838E+03  0.14442286011E+03  0.00000000000E+00 0.  1.
</event>
<event>
12    1  0.9028446E-003  0.1975974E+03  0.7818608E-02  0.1151885E+00
         21   -1    0    0  501  502  0.00000000000E+00  0.00000000000E+00  0.19967208410E+03  0.19967208410E+03  0.00000000000E+00 0.  1.
         21   -1    0    0  502  503 -0.00000000000E+00 -0.00000000000E+00 -0.22991233075E+03  0.22991233075E+03  0.00000000000E+00 0.  1.
          6    2    1    2  501    0  0.88061417947E+02  0.36480652365E+02 -0.98722736819E+02  0.22045625446E+03  0.17253732940E+03 0.  0.
         24    2    3    3    0    0  0.97377094607E+02  0.80602153128E+01 -0.12358705341E+02  0.12893937619E+03  0.83218744945E+02 0.  0.
         -6    2    1    2    0  503 -0.88061417947E+02 -0.36480652365E+02  0.68482490170E+02  0.20912816040E+03  0.17308692812E+03 0.  0.
        -24    2    5    5    0    0 -0.72754090105E+01  0.35221888549E+02  0.15208224499E+02  0.88596542160E+02  0.79527002842E+02 0.  0.
          5    1    3    3  501    0 -0.93156766602E+01  0.28420437052E+02 -0.86364031478E+02  0.91516878263E+02  0.47000000000E+01 0. -1.
        -13    1    4    4    0    0  0.46095917718E+02  0.44746566850E+02 -0.14467728152E+02  0.65851378369E+02  0.00000000000E+00 0.  1.
         14    1    4    4    0    0  0.51281176888E+02 -0.36686351537E+02  0.21090228112E+01  0.63087997823E+02  0.00000000000E+00 0. -1.
         -5    1    5    5    0  503 -0.80786008936E+02 -0.71702540914E+02  0.53274265672E+02  0.12053161824E+03  0.47000000000E+01 0.  1.
         11    1    6    6    0    0  0.18519892554E+02 -0.18427866094E+02  0.12612185978E+02  0.29011030732E+02  0.00000000000E+00 0. -1.
        -12    1    6    6    0    0 -0.25795301565E+02  0.53649754643E+02  0.25960385201E+01  0.59585511428E+02  0.00000000000E+00 0.  1.
</event>
<event>
12    1  0.9028446E-003  0.2141777E+03  0.7818608E-02  0.1138337E+00
         21   -1    0    0  501  502  0.00000000000E+00  0.00000000000E+00  0.47704115028E+03  0.47704115028E+03  0.00000000000E+00 0.  1.
         21   -1    0    0  502  503 -0.00000000000E+00 -0.00000000000E+00 -0.11930336828E+03  0.11930336828E+03  0.00000000000E+00 0.  1.
          6    2    1    2  501    0  0.64241176167E+02  0.11015789506E+03  0.31037740125E+03  0.37699299855E+03  0.17183683887E+03 0.  0.
         24    2    3    3    0    0  0.78772276560E+02  0.57555812448E+02  0.29414487816E+03  0.31986404985E+03  0.79208951122E+02 0.  0.
         -6    2    1    2    0  503 -0.64241176167E+02 -0.11015789506E+03  0.47360380756E+02  0.21935152001E+03  0.17207670704E+03 0.  0.
        -24    2    5    5    0    0  0.16570171440E+02 -0.70511662495E+02  0.66781228918E+02  0.12714763180E+03  0.80376132070E+02 0.  0.
          5    1    3    3  501    0 -0.14531100394E+02  0.52602082613E+02  0.16232523086E+02  0.57128948700E+02  0.47000000000E+01 0. -1.
        -13    1    4    4    0    0  0.11799135412E+02  0.13309364262E+02  0.17679585224E+03  0.17768830052E+03  0.00000000000E+00 0.  1.
         14    1    4    4    0    0  0.66973141149E+02  0.44246448185E+02  0.11734902592E+03  0.14217574933E+03  0.00000000000E+00 0. -1.
         -5    1    5    5    0  503 -0.80811347606E+02 -0.39646232566E+02 -0.19420848162E+02  0.92203888215E+02  0.47000000000E+01 0.  1.
         11    1    6    6    0    0 -0.16990863582E+02 -0.14217983225E+01  0.43756440876E+02  0.46961016533E+02  0.00000000000E+00 0. -1.
        -12    1    6    6    0    0  0.33561035021E+02 -0.69089864172E+02  0.23024788042E+02  0.80186615264E+02  0.00000000000E+00 0.  1.
</event>
<event>
12    1  0.9028446E-003  0.1980497E+03  0.7818608E-02  0.1151882E+00
         21   -1    0    0  501  502  0.00000000000E+00  0.00000000000E+00  0.64810987840E+02  0.64810987840E+02  0.00000000000E+00 0.  1.
         21   -1    0    0  502  503 -0.00000000000E+00 -0.00000000000E+00 -0.12666401978E+04  0.12666401978E+04  0.00000000000E+00 0.  1.
          6    2    1    2  501    0 -0.31034772811E+02  0.90385101857E+02 -0.11897130130E+03  0.23103645278E+03  0.17346771521E+03 0.  0.
         24    2    3    3    0    0  0.34663840030E+02  0.30497110431E+02 -0.14258988279E+02  0.93596874261E+02  0.80158596384E+02 0.  0.
         -6    2    1    2    0  503  0.31034772811E+02 -0.90385101857E+02 -0.10828579087E+04  0.11004147329E+04  0.17087630081E+03 0.  0.
        -24    2    5    5    0    0 -0.37766334493E+02 -0.55687341350E+02 -0.40196738117E+03  0.41516183985E+03  0.79083511138E+02 0.  0.
          5    1    3    3  501    0 -0.65698612842E+02  0.59887991425E+02 -0.10471231302E+03  0.13743957852E+03  0.47000000000E+01 0. -1.
        -11    1    4    4    0    0  0.23878725851E+02 -0.25275894103E+02  0.96859054240E+00  0.34785090752E+02  0.00000000000E+00 0.  1.
         12    1    4    4    0    0  0.10785114179E+02  0.55773004535E+02 -0.15227578822E+02  0.58811783509E+02  0.00000000000E+00 0. -1.
         -5    1    5    5    0  503  0.68801107304E+02 -0.34697760506E+02 -0.68089052751E+03  0.68525289303E+03  0.47000000000E+01 0.  1.
         13    1    6    6    0    0 -0.22737529953E+02 -0.61424869809E+01 -0.29884945790E+03  0.29977612297E+03  0.00000000000E+00 0. -1.
        -14    1    6    6    0    0 -0.15028804540E+02 -0.49544854370E+02 -0.10311792327E+03  0.11538571688E+03  0.00000000000E+00 0.  1.
</event>
<event>
12    1  0.9028446E-003  0.2170051E+03  0.7818608E-02  0.1136150E+00
         21   -1    0    0  503  502  0.00000000000E+00  0.00000000000E+00  0.61380543519E+03  0.61380543519E+03  0.00000000000E+00 0.  1.
         21   -1    0    0  501  503 -0.00000000000E+00 -0.00000000000E+00 -0.76792405254E+02  0.76792405254E+02  0.00000000000E+00 0.  1.
          6    2    1    2  501    0  0.10114419936E+03  0.84499656910E+02  0.28090218158E+03  0.35491347158E+03  0.17229972609E+03 0.  0.
         24    2    3    3    0    0  0.12989310091E+03  0.98906606170E+02  0.21415100006E+03  0.28067150392E+03  0.79127162717E+02 0.  0.
         -6    2    1    2    0  502 -0.10114419936E+03 -0.84499656910E+02  0.25611084836E+03  0.33568436887E+03  0.17239747032E+03 0.  0.
        -24    2    5    5    0    0 -0.12393584582E+03 -0.87325888365E+02  0.26109645728E+03  0.31171787082E+03  0.77529132121E+02 0.  0.
          5    1    3    3  501    0 -0.28748901548E+02 -0.14406949261E+02  0.66751181518E+02  0.74241967654E+02  0.47000000000E+01 0. -1.
        -13    1    4    4    0    0  0.94800870199E+02  0.10500947479E+03  0.19282560528E+03  0.23915666171E+03  0.00000000000E+00 0.  1.
         14    1    4    4    0    0  0.35092230710E+02 -0.61028686230E+01  0.21325394775E+02  0.41514842212E+02  0.00000000000E+00 0. -1.
         -5    1    5    5    0  502  0.22791646458E+02  0.28262314557E+01 -0.49856089158E+01  0.23966498050E+02  0.47000000000E+01 0.  1.
         11    1    6    6    0    0 -0.29946318334E+02  0.23158238587E+01  0.10203532598E+03  0.10636424573E+03  0.00000000000E+00 0. -1.
        -12    1    6    6    0    0 -0.93989527485E+02 -0.89641712224E+02  0.15906113129E+03  0.20535362509E+03  0.00000000000E+00 0.  1.
</event>
<event>
12    1  0.9028446E-003  0.2217166E+03  0.7818608E-02  0.1135468E+00
         21   -1    0    0  503  502  0.00000000000E+00  0.00000000000E+00  0.12503243337E+03  0.12503243337E+03  0.00000000000E+00 0. -1.
         21   -1    0    0  501  503 -0.00000000000E+00 -0.00000000000E+00 -0.47253206620E+03  0.47253206620E+03  0.00000000000E+00 0. -1.
          6    2    1    2  501    0  0.13627854563E+03 -0.30813629788E+02 -0.31008626772E+03  0.37271340449E+03  0.15244824263E+03 0.  0.
         24    2    3    3    0    0  0.14142158700E+03 -0.46669850648E+02 -0.20633758892E+03  0.26752904745E+03  0.82573908698E+02 0.  0.
         -6    2    1    2    0  502 -0.13627854563E+03  0.30813629788E+02 -0.37413365115E+02  0.22485109508E+03  0.17215380707E+03 0.  0.
        -24    2    5    5    0    0 -0.15990582844E+03  0.14112664831E+02 -0.57329012715E+02  0.18941250393E+03  0.82592007308E+02 0.  0.
          5    1    3    3  501    0 -0.51430413659E+01  0.15856220860E+02 -0.10374867880E+03  0.10518435705E+03  0.47000000000E+01 0. -1.
        -11    1    4    4    0    0  0.12206439969E+02  0.19082308945E+02 -0.13857043728E+02  0.26554648411E+02  0.00000000000E+00 0.  1.
         12    1    4    4    0    0  0.12921514703E+03 -0.65752159593E+02 -0.19248054519E+03  0.24097439904E+03  0.00000000000E+00 0. -1.
         -5    1    5    5    0  502  0.23627282801E+02  0.16700964957E+02  0.19915647600E+02  0.35438591145E+02  0.47000000000E+01 0.  1.
         13    1    6    6    0    0 -0.79351371313E+02 -0.32897105447E+02 -0.15910328147E+02  0.87361308471E+02  0.00000000000E+00 0. -1.
        -14    1    6    6    0    0 -0.80554457123E+02  0.47009770278E+02 -0.41418684568E+02  0.10205119546E+03  0.00000000000E+00 0.  1.
</event>
<event>
12    1  0.9028446E-003  0.1755782E+03  0.7818608E-02  0.1172169E+00
         21   -1    0    0  501  502  0.00000000000E+00  0.00000000000E+00  0.63983692640E+03  0.63983692640E+03  0.00000000000E+00 0. -1.
         21   -1    0    0  502  503 -0.00000000000E+00 -0.00000000000E+00 -0.48196303937E+02  0.48196303937E+02  0.00000000000E+00 0. -1.
          6    2    1    2  501    0 -0.89274151989E+01  0.33416588050E+02  0.28676089200E+03  0.33624321925E+03  0.17213752123E+03 0.  0.
         24    2    3    3    0    0  0.15987866476E+02  0.75163720333E+01  0.28825231719E+03  0.29996778955E+03  0.81112074810E+02 0.  0.
         -6    2    1    2    0  503  0.89274151989E+01 -0.33416588050E+02  0.30487973046E+03  0.35179001108E+03  0.17207031920E+03 0.  0.
        -24    2    5    5    0    0  0.59767485464E+02 -0.93433535715E+01  0.11497830966E+03  0.15367672787E+03  0.82079683366E+02 0.  0.
          5    1    3    3  501    0 -0.24915281675E+02  0.25900216016E+02 -0.14914251963E+01  0.36275429698E+02  0.47000000000E+01 0. -1.
        -11    1    4    4    0    0 -0.58930900981E+01  0.39106998706E+02  0.19739643998E+03  0.20131924988E+03  0.00000000000E+00 0.  1.
         12    1    4    4    0    0  0.21880956574E+02 -0.31590626673E+02  0.90855877217E+02  0.98648539671E+02  0.00000000000E+00 0. -1.
         -5    1    5    5    0  503 -0.50840070265E+02 -0.24073234478E+02  0.18990142080E+03  0.19811328322E+03  0.47000000000E+01 0.  1.
         13    1    6    6    0    0  0.75054555934E+01  0.18035615005E+02  0.85537277285E+02  0.87739620911E+02  0.00000000000E+00 0. -1.
        -14    1    6    6    0    0  0.52262029871E+02 -0.27378968577E+02  0.29441032374E+02  0.65937106956E+02  0.00000000000E+00 0.  1.
</event>
<event>
12    1  0.9028446E-003  0.1950681E+03  0.7818608E-02  0.1154199E+00
         21   -1    0    0  503  502  0.00000000000E+00  0.00000000000E+00  0.88207968859E+02  0.88207968859E+02  0.00000000000E+00 0.  1.
         21   -1    0    0  501  503 -0.00000000000E+00 -0.00000000000E+00 -0.79864901771E+03  0.79864901771E+03  0.00000000000E+00 0.  1.
          6    2    1    2  501    0  0.82868053979E+02 -0.28318120443E+02 -0.65635702762E+03  0.68443012528E+03  0.17312139780E+03 0.  0.
         24    2    3    3    0    0  0.20025383908E+02 -0.42061622097E+02 -0.16441219453E+03  0.18827501464E+03  0.79031103828E+02 0.  0.
         -6    2    1    2    0  502 -0.82868053979E+02  0.28318120443E+02 -0.54084021231E+02  0.20242686128E+03  0.17430583037E+03 0.  0.
        -24    2    5    5    0    0 -0.35285228203E+02  0.79592675660E+02 -0.80673974399E+01  0.11856492125E+03  0.80078188670E+02 0.  0.
          5    1    3    3  501    0  0.62842670071E+02  0.13743501655E+02 -0.49194483308E+03  0.49615511064E+03  0.47000000000E+01 0. -1.
        -11    1    4    4    0    0 -0.15370863785E+02 -0.25152320202E+02 -0.13769098867E+03  0.14081090521E+03  0.00000000000E+00 0.  1.
         12    1    4    4    0    0  0.35396247693E+02 -0.16909301895E+02 -0.26721205867E+02  0.47464109434E+02  0.00000000000E+00 0. -1.
         -5    1    5    5    0  502 -0.47582825776E+02 -0.51274555217E+02 -0.46016623791E+02  0.83861940036E+02  0.47000000000E+01 0.  1.
         13    1    6    6    0    0  0.11081618841E+02 -0.11183615435E+02 -0.52404311600E+01  0.16593301331E+02  0.00000000000E+00 0. -1.
        -14    1    6    6    0    0 -0.46366847044E+02  0.90776291095E+02 -0.28269662799E+01  0.10197161991E+03  0.00000000000E+00 0.  1.
</event>
<event>
12    1  0.9028446E-003  0.2821212E+03  0.7818608E-02  0.1094557E+00
         21   -1    0    0  501  502  0.00000000000E+00  0.00000000000E+00  0.20443875225E+04  0.20443875225E+04  0.00000000000E+00 0.  1.
         21   -1    0    0  502  503 -0.00000000000E+00 -0.00000000000E+00 -0.58361641317E+02  0.58361641317E+02  0.00000000000E+00 0. -1.
          6    2    1    2  501    0 -0.19193023047E+03  0.11455864069E+03  0.15997947019E+04  0.16244533505E+04  0.17188572968E+03 0.  0.
         24    2    3    3    0    0 -0.14762272277E+03  0.48118637014E+02  0.13697497366E+04  0.13808959540E+04  0.80940862722E+02 0.  0.
         -6    2    1    2    0  503  0.19193023047E+03 -0.11455864069E+03  0.38623117925E+03  0.47829581332E+03  0.17213792637E+03 0.  0.
        -24    2    5    5    0    0  0.32115005485E+02 -0.66402033152E+02  0.12595511855E+03  0.16906178745E+03  0.85302945448E+02 0.  0.
          5    1    3    3  501    0 -0.44307507702E+02  0.66440003675E+02  0.23004496531E+03  0.24355739650E+03  0.47000000000E+01 0. -1.
        -13    1    4    4    0    0 -0.56515185406E+01  0.25153074160E+02  0.36452218284E+03  0.36543267312E+03  0.00000000000E+00 0.  1.
         14    1    4    4    0    0 -0.14197120423E+03  0.22965562854E+02  0.10052275538E+04  0.10154632808E+04  0.00000000000E+00 0. -1.
         -5    1    5    5    0  503  0.15981522499E+03 -0.48156607537E+02  0.26027606069E+03  0.30923402587E+03  0.47000000000E+01 0.  1.
         11    1    6    6    0    0  0.22293599216E+02  0.13222189604E+02  0.59444958070E+02  0.64850087925E+02  0.00000000000E+00 0. -1.
        -12    1    6    6    0    0  0.98214062700E+01 -0.79624222755E+02  0.66510160485E+02  0.10421169953E+03  0.00000000000E+00 0.  1.
</event>
<event>
12    1  0.9028446E-003  0.4078028E+03  0.7818608E-02  0.1041128E+00
         21   -1    0    0  501  502  0.00000000000E+00  0.00000000000E+00  0.21260476974E+04  0.21260476974E+04  0.00000000000E+00 0. -1.
         21   -1    0    0  502  503 -0.00000000000E+00 -0.00000000000E+00 -0.84514032105E+02  0.84514032105E+02  0.00000000000E+00 0. -1.
          6    2    1    2  501    0 -0.22247875083E+03 -0.29534853064E+03  0.13234960758E+04  0.13848989210E+04  0.17197560755E+03 0.  0.
         24    2    3    3    0    0 -0.11241613598E+03 -0.25539030995E+03  0.96773842125E+03  0.10103377947E+04  0.80020055706E+02 0.  0.
         -6    2    1    2    0  503  0.22247875083E+03  0.29534853064E+03  0.71803758945E+03  0.82566280846E+03  0.17150377341E+03 0.  0.
        -24    2    5    5    0    0  0.20412353484E+03  0.18974927395E+03  0.59457222188E+03  0.66209660182E+03  0.84761893937E+02 0.  0.
          5    1    3    3  501    0 -0.11006261485E+03 -0.39958220691E+02  0.35575765458E+03  0.37456112636E+03  0.47000000000E+01 0. -1.
        -11    1    4    4    0    0 -0.87281967902E+01 -0.81745290868E+02  0.19610054054E+03  0.21263559438E+03  0.00000000000E+00 0.  1.
         12    1    4    4    0    0 -0.10368793919E+03 -0.17364501908E+03  0.77163788071E+03  0.79770220028E+03  0.00000000000E+00 0. -1.
         -5    1    5    5    0  503  0.18355215990E+02  0.10559925669E+03  0.12346536757E+03  0.16356620665E+03  0.47000000000E+01 0.  1.
         13    1    6    6    0    0  0.28232579326E+02  0.77896333666E+02  0.17017484497E+03  0.18927333461E+03  0.00000000000E+00 0. -1.
        -14    1    6    6    0    0  0.17589095552E+03  0.11185294028E+03  0.42439737691E+03  0.47282326720E+03  0.00000000000E+00 0.  1.
</event>
<event>
12    1  0.9028446E-003  0.2253578E+03  0.7818608E-02  0.1130137E+00
         21   -1    0    0  503  502  0.00000000000E+00  0.00000000000E+00  0.16274864980E+03  0.16274864980E+03  0.00000000000E+00 0. -1.
         21   -1    0    0  501  503 -0.00000000000E+00 -0.00000000000E+00 -0.32690620976E+03  0.32690620976E+03  0.00000000000E+00 0. -1.
          6    2    1    2  501    0 -0.18451027928E+02  0.14261759319E+03 -0.13653764863E+03  0.26261084131E+03  0.17216766875E+03 0.  0.
         24    2    3    3    0    0  0.12821275678E+02  0.31225784217E+02 -0.61578639703E+01  0.88234609196E+02  0.81289558133E+02 0.  0.
         -6    2    1    2    0  502  0.18451027928E+02 -0.14261759319E+03 -0.27619911325E+02  0.22704401825E+03  0.17351054263E+03 0.  0.
        -24    2    5    5    0    0  0.14999035096E+02 -0.33054829423E+02  0.26685363439E+02  0.10462233584E+03  0.94425270621E+02 0.  0.
          5    1    3    3  501    0 -0.31272303606E+02  0.11139180897E+03 -0.13037978466E+03  0.17437623212E+03  0.47000000000E+01 0. -1.
        -11    1    4    4    0    0  0.42041101851E+02  0.27218229432E+02 -0.22061588170E+02  0.54726592538E+02  0.00000000000E+00 0.  1.
         12    1    4    4    0    0 -0.29219826173E+02  0.40075547856E+01  0.15903724199E+02  0.33508016658E+02  0.00000000000E+00 0. -1.
         -5    1    5    5    0  502  0.34519928317E+01 -0.10956276377E+03 -0.54305274764E+02  0.12242168242E+03  0.47000000000E+01 0.  1.
         13    1    6    6    0    0 -0.26980865244E+02 -0.59905955006E+01  0.43828057790E+02  0.51814601932E+02  0.00000000000E+00 0. -1.
        -14    1    6    6    0    0  0.41979900341E+02 -0.27064233922E+02 -0.17142694350E+02  0.52807733903E+02  0.00000000000E+00 0.  1.
</event>
<event>
12    1  0.9028446E-003  0.1886692E+03  0.7818608E-02  0.1159730E+00
         21   -1    0    0  501  502  0.00000000000E+00  0.00000000000E+00  0.12817457614E+04  0.12817457614E+04  0.00000000000E+00 0.  1.
         21   -1    0    0  502  503 -0.00000000000E+00 -0.00000000000E+00 -0.28563313162E+02  0.28563313162E+02  0.00000000000E+00 0.  1.
          6    2    1    2  501    0 -0.69591928031E+02  0.27892097951E+02  0.73886321533E+03  0.76257124530E+03  0.17313303445E+03 0.  0.
         24    2    3    3    0    0 -0.13899429203E+02  0.66841982490E+02  0.24327328113E+03  0.26232108707E+03  0.70494103682E+02 0.  0.
         -6    2    1    2    0  503  0.69591928031E+02 -0.27892097951E+02  0.51431923287E+03  0.54773782922E+03  0.17283359247E+03 0.  0.
        -24    2    5    5    0    0  0.10640564444E+03  0.22217888031E+01  0.43806444214E+03  0.45774350162E+03  0.79382367644E+02 0.  0.
          5    1    3    3  501    0 -0.55692498827E+02 -0.38949884539E+02  0.49558993420E+03  0.50025015824E+03  0.47000000000E+01 0. -1.
        -13    1    4    4    0    0 -0.36633711000E+02  0.64746448742E+02  0.16976807572E+03  0.18535191108E+03  0.00000000000E+00 0.  1.
         14    1    4    4    0    0  0.22734281797E+02  0.20955337479E+01  0.73505205403E+02  0.76969175986E+02  0.00000000000E+00 0. -1.
         -5    1    5    5    0  503 -0.36813716411E+02 -0.30113886754E+02  0.76254790731E+02  0.89994327604E+02  0.47000000000E+01 0.  1.
         11    1    6    6    0    0  0.78600217207E+02 -0.30023040349E+02  0.21956717273E+03  0.23513638689E+03  0.00000000000E+00 0. -1.
        -12    1    6    6    0    0  0.27805427235E+02  0.32244829152E+02  0.21849726941E+03  0.22260711473E+03  0.00000000000E+00 0.  1.
</event>
<event>
12    1  0.9028446E-003  0.1761487E+03  0.7818608E-02  0.1172149E+00
         21   -1    0    0  503  502  0.00000000000E+00  0.00000000000E+00  0.12385028046E+04  0.12385028046E+04  0.00000000000E+00 0. -1.
         21   -1    0    0  501  503 -0.00000000000E+00 -0.00000000000E+00 -0.25519878967E+02  0.25519878967E+02  0.00000000000E+00 0. -1.
          6    2    1    2  501    0  0.11906006063E+02  0.28954491846E+02  0.71366154452E+03  0.73454160530E+03  0.17105102807E+03 0.  0.
         24    2    3    3    0    0 -0.17204645439E+02 -0.37731987628E+02  0.51810647356E+03  0.52583513114E+03  0.79677879495E+02 0.  0.
         -6    2    1    2    0  502 -0.11906006063E+02 -0.28954491846E+02  0.49932138109E+03  0.52948107826E+03  0.17334432507E+03 0.  0.
        -24    2    5    5    0    0  0.15027815946E+02 -0.54843604119E+02  0.15712009404E+03  0.18521448423E+03  0.79900094190E+02 0.  0.
          5    1    3    3  501    0  0.29110651502E+02  0.66686479474E+02  0.19555507096E+03  0.20870647415E+03  0.47000000000E+01 0. -1.
        -11    1    4    4    0    0 -0.37850711146E+02 -0.20264739862E+02  0.45699247727E+03  0.45900485869E+03  0.00000000000E+00 0.  1.
         12    1    4    4    0    0  0.20646065707E+02 -0.17467247766E+02  0.61113996289E+02  0.66830272453E+02  0.00000000000E+00 0. -1.
         -5    1    5    5    0  502 -0.26933822009E+02  0.25889112273E+02  0.34220128705E+03  0.34426659403E+03  0.47000000000E+01 0.  1.
         13    1    6    6    0    0  0.14559315047E+02 -0.60964396660E+02  0.16425178783E+03  0.17580466751E+03  0.00000000000E+00 0. -1.
        -14    1    6    6    0    0  0.46850089947E+00  0.61207925410E+01 -0.71316937842E+01  0.94098167174E+01  0.00000000000E+00 0.  1.
</event>
<event>
12    1  0.9028446E-003  0.1912723E+03  0.7818608E-02  0.1158041E+00
         21   -1    0    0  501  502  0.00000000000E+00  0.00000000000E+00  0.47547155842E+02  0.47547155842E+02  0.00000000000E+00 0.  1.
         21   -1    0    0  502  503 -0.00000000000E+00 -0.00000000000E+00 -0.91042758273E+03  0.91042758273E+03  0.00000000000E+00 0.  1.
          6    2    1    2  501    0 -0.79942635075E+02  0.21656777736E+02 -0.23154252730E+03  0.29829856532E+03  0.16884978886E+03 0.  0.
         24    2    3    3    0    0 -0.98678969986E+02  0.52335250971E+02 -0.22733604026E+03  0.26180194220E+03  0.66197161018E+02 0.  0.
         -6    2    1    2    0  503  0.79942635075E+02 -0.21656777736E+02 -0.63133789959E+03  0.65967617326E+03  0.17241017712E+03 0.  0.
        -24    2    5    5    0    0  0.65895003367E+02 -0.55258754897E+02 -0.60017064407E+03  0.61151066026E+03  0.79654278855E+02 0.  0.
          5    1    3    3  501    0  0.18736334911E+02 -0.30678473235E+02 -0.42064870373E+01  0.36496623119E+02  0.47000000000E+01 0. -1.
        -11    1    4    4    0    0 -0.31765557957E+02  0.52148877926E+02 -0.86534180191E+02  0.10590901984E+03  0.00000000000E+00 0.  1.
         12    1    4    4    0    0 -0.66913412029E+02  0.18637304501E+00 -0.14080186007E+03  0.15589292236E+03  0.00000000000E+00 0. -1.
         -5    1    5    5    0  503  0.14047631708E+02  0.33601977161E+02 -0.31167255522E+02  0.48165512999E+02  0.47000000000E+01 0.  1.
         11    1    6    6    0    0  0.37186282178E+01  0.46069233016E+01 -0.27548186805E+03  0.27554548003E+03  0.00000000000E+00 0. -1.
        -12    1    6    6    0    0  0.62176375149E+02 -0.59865678199E+02 -0.32468877602E+03  0.33596518023E+03  0.00000000000E+00 0.  1.
</event>
<event>
12    1  0.9028446E-003  0.2930871E+03  0.7818608E-02  0.1088779E+00
         21   -1    0    0  501  502  0.00000000000E+00  0.00000000000E+00  0.40194414821E+03  0.40194414821E+03  0.00000000000E+00 0.  1.
         21   -1    0    0  502  503 -0.00000000000E+00 -0.00000000000E+00 -0.21649275659E+03  0.21649275659E+03  0.00000000000E+00 0.  1.
          6    2    1    2  501    0  0.35401035867E+02  0.23499026727E+03  0.12890799855E+03  0.32018321989E+03  0.17154114130E+03 0.  0.
         24    2    3    3    0    0 -0.37253052815E+02  0.16273629466E+03  0.11227004058E+03  0.21626900140E+03  0.79352551373E+02 0.  0.
         -6    2    1    2    0  503 -0.35401035867E+02 -0.23499026727E+03  0.56543393071E+02  0.29825368491E+03  0.17112698856E+03 0.  0.
        -24    2    5    5    0    0 -0.42406857180E+02 -0.11824112866E+03 -0.31487298358E+02  0.15179230594E+03  0.79184267008E+02 0.  0.
          5    1    3    3  501    0  0.72654088682E+02  0.72253972611E+02  0.16637957964E+02  0.10391421850E+03  0.47000000000E+01 0. -1.
        -13    1    4    4    0    0 -0.35274571482E+02  0.73821056697E+02  0.12756401239E+02  0.82804405545E+02  0.00000000000E+00 0.  1.
         14    1    4    4    0    0 -0.19784813332E+01  0.88915237959E+02  0.99513639346E+02  0.13346459585E+03  0.00000000000E+00 0. -1.
         -5    1    5    5    0  503  0.70058213132E+01 -0.11674913861E+03  0.88030691429E+02  0.14646137897E+03  0.47000000000E+01 0.  1.
         13    1    6    6    0    0  0.30160231239E+00  0.11195927796E+02 -0.72807704074E+01  0.13358494709E+02  0.00000000000E+00 0. -1.
        -14    1    6    6    0    0 -0.42708459493E+02 -0.12943705646E+03 -0.24206527950E+02  0.13843381123E+03  0.00000000000E+00 0.  1.
</event>
<event>
12    1  0.9028446E-003  0.2036085E+03  0.7818608E-02  0.1146807E+00
         21   -1    0    0  501  502  0.00000000000E+00  0.00000000000E+00  0.13179672926E+03  0.13179672926E+03  0.00000000000E+00 0. -1.
         21   -1    0    0  502  503 -0.00000000000E+00 -0.00000000000E+00 -0.33361448081E+03  0.33361448081E+03  0.00000000000E+00 0. -1.
          6    2    1    2  501    0  0.38707245623E+02 -0.10108381668E+03 -0.44524488191E+02  0.20841988552E+03  0.17245355831E+03 0.  0.
         24    2    3    3    0    0  0.55100089760E+02 -0.11047571606E+03 -0.79503766829E+02  0.16838773536E+03  0.82417696818E+02 0.  0.
         -6    2    1    2    0  503 -0.38707245623E+02  0.10108381668E+03 -0.15729326336E+03  0.25699132454E+03  0.17200924782E+03 0.  0.
        -24    2    5    5    0    0  0.23717941436E+01  0.97861142562E+02 -0.39430530167E+02  0.13204498801E+03  0.79364245845E+02 0.  0.
          5    1    3    3  501    0 -0.16392844137E+02  0.93918993807E+01  0.34979278638E+02  0.40032150166E+02  0.47000000000E+01 0. -1.
        -13    1    4    4    0    0 -0.17694694459E+02 -0.17545332135E+02 -0.33367077115E+02  0.41644960402E+02  0.00000000000E+00 0.  1.
         14    1    4    4    0    0  0.72794784219E+02 -0.92930383923E+02 -0.46136689714E+02  0.12674277496E+03  0.00000000000E+00 0. -1.
         -5    1    5    5    0  503 -0.41079039767E+02  0.32226741142E+01 -0.11786273320E+03  0.12494633653E+03  0.47000000000E+01 0.  1.
         13    1    6    6    0    0 -0.32867953673E+02  0.71852826551E+02 -0.39298211089E+02  0.88246702243E+02  0.00000000000E+00 0. -1.
        -14    1    6    6    0    0  0.35239747816E+02  0.26008316012E+02 -0.13231907799E+00  0.43798285768E+02  0.00000000000E+00 0.  1.
</event>
<event>
12    1  0.9028446E-003  0.2196952E+03  0.7818608E-02  0.1134543E+00
         21   -1    0    0  501  502  0.00000000000E+00  0.00000000000E+00  0.11401976206E+03  0.11401976206E+03  0.00000000000E+00 0. -1.
         21   -1    0    0  502  503 -0.00000000000E+00 -0.00000000000E+00 -0.47574529764E+03  0.47574529764E+03  0.00000000000E+00 0. -1.
          6    2    1    2  501    0  0.54492622104E+02 -0.12143630855E+03 -0.78077202745E+02  0.23098610352E+03  0.17187875824E+03 0.  0.
         24    2    3    3    0    0  0.26524599642E+02 -0.12335413902E+03 -0.18962470641E+01  0.14967487205E+03  0.80493313835E+02 0.  0.
         -6    2    1    2    0  503 -0.54492622104E+02  0.12143630855E+03 -0.28364833283E+03  0.35877895617E+03  0.17478483852E+03 0.  0.
        -24    2    5    5    0    0 -0.46751398256E+02  0.13416634804E+03 -0.29994109732E+03  0.33620630398E+03  0.53700230842E+02 0.  0.
          5    1    3    3  501    0  0.27968022463E+02  0.19178304744E+01 -0.76180955681E+02  0.81311231467E+02  0.47000000000E+01 0. -1.
        -13    1    4    4    0    0 -0.19458130236E+02 -0.80258303300E+02 -0.18229812664E+02  0.84571509096E+02  0.00000000000E+00 0.  1.
         14    1    4    4    0    0  0.45982729877E+02 -0.43095835720E+02  0.16333565600E+02  0.65103362959E+02  0.00000000000E+00 0. -1.
         -5    1    5    5    0  503 -0.77412238486E+01 -0.12730039495E+02  0.16292764486E+02  0.22572652188E+02  0.47000000000E+01 0.  1.
         13    1    6    6    0    0  0.60590735825E+00  0.79737725167E+02 -0.15812012714E+03  0.17708880977E+03  0.00000000000E+00 0. -1.
        -14    1    6    6    0    0 -0.47357305614E+02  0.54428622874E+02 -0.14182097018E+03  0.15911749422E+03  0.00000000000E+00 0.  1.
</event>
<event>
12    1  0.9028446E-003  0.1868906E+03  0.7818608E-02  0.1161727E+00
         21   -1    0    0  501  502  0.00000000000E+00  0.00000000000E+00  0.36611265051E+03  0.36611265051E+03  0.00000000000E+00 0. -1.
         21   -1    0    0  502  503 -0.00000000000E+00 -0.00000000000E+00 -0.96225589750E+02  0.96225589750E+02  0.00000000000E+00 0. -1.
          6    2    1    2  501    0  0.64542401431E+02  0.30389837302E+02  0.16563734269E+03  0.24833799192E+03  0.17072423713E+03 0.  0.
         24    2    3    3    0    0  0.87857619964E+02 -0.27499953844E+02  0.10123376908E+03  0.15853410766E+03  0.80059842890E+02 0.  0.
         -6    2    1    2    0  503 -0.64542401431E+02 -0.30389837302E+02  0.10424971807E+03  0.21400024834E+03  0.17273922188E+03 0.  0.
        -24    2    5    5    0    0 -0.10076008539E+03 -0.27604499085E+02  0.55071859520E+02  0.15268116068E+03  0.96767886912E+02 0.  0.
          5    1    3    3  501    0 -0.23315218533E+02  0.57889791146E+02  0.64403573608E+02  0.89803884257E+02  0.47000000000E+01 0. -1.
        -11    1    4    4    0    0  0.81180147379E+01 -0.39214741005E+02  0.22843749665E+02  0.46103524531E+02  0.00000000000E+00 0.  1.
         12    1    4    4    0    0  0.79739605226E+02  0.11714787162E+02  0.78390019415E+02  0.11243058313E+03  0.00000000000E+00 0. -1.
         -5    1    5    5    0  503  0.36217683955E+02 -0.27853382168E+01  0.49177858547E+02  0.61319087659E+02  0.47000000000E+01 0.  1.
         11    1    6    6    0    0 -0.70241878808E+01 -0.11842336387E+01 -0.25379778488E+02  0.26360477628E+02  0.00000000000E+00 0. -1.
        -12    1    6    6    0    0 -0.93735897506E+02 -0.26420265447E+02  0.80451638008E+02  0.12632068305E+03  0.00000000000E+00 0.  1.
</event>
<event>
12    1  0.9028446E-003  0.2278475E+03  0.7818608E-02  0.1128262E+00
         21   -1    0    0  501  502  0.00000000000E+00  0.00000000000E+00  0.13064186560E+03  0.13064186560E+03  0.00000000000E+00 0. -1.
         21   -1    0    0  502  503 -0.00000000000E+00 -0.00000000000E+00 -0.49792708264E+03  0.49792708264E+03  0.00000000000E+00 0.  1.
          6    2    1    2  501    0 -0.14650522053E+03  0.28746788121E+02 -0.41562400879E+02  0.23106444046E+03  0.17138607006E+03 0.  0.
         24    2    3    3    0    0 -0.11754114963E+03 -0.39508596370E+02 -0.49548809477E+02  0.15634103290E+03  0.81305491847E+02 0.  0.
         -6    2    1    2    0  503  0.14650522053E+03 -0.28746788121E+02 -0.32572281616E+03  0.39750450779E+03  0.17211717890E+03 0.  0.
        -24    2    5    5    0    0  0.61007186554E+01 -0.28902276097E+02 -0.12004572486E+03  0.14842900878E+03  0.82143984905E+02 0.  0.
          5    1    3    3  501    0 -0.28964070900E+02  0.68255384491E+02  0.79864085974E+01  0.74723407560E+02  0.47000000000E+01 0. -1.
        -13    1    4    4    0    0 -0.71693592010E+02 -0.23855562170E+01  0.10108037646E+02  0.72441938397E+02  0.00000000000E+00 0.  1.
         14    1    4    4    0    0 -0.45847557620E+02 -0.37123040153E+02 -0.59656847122E+02  0.83899094503E+02  0.00000000000E+00 0. -1.
         -5    1    5    5    0  503  0.14040450187E+03  0.15548797594E+00 -0.20567709130E+03  0.24907549901E+03  0.47000000000E+01 0.  1.
         11    1    6    6    0    0  0.22860532059E+02  0.58761388777E+01 -0.13830435440E+01  0.23644148189E+02  0.00000000000E+00 0. -1.
        -12    1    6    6    0    0 -0.16759813403E+02 -0.34778414975E+02 -0.11866268132E+03  0.12478486059E+03  0.00000000000E+00 0.  1.
</event>
<event>
12    1  0.9028446E-003  0.1740290E+03  0.7818608E-02  0.1175524E+00
         21   -1    0    0  503  502  0.00000000000E+00  0.00000000000E+00  0.30490527755E+03  0.30490527755E+03  0.00000000000E+00 0.  1.
         21   -1    0    0  501  503 -0.00000000000E+00 -0.00000000000E+00 -0.10554963172E+03  0.10554963172E+03  0.00000000000E+00 0.  1.
          6    2    1    2  501    0 -0.20910028812E+02 -0.53499452652E+01  0.34088456125E+02  0.17045625934E+03  0.16561238568E+03 0.  0.
         24    2    3    3    0    0 -0.30486379956E+02 -0.27114930123E+02 -0.37188892797E+02  0.95170327482E+02  0.77522504392E+02 0.  0.
         -6    2    1    2    0  502  0.20910028812E+02  0.53499452652E+01  0.16526718971E+03  0.23999864992E+03  0.17268542715E+03 0.  0.
        -24    2    5    5    0    0 -0.24821261904E+02  0.35672079351E+02  0.33090468789E+02  0.96808013639E+02  0.79926341667E+02 0.  0.
          5    1    3    3  501    0  0.95763511445E+01  0.21764984858E+02  0.71277348922E+02  0.75285931863E+02  0.47000000000E+01 0. -1.
        -11    1    4    4    0    0 -0.23298994954E+02  0.24700902176E+02 -0.66624147522E+01  0.34602969591E+02  0.00000000000E+00 0.  1.
         12    1    4    4    0    0 -0.71873850019E+01 -0.51815832299E+02 -0.30526478044E+02  0.60567357890E+02  0.00000000000E+00 0. -1.
         -5    1    5    5    0  502  0.45731290716E+02 -0.30322134086E+02  0.13217672092E+03  0.14319063628E+03  0.47000000000E+01 0.  1.
         11    1    6    6    0    0  0.27663789226E+02  0.18522896895E+02  0.17965540499E+01  0.33340824078E+02  0.00000000000E+00 0. -1.
        -12    1    6    6    0    0 -0.52485051131E+02  0.17149182456E+02  0.31293914739E+02  0.63467189561E+02  0.00000000000E+00 0.  1.
</event>
<event>
12    1  0.9028446E-003  0.2539386E+03  0.7818608E-02  0.1110951E+00
         21   -1    0    0  501  502  0.00000000000E+00  0.00000000000E+00  0.31512579377E+03  0.31512579377E+03  0.00000000000E+00 0. -1.
         21   -1    0    0  502  503 -0.00000000000E+00 -0.00000000000E+00 -0.23422569245E+03  0.23422569245E+03  0.00000000000E+00 0. -1.
          6    2    1    2  501    0 -0.14216043473E+03  0.12022618256E+03 -0.58175771257E+02  0.25982274924E+03  0.17163774784E+03 0.  0.
         24    2    3    3    0    0 -0.15512139025E+03  0.66263998880E+02 -0.11978407287E+02  0.18746122580E+03  0.80899108018E+02 0.  0.
         -6    2    1    2    0  503  0.14216043473E+03 -0.12022618256E+03  0.13907587258E+03  0.28952873698E+03  0.17268719417E+03 0.  0.
        -24    2    5    5    0    0  0.10880601293E+03 -0.76451365426E+02  0.17972828620E+02  0.15642430683E+03  0.80386450816E+02 0.  0.
          5    1    3    3  501    0  0.12960955522E+02  0.53962183684E+02 -0.46197363970E+02  0.72361523434E+02  0.47000000000E+01 0. -1.
        -13    1    4    4    0    0 -0.50697323999E+01  0.27478395042E+02 -0.16428808470E+02  0.32414042149E+02  0.00000000000E+00 0.  1.
         14    1    4    4    0    0 -0.15005165785E+03  0.38785603838E+02  0.44504011828E+01  0.15504718365E+03  0.00000000000E+00 0. -1.
         -5    1    5    5    0  503  0.33354421795E+02 -0.43774817138E+02  0.12110304396E+03  0.13310443015E+03  0.47000000000E+01 0.  1.
         11    1    6    6    0    0  0.10053992449E+03 -0.58021873671E+02  0.43419494823E+02  0.12393573645E+03  0.00000000000E+00 0. -1.
        -12    1    6    6    0    0  0.82660884446E+01 -0.18429491756E+02 -0.25446666202E+02  0.32488570380E+02  0.00000000000E+00 0.  1.
</event>
<event>
12    1  0.9028446E-003  0.1791459E+03  0.7818608E-02  0.1168918E+00
         21   -1    0    0  503  502  0.00000000000E+00  0.00000000000E+00  0.32054891473E+03  0.32054891473E+03  0.00000000000E+00 0.  1.
         21   -1    0    0  501  503 -0.00000000000E+00 -0.00000000000E+00 -0.99469323719E+02  0.99469323719E+02  0.00000000000E+00 0.  1.
          6    2    1    2  501    0 -0.46301608024E+02 -0.10088464544E+02  0.11185160295E+03  0.21119670099E+03  0.17276472269E+03 0.  0.
         24    2    3    3    0    0  0.33147383490E+02 -0.26464832641E+02  0.88454399960E+02  0.12663993431E+03  0.80089672809E+02 0.  0.
         -6    2    1    2    0  502  0.46301608024E+02  0.10088464544E+02  0.10922798806E+03  0.20882153745E+03  0.17155193122E+03 0.  0.
        -24    2    5    5    0    0  0.75459024543E+02  0.23989759133E+00  0.14294411196E+02  0.10891346358E+03  0.77224933935E+02 0.  0.
          5    1    3    3  501    0 -0.79448991514E+02  0.16376368097E+02  0.23397202987E+02  0.84556766685E+02  0.47000000000E+01 0. -1.
        -11    1    4    4    0    0 -0.25852951642E+02 -0.16614136886E+02  0.32566982495E+02  0.44777371538E+02  0.00000000000E+00 0.  1.
         12    1    4    4    0    0  0.59000335132E+02 -0.98506957552E+01  0.55887417465E+02  0.81862562771E+02  0.00000000000E+00 0. -1.
         -5    1    5    5    0  502 -0.29157416519E+02  0.98485669525E+01  0.94933576866E+02  0.99908073876E+02  0.47000000000E+01 0.  1.
         11    1    6    6    0    0  0.40683539998E+02  0.38677317806E+02  0.78211069444E+01  0.56676759375E+02  0.00000000000E+00 0. -1.
        -12    1    6    6    0    0  0.34775484545E+02 -0.38437420214E+02  0.64733042520E+01  0.52236704203E+02  0.00000000000E+00 0.  1.
</event>
<event>
12    1  0.9028446E-003  0.1987932E+03  0.7818608E-02  0.1151156E+00
         21   -1    0    0  503  502  0.00000000000E+00  0.00000000000E+00  0.38512371349E+03  0.38512371349E+03  0.00000000000E+00 0. -1.
         21   -1    0    0  501  503 -0.00000000000E+00 -0.00000000000E+00 -0.11499820073E+03  0.11499820073E+03  0.00000000000E+00 0. -1.
          6    2    1    2  501    0  0.62450995701E+02  0.77380940707E+02  0.50461605865E+02  0.20509781313E+03  0.17213599983E+03 0.  0.
         24    2    3    3    0    0  0.30076889021E+02  0.76304261680E+02 -0.30386969958E+02  0.11787497075E+03  0.79020131498E+02 0.  0.
         -6    2    1    2    0  502 -0.62450995701E+02 -0.77380940707E+02  0.21966390689E+03  0.29502410108E+03  0.16999720991E+03 0.  0.
        -24    2    5    5    0    0  0.27128065973E+01 -0.23289289348E+02  0.18649651327E+03  0.20395053808E+03  0.79152524948E+02 0.  0.
          5    1    3    3  501    0  0.32374106680E+02  0.10766790266E+01  0.80848575824E+02  0.87222842385E+02  0.47000000000E+01 0. -1.
        -13    1    4    4    0    0 -0.22438051305E+02  0.16527775484E+02  0.87409610868E+01  0.29206812725E+02  0.00000000000E+00 0.  1.
         14    1    4    4    0    0  0.52514940326E+02  0.59776486196E+02 -0.39127931045E+02  0.88668158023E+02  0.00000000000E+00 0. -1.
         -5    1    5    5    0  502 -0.65163802298E+02 -0.54091651358E+02  0.33167393628E+02  0.91073562995E+02  0.47000000000E+01 0.  1.
         13    1    6    6    0    0 -0.28083778252E+02 -0.29152318024E+02  0.15217352495E+03  0.15746535474E+03  0.00000000000E+00 0. -1.
        -14    1    6    6    0    0  0.30796584849E+02  0.58630286759E+01  0.34322988317E+02  0.46485183345E+02  0.00000000000E+00 0.  1.
</event>
<event>
12    1  0.9028446E-003  0.5315616E+03  0.7818608E-02  0.1005868E+00
         21   -1    0    0  501  502  0.00000000000E+00  0.00000000000E+00  0.56771285121E+03  0.56771285121E+03  0.00000000000E+00 0.  1.
         21   -1    0    0  502  503 -0.00000000000E+00 -0.00000000000E+00 -0.74674171979E+03  0.74674171979E+03  0.00000000000E+00 0. -1.
          6    2    1    2  501    0  0.48213624530E+03 -0.14253196179E+03  0.29017706184E+03  0.60560755311E+03  0.17258928704E+03 0.  0.
         24    2    3    3    0    0  0.40757066960E+03 -0.15998321690E+03  0.20261805777E+03  0.48918916720E+03  0.80891801564E+02 0.  0.
         -6    2    1    2    0  503 -0.48213624530E+03  0.14253196179E+03 -0.46920593042E+03  0.70884701789E+03  0.17186963217E+03 0.  0.
        -24    2    5    5    0    0 -0.20915766293E+03  0.12407901292E+03 -0.25593959432E+03  0.36191411678E+03  0.79587829321E+02 0.  0.
          5    1    3    3  501    0  0.74565575704E+02  0.17451255115E+02  0.87559004068E+02  0.11641838591E+03  0.47000000000E+01 0. -1.
        -13    1    4    4    0    0  0.27825937530E+03 -0.13408837722E+03  0.17298517224E+03  0.35402237594E+03  0.00000000000E+00 0.  1.
         14    1    4    4    0    0  0.12931129430E+03 -0.25894839688E+02  0.29632885529E+02  0.13516679126E+03  0.00000000000E+00 0. -1.
         -5    1    5    5    0  503 -0.27297858238E+03  0.18452948870E+02 -0.21326633610E+03  0.34693290111E+03  0.47000000000E+01 0.  1.
         13    1    6    6    0    0 -0.13144622583E+03  0.77564484649E+02 -0.21206609741E+03  0.26127837498E+03  0.00000000000E+00 0. -1.
        -14    1    6    6    0    0 -0.77711437098E+02  0.46514528270E+02 -0.43873496914E+02  0.10063574180E+03  0.00000000000E+00 0.  1.
</event>
<event>
12    1  0.9028446E-003  0.2515046E+03  0.7818608E-02  0.1112422E+00
         21   -1    0    0  503  502  0.00000000000E+00  0.00000000000E+00  0.43674288591E+03  0.43674288591E+03  0.00000000000E+00 0. -1.
         21   -1    0    0  501  503 -0.00000000000E+00 -0.00000000000E+00 -0.15809120652E+03  0.15809120652E+03  0.00000000000E+00 0. -1.
          6    2    1    2  501    0 -0.16796207564E+03  0.74343786764E+02  0.52533236202E+02  0.25693247314E+03  0.17180307727E+03 0.  0.
         24    2    3    3    0    0 -0.18292984233E+03  0.84517448396E+02  0.18536889399E+02  0.21813325888E+03  0.81436945338E+02 0.  0.
         -6    2    1    2    0  502  0.16796207564E+03 -0.74343786764E+02  0.22611844320E+03  0.33790161930E+03  0.17120074908E+03 0.  0.
        -24    2    5    5    0    0  0.53285593040E+02 -0.74329552335E+02  0.17277355253E+03  0.21133755163E+03  0.80303321838E+02 0.  0.
          5    1    3    3  501    0  0.14967766685E+02 -0.10173661632E+02  0.33996346803E+02  0.38799214250E+02  0.47000000000E+01 0. -1.
        -11    1    4    4    0    0 -0.44355614482E+02  0.57213117744E+02  0.25421715570E+02  0.76726950940E+02  0.00000000000E+00 0.  1.
         12    1    4    4    0    0 -0.13857422784E+03  0.27304330652E+02 -0.68848261708E+01  0.14140630794E+03  0.00000000000E+00 0. -1.
         -5    1    5    5    0  502  0.11467648260E+03 -0.14234429593E-01  0.53344890666E+02  0.12656406767E+03  0.47000000000E+01 0.  1.
         13    1    6    6    0    0  0.57701750138E+02 -0.82520446031E+02  0.11514432636E+03  0.15296186412E+03  0.00000000000E+00 0. -1.
        -14    1    6    6    0    0 -0.44161570988E+01  0.81908936965E+01  0.57629226168E+02  0.58375687506E+02  0.00000000000E+00 0.  1.
</event>
<event>
12    1  0.9028446E-003  0.1778866E+03  0.7818608E-02  0.1170712E+00
         21   -1    0    0  501  502  0.00000000000E+00  0.00000000000E+00  0.32101638078E+03  0.32101638078E+03  0.00000000000E+00 0.  1.
         21   -1    0    0  502  503 -0.00000000000E+00 -0.00000000000E+00 -0.12180229415E+03  0.12180229415E+03  0.00000000000E+00 0.  1.
          6    2    1    2  501    0  0.12732235106E+02 -0.26192072443E+02  0.19936965748E+03  0.26493196022E+03  0.17202484924E+03 0.  0.
         24    2    3    3    0    0  0.57956838288E+02  0.28899679531E+02  0.12448117808E+03  0.16143925413E+03  0.79830335689E+02 0.  0.
         -6    2    1    2    0  503 -0.12732235106E+02  0.26192072443E+02 -0.15557085416E+00  0.17788671471E+03  0.17548653680E+03 0.  0.
        -24    2    5    5    0    0 -0.51469052298E+02  0.14105702929E+02  0.52391794313E+02  0.11132894341E+03  0.82469384193E+02 0.  0.
          5    1    3    3  501    0 -0.45224603181E+02 -0.55091751974E+02  0.74888479397E+02  0.10349270610E+03  0.47000000000E+01 0. -1.
        -11    1    4    4    0    0  0.12267524705E+02  0.14178273429E+02  0.10958697197E+03  0.11117922479E+03  0.00000000000E+00 0.  1.
         12    1    4    4    0    0  0.45689313583E+02  0.14721406101E+02  0.14894206110E+02  0.50260029336E+02  0.00000000000E+00 0. -1.
         -5    1    5    5    0  503  0.38736817192E+02  0.12086369515E+02 -0.52547365167E+02  0.66557771298E+02  0.47000000000E+01 0.  1.
         11    1    6    6    0    0 -0.35261430058E+02  0.42251791933E+02  0.69446444302E+01  0.55469004476E+02  0.00000000000E+00 0. -1.
        -12    1    6    6    0    0 -0.16207622240E+02 -0.28146089004E+02  0.45447149883E+02  0.55859938931E+02  0.00000000000E+00 0.  1.
</event>
<event>
12    1  0.9028446E-003  0.1891349E+03  0.7818608E-02  0.1159522E+00
         21   -1    0    0  501  502  0.00000000000E+00  0.00000000000E+00  0.55956870151E+02  0.55956870151E+02  0.00000000000E+00 0. -1.
         21   -1    0    0  502  503 -0.00000000000E+00 -0.00000000000E+00 -0.84779125163E+03  0.84779125163E+03  0.00000000000E+00 0. -1.
          6    2    1    2  501    0 -0.66484924185E+02  0.40062433238E+02 -0.17057636806E+03  0.25469256139E+03  0.17247248993E+03 0.  0.
         24    2    3    3    0    0 -0.59218840916E+02  0.51895906464E+02 -0.33728052927E+02  0.11706124805E+03  0.79785324557E+02 0.  0.
         -6    2    1    2    0  503  0.66484924185E+02 -0.40062433238E+02 -0.62125801342E+03  0.64905556040E+03  0.17113257300E+03 0.  0.
        -24    2    5    5    0    0  0.16613710281E+02  0.34414979588E+01 -0.52876961201E+03  0.53523146628E+03  0.81163788941E+02 0.  0.
          5    1    3    3  501    0 -0.72660832685E+01 -0.11833473227E+02 -0.13684831513E+03  0.13763131333E+03  0.47000000000E+01 0. -1.
        -13    1    4    4    0    0 -0.15148851824E+02  0.50967524789E+02 -0.47063877056E+02  0.71008343301E+02  0.00000000000E+00 0.  1.
         14    1    4    4    0    0 -0.44069989092E+02  0.92838167508E+00  0.13335824130E+02  0.46052904754E+02  0.00000000000E+00 0. -1.
         -5    1    5    5    0  503  0.49871213903E+02 -0.43503931196E+02 -0.92488401414E+02  0.11382409412E+03  0.47000000000E+01 0.  1.
         13    1    6    6    0    0  0.74967475804E+01  0.96544481063E+01 -0.86016188661E+01  0.14946485863E+02  0.00000000000E+00 0. -1.
        -14    1    6    6    0    0  0.91169627010E+01 -0.62129501475E+01 -0.52016799314E+03  0.52028498042E+03  0.00000000000E+00 0.  1.
</event>
<event>
12    1  0.9028446E-003  0.1737735E+03  0.7818608E-02  0.1174683E+00
         21   -1    0    0  503  502  0.00000000000E+00  0.00000000000E+00  0.34514657169E+02  0.34514657169E+02  0.00000000000E+00 0.  1.
         21   -1    0    0  501  503 -0.00000000000E+00 -0.00000000000E+00 -0.86533740620E+03  0.86533740620E+03  0.00000000000E+00 0.  1.
          6    2    1    2  501    0 -0.25976023385E+01 -0.26922849220E+02 -0.44429843272E+03  0.47606168561E+03  0.16882548338E+03 0.  0.
         24    2    3    3    0    0 -0.61382146256E+02 -0.33692621651E+02 -0.22491186715E+03  0.24878650532E+03  0.80040093777E+02 0.  0.
         -6    2    1    2    0  502  0.25976023385E+01  0.26922849220E+02 -0.38652431631E+03  0.42379037776E+03  0.17165561405E+03 0.  0.
        -24    2    5    5    0    0 -0.23864349182E+02 -0.45983862255E+02 -0.23098318988E+03  0.24992043939E+03  0.80143429359E+02 0.  0.
          5    1    3    3  501    0  0.58784543918E+02  0.67697724307E+01 -0.21938656557E+03  0.22727518029E+03  0.47000000000E+01 0. -1.
        -11    1    4    4    0    0 -0.38767611326E+01  0.17095748158E+02 -0.91174633505E+01  0.19759099674E+02  0.00000000000E+00 0.  1.
         12    1    4    4    0    0 -0.57505385124E+02 -0.50788369809E+02 -0.21579440380E+03  0.22902740564E+03  0.00000000000E+00 0. -1.
         -5    1    5    5    0  502  0.26461951521E+02  0.72906711475E+02 -0.15554112643E+03  0.17386993837E+03  0.47000000000E+01 0.  1.
         11    1    6    6    0    0 -0.23086777337E+02 -0.16135622438E+02 -0.15054952326E+02  0.31937582701E+02  0.00000000000E+00 0. -1.
        -12    1    6    6    0    0 -0.77757184523E+00 -0.29848239817E+02 -0.21592823756E+03  0.21798285669E+03  0.00000000000E+00 0.  1.
</event>
<event>
12    1  0.9028446E-003  0.2390812E+03  0.7818608E-02  0.1120709E+00
         21   -1    0    0  501  502  0.00000000000E+00  0.00000000000E+00  0.65714647370E+02  0.65714647370E+02  0.00000000000E+00 0.  1.
         21   -1    0    0  502  503 -0.00000000000E+00 -0.00000000000E+00 -0.87336390190E+03  0.87336390190E+03  0.00000000000E+00 0.  1.
          6    2    1    2  501    0  0.82523108164E+02 -0.14180736378E+03 -0.35185078010E+03  0.42438245953E+03  0.17141210196E+03 0.  0.
         24    2    3    3    0    0  0.10057339714E+03 -0.16156338676E+03 -0.28049011752E+03  0.34802443742E+03  0.78921270047E+02 0.  0.
         -6    2    1    2    0  503 -0.82523108164E+02  0.14180736378E+03 -0.45579847443E+03  0.51469608974E+03  0.17389773920E+03 0.  0.
        -24    2    5    5    0    0 -0.48946276422E+02  0.43894817943E+01 -0.16638098052E+03  0.19252276108E+03  0.83470817228E+02 0.  0.
          5    1    3    3  501    0 -0.18050288976E+02  0.19756022976E+02 -0.71360662583E+02  0.76358022108E+02  0.47000000000E+01 0. -1.
        -13    1    4    4    0    0  0.70612997730E+01 -0.57837660132E+02 -0.13141290660E+03  0.14375120488E+03  0.00000000000E+00 0.  1.
         14    1    4    4    0    0  0.93512097367E+02 -0.10372572662E+03 -0.14907721092E+03  0.20427323254E+03  0.00000000000E+00 0. -1.
         -5    1    5    5    0  503 -0.33576831742E+02  0.13741788199E+03 -0.28941749391E+03  0.32217332866E+03  0.47000000000E+01 0.  1.
         11    1    6    6    0    0  0.81808699618E+01 -0.91995332341E+01  0.34840118542E+01  0.12794388757E+02  0.00000000000E+00 0. -1.
        -12    1    6    6    0    0 -0.57127146384E+02  0.13589015028E+02 -0.16986499238E+03  0.17972837232E+03  0.00000000000E+00 0.  1.
</event>
<event>
12    1  0.9028446E-003  0.1920754E+03  0.7818608E-02  0.1156910E+00
         21   -1    0    0  503  502  0.00000000000E+00  0.00000000000E+00  0.29224574221E+03  0.29224574221E+03  0.00000000000E+00 0.  1.
         21   -1    0    0  501  503 -0.00000000000E+00 -0.00000000000E+00 -0.12746623041E+03  0.12746623041E+03  0.00000000000E+00 0.  1.
          6    2    1    2  501    0 -0.25853432083E+02  0.80018035452E+02  0.10981424716E+03  0.22125132153E+03  0.17268958408E+03 0.  0.
         24    2    3    3    0    0 -0.69806770324E+02  0.40336979967E+02  0.20969135196E+02  0.11437744246E+03  0.78373704627E+02 0.  0.
         -6    2    1    2    0  502  0.25853432083E+02 -0.80018035452E+02  0.54965264648E+02  0.19846065109E+03  0.17115537902E+03 0.  0.
        -24    2    5    5    0    0 -0.12308786390E+02 -0.11273210346E+03  0.37877151638E+02  0.14516282027E+03  0.82325769952E+02 0.  0.
          5    1    3    3  501    0  0.43953338241E+02  0.39681055485E+02  0.88845111963E+02  0.10687387907E+03  0.47000000000E+01 0. -1.
        -13    1    4    4    0    0 -0.62618175869E+02  0.59901097139E+02  0.27580386725E+01  0.86699389646E+02  0.00000000000E+00 0.  1.
         14    1    4    4    0    0 -0.71885944547E+01 -0.19564117172E+02  0.18211096524E+02  0.27678052814E+02  0.00000000000E+00 0. -1.
         -5    1    5    5    0  502  0.38162218473E+02  0.32714068009E+02  0.17088113010E+02  0.53297830826E+02  0.47000000000E+01 0.  1.
         11    1    6    6    0    0  0.11189461130E+02 -0.36083522399E+02 -0.23239286111E+02  0.44354132255E+02  0.00000000000E+00 0. -1.
        -12    1    6    6    0    0 -0.23498247520E+02 -0.76648581062E+02  0.61116437749E+02  0.10080868801E+03  0.00000000000E+00 0.  1.
</event>
<event>
12    1  0.9028446E-003  0.2356312E+03  0.7818608E-02  0.1123004E+00
         21   -1    0    0  501  502  0.00000000000E+00  0.00000000000E+00  0.72247824495E+02  0.72247824495E+02  0.00000000000E+00 0. -1.
         21   -1    0    0  502  503 -0.00000000000E+00 -0.00000000000E+00 -0.87033487495E+03  0.87033487495E+03  0.00000000000E+00 0.  1.
          6    2    1    2  501    0  0.13907790119E+03 -0.80845539550E+02 -0.23502549556E+03  0.33280482571E+03  0.17217260115E+03 0.  0.
         24    2    3    3    0    0  0.10484785066E+03  0.48571532382E+01 -0.87523562161E+02  0.15874863286E+03  0.80771843958E+02 0.  0.
         -6    2    1    2    0  503 -0.13907790119E+03  0.80845539550E+02 -0.56306155489E+03  0.60977787374E+03  0.17003551639E+03 0.  0.
        -24    2    5    5    0    0 -0.40429847724E+02  0.28473099759E+02 -0.40730847655E+03  0.41806083663E+03  0.80183402642E+02 0.  0.
          5    1    3    3  501    0  0.34230050529E+02 -0.85702692788E+02 -0.14750193340E+03  0.17405619284E+03  0.47000000000E+01 0. -1.
        -13    1    4    4    0    0 -0.19805285754E+01  0.21856968835E+02 -0.45370026042E+01  0.22410577251E+02  0.00000000000E+00 0.  1.
         14    1    4    4    0    0  0.10682837924E+03 -0.16999815597E+02 -0.82986559557E+02  0.13633805561E+03  0.00000000000E+00 0. -1.
         -5    1    5    5    0  503 -0.98648053469E+02  0.52372439791E+02 -0.15575307835E+03  0.19171703711E+03  0.47000000000E+01 0.  1.
         13    1    6    6    0    0 -0.56728914367E+01 -0.25783748093E+02 -0.73678954194E+02  0.78266031292E+02  0.00000000000E+00 0. -1.
        -14    1    6    6    0    0 -0.34756956287E+02  0.54256847852E+02 -0.33362952235E+03  0.33979480534E+03  0.00000000000E+00 0.  1.
</event>
<event>
12    1  0.9028446E-003  0.1717981E+03  0.7818608E-02  0.1175994E+00
         21   -1    0    0  503  502  0.00000000000E+00  0.00000000000E+00  0.60377948704E+02  0.60377948704E+02  0.00000000000E+00 0. -1.
         21   -1    0    0  501  503 -0.00000000000E+00 -0.00000000000E+00 -0.52391818550E+03  0.52391818550E+03  0.00000000000E+00 0. -1.
          6    2    1    2  501    0 -0.12558877137E+01 -0.73118381451E+01 -0.30745520936E+03  0.35218169373E+03  0.17160477675E+03 0.  0.
         24    2    3    3    0    0  0.49351848024E+02  0.34696342048E+02 -0.13598844583E+03  0.16847330766E+03  0.79062993474E+02 0.  0.
         -6    2    1    2    0  502  0.12558877137E+01  0.73118381451E+01 -0.15608502743E+03  0.23211444047E+03  0.17163780893E+03 0.  0.
        -24    2    5    5    0    0 -0.24040639899E+02  0.64751494702E+02 -0.12051156622E+03  0.15981790116E+03  0.79044389450E+02 0.  0.
          5    1    3    3  501    0 -0.50607735737E+02 -0.42008180193E+02 -0.17146676353E+03  0.18370838608E+03  0.47000000000E+01 0. -1.
        -13    1    4    4    0    0  0.55422259031E+02 -0.42094329730E+01 -0.53877031648E+02  0.77408530933E+02  0.00000000000E+00 0.  1.
         14    1    4    4    0    0 -0.60704110070E+01  0.38905775021E+02 -0.82111414187E+02  0.91064776722E+02  0.00000000000E+00 0. -1.
         -5    1    5    5    0  502  0.25296527613E+02 -0.57439656557E+02 -0.35573461210E+02  0.72296539316E+02  0.47000000000E+01 0.  1.
         13    1    6    6    0    0 -0.50965331429E+02  0.31356145276E+02 -0.53590491900E+02  0.80328162411E+02  0.00000000000E+00 0. -1.
        -14    1    6    6    0    0  0.26924691530E+02  0.33395349425E+02 -0.66921074323E+02  0.79489738745E+02  0.00000000000E+00 0.  1.
</event>
<event>
12    1  0.9028446E-003  0.2310243E+03  0.7818608E-02  0.1126282E+00
         21   -1    0    0  501  502  0.00000000000E+00  0.00000000000E+00  0.23385568122E+03  0.23385568122E+03  0.00000000000E+00 0.  1.
         21   -1    0    0  502  503 -0.00000000000E+00 -0.00000000000E+00 -0.23335487211E+03  0.23335487211E+03  0.00000000000E+00 0.  1.
          6    2    1    2  501    0 -0.10014094753E+03 -0.11471632227E+03  0.41148643018E+02  0.23466022222E+03  0.17373590621E+03 0.  0.
         24    2    3    3    0    0 -0.13652187682E+03 -0.86993437284E+02  0.14067136147E+02  0.18129704782E+03  0.80403073635E+02 0.  0.
         -6    2    1    2    0  503  0.10014094753E+03  0.11471632227E+03 -0.40647833912E+02  0.23255033111E+03  0.17099522254E+03 0.  0.
        -24    2    5    5    0    0  0.10059792310E+02  0.10908219123E+03 -0.70656773095E+01  0.13613347989E+03  0.80512587127E+02 0.  0.
          5    1    3    3  501    0  0.36380929289E+02 -0.27722884985E+02  0.27081506872E+02  0.53363174402E+02  0.47000000000E+01 0. -1.
        -11    1    4    4    0    0 -0.49271817379E+02 -0.32431805418E+02  0.44607638272E+02  0.73955225527E+02  0.00000000000E+00 0.  1.
         12    1    4    4    0    0 -0.87250059436E+02 -0.54561631866E+02 -0.30540502126E+02  0.10734182229E+03  0.00000000000E+00 0. -1.
         -5    1    5    5    0  503  0.90081155217E+02  0.56341310410E+01 -0.33582156603E+02  0.96416851223E+02  0.47000000000E+01 0.  1.
         11    1    6    6    0    0  0.29663912629E+02  0.60337283244E+01  0.44889725149E+01  0.30602360435E+02  0.00000000000E+00 0. -1.
        -12    1    6    6    0    0 -0.19604120319E+02  0.10304846290E+03 -0.11554649824E+02  0.10553111945E+03  0.00000000000E+00 0.  1.
</event>
<event>
12    1  0.9028446E-003  0.1867046E+03  0.7818608E-02  0.1162651E+00
         21   -1    0    0  503  502  0.00000000000E+00  0.00000000000E+00  0.39930608868E+02  0.39930608868E+02  0.00000000000E+00 0.  1.
         21   -1    0    0  501  503 -0.00000000000E+00 -0.00000000000E+00 -0.95939411026E+03  0.95939411026E+03  0.00000000000E+00 0.  1.
          6    2    1    2  501    0 -0.56087786066E+02 -0.15779934826E+02 -0.62323992023E+03  0.64917184672E+03  0.17205011570E+03 0.  0.
         24    2    3    3    0    0 -0.26313536624E+02  0.45628477260E+02 -0.21464597497E+03  0.23489102274E+03  0.79539536395E+02 0.  0.
         -6    2    1    2    0  502  0.56087786066E+02  0.15779934826E+02 -0.29622358116E+03  0.35015287241E+03  0.17738032003E+03 0.  0.
        -24    2    5    5    0    0 -0.36927725071E+02  0.28478936937E+02 -0.17870919663E+03  0.19967074544E+03  0.75873070949E+02 0.  0.
          5    1    3    3  501    0 -0.29774249442E+02 -0.61408412086E+02 -0.40859394526E+03  0.41428082397E+03  0.47000000000E+01 0. -1.
        -11    1    4    4    0    0 -0.15762307617E+02  0.40671706208E+02 -0.21834606789E+03  0.22266037679E+03  0.00000000000E+00 0.  1.
         12    1    4    4    0    0 -0.10551229007E+02  0.49567710519E+01  0.37000929271E+01  0.12230645955E+02  0.00000000000E+00 0. -1.
         -5    1    5    5    0  502  0.93015511136E+02 -0.12699002111E+02 -0.11751438453E+03  0.15048212697E+03  0.47000000000E+01 0.  1.
         13    1    6    6    0    0 -0.54963892455E+01 -0.27017796835E+01 -0.14207158036E+03  0.14220352968E+03  0.00000000000E+00 0. -1.
        -14    1    6    6    0    0 -0.31431335825E+02  0.31180716621E+02 -0.36637616273E+02  0.57467215757E+02  0.00000000000E+00 0.  1.
</event>
<event>
12    1  0.9028446E-003  0.2231837E+03  0.7818608E-02  0.1131641E+00
         21   -1    0    0  503  502  0.00000000000E+00  0.00000000000E+00  0.25331846035E+03  0.25331846035E+03  0.00000000000E+00 0.  1.
         21   -1    0    0  501  503 -0.00000000000E+00 -0.00000000000E+00 -0.21376751938E+03  0.21376751938E+03  0.00000000000E+00 0. -1.
          6    2    1    2  501    0  0.13982597798E+03  0.11875883156E+02  0.86874074322E+02  0.23894031108E+03  0.17278028462E+03 0.  0.
         24    2    3    3    0    0  0.13632748290E+03  0.48166878327E+02  0.10730018378E+03  0.19688568297E+03  0.79658094092E+02 0.  0.
         -6    2    1    2    0  502 -0.13982597798E+03 -0.11875883156E+02 -0.47323133356E+02  0.22814566865E+03  0.17354718797E+03 0.  0.
        -24    2    5    5    0    0 -0.15912304956E+03  0.19597604840E+02 -0.17983792665E+02  0.18075532860E+03  0.81516016846E+02 0.  0.
          5    1    3    3  501    0  0.34984950803E+01 -0.36290995171E+02 -0.20426109463E+02  0.42054628118E+02  0.47000000000E+01 0. -1.
        -11    1    4    4    0    0  0.11040965675E+03  0.37719443105E+02  0.38885864225E+02  0.12298438571E+03  0.00000000000E+00 0.  1.
         12    1    4    4    0    0  0.25917826151E+02  0.10447435222E+02  0.68414319560E+02  0.73901297255E+02  0.00000000000E+00 0. -1.
         -5    1    5    5    0  502  0.19297071573E+02 -0.31473487996E+02 -0.29339340690E+02  0.47390340050E+02  0.47000000000E+01 0.  1.
         13    1    6    6    0    0 -0.66283766829E+02  0.49049134789E+02 -0.86103540575E+01  0.82906535120E+02  0.00000000000E+00 0. -1.
        -14    1    6    6    0    0 -0.92839282728E+02 -0.29451529950E+02 -0.93734386079E+01  0.97848793478E+02  0.00000000000E+00 0.  1.
</event>
<event>
12    1  0.9028446E-003  0.1759116E+03  0.7818608E-02  0.1172109E+00
         21   -1    0    0  501  502  0.00000000000E+00  0.00000000000E+00  0.40568818725E+02  0.40568818725E+02  0.00000000000E+00 0.  1.
         21   -1    0    0  502  503 -0.00000000000E+00 -0.00000000000E+00 -0.10001781571E+04  0.10001781571E+04  0.00000000000E+00 0.  1.
          6    2    1    2  501    0 -0.30473076916E+02  0.13975106145E+02 -0.22241604593E+03  0.28285591889E+03  0.17150703006E+03 0.  0.
         24    2    3    3    0    0 -0.34979854755E+02  0.70262268183E+02 -0.17981345235E+03  0.21196426468E+03  0.80222162084E+02 0.  0.
         -6    2    1    2    0  503  0.30473076916E+02 -0.13975106145E+02 -0.73719329246E+03  0.75789105694E+03  0.17268755525E+03 0.  0.
        -24    2    5    5    0    0  0.65210587498E+02 -0.10249255520E+02 -0.69618462263E+03  0.70381354216E+03  0.79517327516E+02 0.  0.
          5    1    3    3  501    0  0.45067778394E+01 -0.56287162038E+02 -0.42602593581E+02  0.70891654210E+02  0.47000000000E+01 0. -1.
        -13    1    4    4    0    0 -0.13559159554E+02  0.66250501830E+02 -0.60690642342E+02  0.90864370731E+02  0.00000000000E+00 0.  1.
         14    1    4    4    0    0 -0.21420695201E+02  0.40117663538E+01 -0.11912281000E+03  0.12109989395E+03  0.00000000000E+00 0. -1.
         -5    1    5    5    0  503 -0.34737510583E+02 -0.37258506256E+01 -0.41008669828E+02  0.54077514786E+02  0.47000000000E+01 0.  1.
         11    1    6    6    0    0  0.40476060886E+02 -0.40594756885E+02 -0.28103443330E+03  0.28682154468E+03  0.00000000000E+00 0. -1.
        -12    1    6    6    0    0  0.24734526612E+02  0.30345501365E+02 -0.41515018933E+03  0.41699199748E+03  0.00000000000E+00 0.  1.
</event>
<event>
12    1  0.9028446E-003  0.1748943E+03  0.7818608E-02  0.1174522E+00
         21   -1    0    0  501  502  0.00000000000E+00  0.00000000000E+00  0.40879970082E+03  0.40879970082E+03  0.00000000000E+00 0. -1.
         21   -1    0    0  502  503 -0.00000000000E+00 -0.00000000000E+00 -0.90541884604E+02  0.90541884604E+02  0.00000000000E+00 0. -1.
          6    2    1    2  501    0 -0.25488827481E+02 -0.18921125289E+02  0.27439469141E+03  0.32539279734E+03  0.17198935018E+03 0.  0.
         24    2    3    3    0    0 -0.60659799572E+02 -0.49117635503E+02  0.24717397330E+03  0.27143092189E+03  0.80545756444E+02 0.  0.
         -6    2    1    2    0  503  0.25488827481E+02  0.18921125289E+02  0.43863124803E+02  0.17394878809E+03  0.16530734361E+03 0.  0.
        -24    2    5    5    0    0  0.50074525561E+02 -0.19830045639E+02  0.72992779658E+02  0.11938931054E+03  0.77621986375E+02 0.  0.
          5    1    3    3  501    0  0.35170972091E+02  0.30196510214E+02  0.27220718112E+02  0.53961875444E+02  0.47000000000E+01 0. -1.
        -11    1    4    4    0    0  0.18251192408E+02 -0.44852949896E+01  0.23558756391E+02  0.30137002142E+02  0.00000000000E+00 0.  1.
         12    1    4    4    0    0 -0.78910991981E+02 -0.44632340513E+02  0.22361521691E+03  0.24129391975E+03  0.00000000000E+00 0. -1.
         -5    1    5    5    0  503 -0.24585698079E+02  0.38751170928E+02 -0.29129654854E+02  0.54559477547E+02  0.47000000000E+01 0.  1.
         13    1    6    6    0    0  0.22085462927E+01 -0.40943934175E+02  0.22931414748E+02  0.46980136280E+02  0.00000000000E+00 0. -1.
        -14    1    6    6    0    0  0.47865979268E+02  0.21113888537E+02  0.50061364909E+02  0.72409174260E+02  0.00000000000E+00 0.  1.
</event>
<event>
12    1  0.9028446E-003  0.2049083E+03  0.7818608E-02  0.1146267E+00
         21   -1    0    0  503  502  0.00000000000E+00  0.00000000000E+00  0.10231825923E+03  0.10231825923E+03  0.00000000000E+00 0.  1.
         21   -1    0    0  501  503 -0.00000000000E+00 -0.00000000000E+00 -0.41257006227E+03  0.41257006227E+03  0.00000000000E+00 0.  1.
          6    2    1    2  501    0  0.10730619404E+03  0.15872606423E+02 -0.19001637405E+03  0.27730894154E+03  0.17037449262E+03 0.  0.
         24    2    3    3    0    0  0.57927906461E+02 -0.56775647311E+02 -0.12596287866E+03  0.16849293018E+03  0.77098017142E+02 0.  0.
         -6    2    1    2    0  502 -0.10730619404E+03 -0.15872606423E+02 -0.12023542899E+03  0.23757937996E+03  0.17384143488E+03 0.  0.
        -24    2    5    5    0    0 -0.60901531761E+01 -0.31200742550E+02 -0.10526409910E+02  0.87453440981E+02  0.80788134849E+02 0.  0.
          5    1    3    3  501    0  0.49378287582E+02  0.72648253734E+02 -0.64053495396E+02  0.10881601136E+03  0.47000000000E+01 0. -1.
        -11    1    4    4    0    0  0.73722137668E+02 -0.29400894977E+02 -0.99463062666E+02  0.12724883906E+03  0.00000000000E+00 0.  1.
         12    1    4    4    0    0 -0.15794231207E+02 -0.27374752334E+02 -0.26499815992E+02  0.41244091121E+02  0.00000000000E+00 0. -1.
         -5    1    5    5    0  502 -0.10121604087E+03  0.15328136127E+02 -0.10970901908E+03  0.15012593897E+03  0.47000000000E+01 0.  1.
         13    1    6    6    0    0 -0.12607251225E+01  0.25554191775E+02 -0.16087248327E+02  0.30222602533E+02  0.00000000000E+00 0. -1.
        -14    1    6    6    0    0 -0.48294280536E+01 -0.56754934325E+02  0.55608384171E+01  0.57230838448E+02  0.00000000000E+00 0.  1.
</event>
<event>
12    1  0.9028446E-003  0.2119740E+03  0.7818608E-02  0.1140645E+00
         21   -1    0    0  503  502  0.00000000000E+00  0.00000000000E+00  0.26979060373E+04  0.26979060373E+04  0.00000000000E+00 0. -1.
         21   -1    0    0  501  503 -0.00000000000E+00 -0.00000000000E+00 -0.17328506106E+02  0.17328506106E+02  0.00000000000E+00 0. -1.
          6    2    1    2  501    0 -0.96741477348E+02 -0.71352465482E+02  0.16636158005E+04  0.16770660364E+04  0.17459344487E+03 0.  0.
         24    2    3    3    0    0 -0.46258867807E+02  0.27048594522E+02  0.67833209146E+03  0.68558364131E+03  0.83779434256E+02 0.  0.
         -6    2    1    2    0  502  0.96741477348E+02  0.71352465482E+02  0.10169617306E+04  0.10381685070E+04  0.17068274511E+03 0.  0.
        -24    2    5    5    0    0  0.41363615750E+02 -0.10725668669E+02  0.27310232234E+03  0.28773367502E+03  0.79873653973E+02 0.  0.
          5    1    3    3  501    0 -0.50482609541E+02 -0.98401060004E+02  0.98528370908E+03  0.99148239513E+03  0.47000000000E+01 0. -1.
        -11    1    4    4    0    0 -0.40720610012E+02 -0.16681388621E+02  0.17980098563E+03  0.18510762069E+03  0.00000000000E+00 0.  1.
         12    1    4    4    0    0 -0.55382577953E+01  0.43729983142E+02  0.49853110584E+03  0.50047602062E+03  0.00000000000E+00 0. -1.
         -5    1    5    5    0  502  0.55377861598E+02  0.82078134151E+02  0.74385940831E+03  0.75043483194E+03  0.47000000000E+01 0.  1.
         11    1    6    6    0    0  0.52994280219E+02  0.20407946836E+02  0.18729427345E+03  0.19571413566E+03  0.00000000000E+00 0. -1.
        -12    1    6    6    0    0 -0.11630664469E+02 -0.31133615505E+02  0.85808048888E+02  0.92019539362E+02  0.00000000000E+00 0.  1.
</event>
<event>
12    1  0.9028446E-003  0.1848600E+03  0.7818608E-02  0.1163878E+00
         21   -1    0    0  503  502  0.00000000000E+00  0.00000000000E+00  0.34812828074E+03  0.34812828074E+03  0.00000000000E+00 0.  1.
         21   -1    0    0  501  503 -0.00000000000E+00 -0.00000000000E+00 -0.97633789119E+02  0.97633789119E+02  0.00000000000E+00 0.  1.
          6    2    1    2  501    0  0.58388726597E+02  0.30518602410E+02  0.14921332783E+03  0.23756650040E+03  0.17272115221E+03 0.  0.
         24    2    3    3    0    0 -0.26498174248E+01  0.28386961244E+02  0.15454596415E+03  0.17607849538E+03  0.79412470058E+02 0.  0.
         -6    2    1    2    0  502 -0.58388726597E+02 -0.30518602410E+02  0.10128116379E+03  0.20819556946E+03  0.16954908587E+03 0.  0.
        -24    2    5    5    0    0 -0.45658833749E+02  0.31764313266E+02  0.80457236083E+02  0.14113635890E+03  0.10174676539E+03 0.  0.
          5    1    3    3  501    0  0.61038544022E+02  0.21316411657E+01 -0.53326363170E+01  0.61488005013E+02  0.47000000000E+01 0. -1.
        -11    1    4    4    0    0 -0.55523455293E+01  0.56115237010E+02  0.10750606594E+03  0.12139729231E+03  0.00000000000E+00 0.  1.
         12    1    4    4    0    0  0.29025281045E+01 -0.27728275766E+02  0.47039898204E+02  0.54681203072E+02  0.00000000000E+00 0. -1.
         -5    1    5    5    0  502 -0.12729892848E+02 -0.62282915675E+02  0.20823927707E+02  0.67059210569E+02  0.47000000000E+01 0.  1.
         11    1    6    6    0    0  0.28116424940E+02  0.95854999629E+01  0.50280548967E+02  0.58399903813E+02  0.00000000000E+00 0. -1.
        -12    1    6    6    0    0 -0.73775258689E+02  0.22178813303E+02  0.30176687116E+02  0.82736455082E+02  0.00000000000E+00 0.  1.
</event>
<event>
12    1  0.9028446E-003  0.2070859E+03  0.7818608E-02  0.1143909E+00
         21   -1    0    0  503  502  0.00000000000E+00  0.00000000000E+00  0.18384863689E+03  0.18384863689E+03  0.00000000000E+00 0.  1.
         21   -1    0    0  501  503 -0.00000000000E+00 -0.00000000000E+00 -0.23669519706E+03  0.23669519706E+03  0.00000000000E+00 0.  1.
          6    2    1    2  501    0 -0.87715731782E+02  0.75836808833E+02 -0.52062565329E+02  0.21353001286E+03  0.17157879970E+03 0.  0.
         24    2    3    3    0    0  0.68526876114E+01  0.42136033452E+02  0.12595827287E+02  0.94023837523E+02  0.82821630719E+02 0.  0.
         -6    2    1    2    0  502  0.87715731782E+02 -0.75836808833E+02 -0.78399484776E+00  0.20701382109E+03  0.17149004723E+03 0.  0.
        -24    2    5    5    0    0  0.62447703146E+00 -0.83864756914E+02  0.20309993303E+02  0.11692286183E+03  0.78897226614E+02 0.  0.
          5    1    3    3  501    0 -0.94568419393E+02  0.33700775381E+02 -0.64658392616E+02  0.11950617534E+03  0.47000000000E+01 0. -1.
        -11    1    4    4    0    0 -0.28546915889E+02  0.35608266127E+02 -0.15672326467E+02  0.48254500725E+02  0.00000000000E+00 0.  1.
         12    1    4    4    0    0  0.35399603501E+02  0.65277673249E+01  0.28268153754E+02  0.45769336798E+02  0.00000000000E+00 0. -1.
         -5    1    5    5    0  502  0.87091254750E+02  0.80279480814E+01 -0.21093988151E+02  0.90090959261E+02  0.47000000000E+01 0.  1.
         13    1    6    6    0    0  0.20584926389E+00 -0.65310263339E+02  0.49764046816E+02  0.82109276132E+02  0.00000000000E+00 0. -1.
        -14    1    6    6    0    0  0.41862776757E+00 -0.18554493575E+02 -0.29454053513E+02  0.34813585701E+02  0.00000000000E+00 0.  1.
</event>
<event>
12    1  0.9028446E-003  0.1946867E+03  0.7818608E-02  0.1157591E+00
         21   -1    0    0  501  502  0.00000000000E+00  0.00000000000E+00  0.49432417752E+03  0.49432417752E+03  0.00000000000E+00 0. -1.
         21   -1    0    0  502  503 -0.00000000000E+00 -0.00000000000E+00 -0.71092207318E+02  0.71092207318E+02  0.00000000000E+00 0.  1.
          6    2    1    2  501    0  0.68613396128E+02  0.56523501721E+02  0.20195742831E+03  0.27068715318E+03  0.15678656726E+03 0.  0.
         24    2    3    3    0    0  0.97995505591E+02  0.13075821087E+02  0.14218707817E+03  0.19102791602E+03  0.80625078528E+02 0.  0.
         -6    2    1    2    0  503 -0.68613396128E+02 -0.56523501721E+02  0.22127454189E+03  0.29472923166E+03  0.17320563712E+03 0.  0.
        -24    2    5    5    0    0  0.21121536190E+02 -0.28405341281E+02  0.13715780251E+03  0.16847272739E+03  0.91202052510E+02 0.  0.
          5    1    3    3  501    0 -0.29382109463E+02  0.43447680634E+02  0.59770350141E+02  0.79659237160E+02  0.47000000000E+01 0. -1.
        -13    1    4    4    0    0 -0.11212105747E+02  0.61731886812E+01  0.16367974460E+01  0.12903436738E+02  0.00000000000E+00 0.  1.
         14    1    4    4    0    0  0.10920761134E+03  0.69026324058E+01  0.14055028073E+03  0.17812447928E+03  0.00000000000E+00 0. -1.
         -5    1    5    5    0  503 -0.89734932318E+02 -0.28118160440E+02  0.84116739384E+02  0.12625650427E+03  0.47000000000E+01 0.  1.
         11    1    6    6    0    0  0.14138538730E+02  0.33050269632E+02  0.52502050067E+02  0.63629268905E+02  0.00000000000E+00 0. -1.
        -12    1    6    6    0    0  0.69829974598E+01 -0.61455610913E+02  0.84655752441E+02  0.10484345849E+03  0.00000000000E+00 0.  1.
</event>
<event>
12    1  0.9028446E-003  0.1995713E+03  0.7818608E-02  0.1151178E+00
         21   -1    0    0  503  502  0.00000000000E+00  0.00000000000E+00  0.49584943110E+02  0.49584943110E+02  0.00000000000E+00 0.  1.
         21   -1    0    0  501  503 -0.00000000000E+00 -0.00000000000E+00 -0.10719492314E+04  0.10719492314E+04  0.00000000000E+00 0.  1.
          6    2    1    2  501    0  0.53693337009E+02  0.77525396969E+02 -0.80698330728E+03  0.83129461963E+03  0.17588497596E+03 0.  0.
         24    2    3    3    0    0  0.78286166524E+02  0.55083168684E+02 -0.77511736203E+03  0.78496979538E+03  0.78789437152E+02 0.  0.
         -6    2    1    2    0  502 -0.53693337009E+02 -0.77525396969E+02 -0.21538098105E+03  0.29023955493E+03  0.17016718436E+03 0.  0.
        -24    2    5    5    0    0 -0.81092835786E+01  0.22317683652E+02 -0.84557310158E+02  0.11940785547E+03  0.80897822977E+02 0.  0.
          5    1    3    3  501    0 -0.24592829514E+02  0.22442228285E+02 -0.31865945260E+02  0.46324824244E+02  0.47000000000E+01 0. -1.
        -13    1    4    4    0    0  0.27410522662E+02  0.54263515081E+02 -0.24555690230E+03  0.25297046880E+03  0.00000000000E+00 0.  1.
         14    1    4    4    0    0  0.50875643861E+02  0.81965360302E+00 -0.52956045973E+03  0.53199932658E+03  0.00000000000E+00 0. -1.
         -5    1    5    5    0  502 -0.45584053431E+02 -0.99843080622E+02 -0.13082367089E+03  0.17083169946E+03  0.47000000000E+01 0.  1.
         11    1    6    6    0    0 -0.25377077570E+02 -0.70837912433E+01  0.19539405540E+01  0.26419576985E+02  0.00000000000E+00 0. -1.
        -12    1    6    6    0    0  0.17267793991E+02  0.29401474896E+02 -0.86511250712E+02  0.92988278482E+02  0.00000000000E+00 0.  1.
</event>
<event>
12    1  0.9028446E-003  0.1828244E+03  0.7818608E-02  0.1165217E+00
         21   -1    0    0  501  502  0.00000000000E+00  0.00000000000E+00  0.25565980663E+03  0.25565980663E+03  0.00000000000E+00 0.  1.
         21   -1    0    0  502  503 -0.00000000000E+00 -0.00000000000E+00 -0.21160312875E+03  0.21160312875E+03  0.00000000000E+00 0.  1.
          6    2    1    2  501    0  0.28844650480E+02 -0.52989047196E+02  0.16679616754E+03  0.24747872151E+03  0.17258303250E+03 0.  0.
         24    2    3    3    0    0  0.76887444227E+02 -0.13473747969E+02  0.68403295676E+02  0.13097629176E+03  0.79890907985E+02 0.  0.
         -6    2    1    2    0  503 -0.28844650480E+02  0.52989047196E+02 -0.12273948966E+03  0.21978421388E+03  0.17204727653E+03 0.  0.
        -24    2    5    5    0    0 -0.93741905855E+01  0.96219176611E+02 -0.11266195135E+03  0.17108524391E+03  0.85037873932E+02 0.  0.
          5    1    3    3  501    0 -0.48042793746E+02 -0.39515299227E+02  0.98392871869E+02  0.11650242975E+03  0.47000000000E+01 0. -1.
        -11    1    4    4    0    0  0.10558605276E+02 -0.16646287392E+02  0.61064404035E+02  0.64167316209E+02  0.00000000000E+00 0.  1.
         12    1    4    4    0    0  0.66328838951E+02  0.31725394232E+01  0.73388916402E+01  0.66808975546E+02  0.00000000000E+00 0. -1.
         -5    1    5    5    0  503 -0.19470459895E+02 -0.43230129416E+02 -0.10077538308E+02  0.48698969970E+02  0.47000000000E+01 0.  1.
         11    1    6    6    0    0  0.31657157573E+02  0.41685765835E+02 -0.20068493260E+02  0.56059103816E+02  0.00000000000E+00 0. -1.
        -12    1    6    6    0    0 -0.41031348159E+02  0.54533410776E+02 -0.92593458091E+02  0.11502614009E+03  0.00000000000E+00 0.  1.
</event>
<event>
12    1  0.9028446E-003  0.2321775E+03  0.7818608E-02  0.1125227E+00
         21   -1    0    0  501  502  0.00000000000E+00  0.00000000000E+00  0.10481762812E+03  0.10481762812E+03  0.00000000000E+00 0. -1.
         21   -1    0    0  502  503 -0.00000000000E+00 -0.00000000000E+00 -0.51419141857E+03  0.51419141857E+03  0.00000000000E+00 0. -1.
          6    2    1    2  501    0  0.14814385391E+03  0.48415933144E+02 -0.22058241400E+03  0.32025460773E+03  0.17209215082E+03 0.  0.
         24    2    3    3    0    0  0.25609776128E+02  0.54165044220E+02 -0.14382827033E+03  0.17547566912E+03  0.80718191617E+02 0.  0.
         -6    2    1    2    0  503 -0.14814385391E+03 -0.48415933144E+02 -0.18879137645E+03  0.29875443896E+03  0.17123471301E+03 0.  0.
        -24    2    5    5    0    0 -0.14059972411E+03 -0.89786208090E+02 -0.13051950292E+03  0.22673975442E+03  0.80905685891E+02 0.  0.
          5    1    3    3  501    0  0.12253407778E+03 -0.57491110758E+01 -0.76754143672E+02  0.14477893862E+03  0.47000000000E+01 0. -1.
        -11    1    4    4    0    0  0.28991345915E+02  0.72887652602E+02 -0.13044781399E+03  0.15221609709E+03  0.00000000000E+00 0.  1.
         12    1    4    4    0    0 -0.33815697877E+01 -0.18722608382E+02 -0.13380456337E+02  0.23259572022E+02  0.00000000000E+00 0. -1.
         -5    1    5    5    0  503 -0.75441297994E+01  0.41370274946E+02 -0.58271873529E+02  0.72014684531E+02  0.47000000000E+01 0.  1.
         13    1    6    6    0    0 -0.11179048796E+03 -0.96532901879E+02 -0.13058637806E+03  0.19715099918E+03  0.00000000000E+00 0. -1.
        -14    1    6    6    0    0 -0.28809236149E+02  0.67466937884E+01  0.66875133662E-01  0.29588755243E+02  0.00000000000E+00 0.  1.
</event>
<event>
12    1  0.9028446E-003  0.1809732E+03  0.7818608E-02  0.1167510E+00
         21   -1    0    0  503  502  0.00000000000E+00  0.00000000000E+00  0.10282470820E+03  0.10282470820E+03  0.00000000000E+00 0. -1.
         21   -1    0    0  501  503 -0.00000000000E+00 -0.00000000000E+00 -0.40567679877E+03  0.40567679877E+03  0.00000000000E+00 0. -1.
          6    2    1    2  501    0  0.47594035206E+02  0.33513043142E+02 -0.29591424035E+02  0.18074749059E+03  0.16853986688E+03 0.  0.
         24    2    3    3    0    0  0.44193264765E+02  0.30504225137E+02 -0.83001149563E+02  0.12693943351E+03  0.79629621055E+02 0.  0.
         -6    2    1    2    0  502 -0.47594035206E+02 -0.33513043142E+02 -0.27326066654E+03  0.32775401639E+03  0.17135631629E+03 0.  0.
        -24    2    5    5    0    0 -0.38217816908E+02 -0.73861824468E+02 -0.10777857268E+03  0.15710129589E+03  0.78411898329E+02 0.  0.
          5    1    3    3  501    0  0.34007704406E+01  0.30088180050E+01  0.53409725528E+02  0.53808057076E+02  0.47000000000E+01 0. -1.
        -11    1    4    4    0    0  0.21047206550E+02  0.23083471833E+02 -0.94876646393E+02  0.99886984168E+02  0.00000000000E+00 0.  1.
         12    1    4    4    0    0  0.23146058215E+02  0.74207533042E+01  0.11875496830E+02  0.27052449343E+02  0.00000000000E+00 0. -1.
         -5    1    5    5    0  502 -0.93762182977E+01  0.40348781326E+02 -0.16548209386E+03  0.17065272049E+03  0.47000000000E+01 0.  1.
         13    1    6    6    0    0 -0.47653035492E+02 -0.32095840233E+02 -0.22548923687E+02  0.61720407576E+02  0.00000000000E+00 0. -1.
        -14    1    6    6    0    0  0.94352185840E+01 -0.41765984235E+02 -0.85229648991E+02  0.95380888316E+02  0.00000000000E+00 0.  1.
</event>
<event>
12    1  0.9028446E-003  0.3403741E+03  0.7818608E-02  0.1066840E+00
         21   -1    0    0  501  502  0.00000000000E+00  0.00000000000E+00  0.88122159282E+03  0.88122159282E+03  0.00000000000E+00 0.  1.
         21   -1    0    0  502  503 -0.00000000000E+00 -0.00000000000E+00 -0.13108664937E+03  0.13108664937E+03  0.00000000000E+00 0.  1.
          6    2    1    2  501    0 -0.36117917318E+02 -0.29044001787E+03  0.40227209084E+03  0.52695101030E+03  0.17376600431E+03 0.  0.
         24    2    3    3    0    0 -0.10090858367E+02 -0.27646096183E+03  0.28503349456E+03  0.40595596799E+03  0.83807315232E+02 0.  0.
         -6    2    1    2    0  503  0.36117917318E+02  0.29044001787E+03  0.34786285262E+03  0.48535723189E+03  0.17000932440E+03 0.  0.
        -24    2    5    5    0    0 -0.18888324324E+02  0.12530808568E+03  0.95974832286E+02  0.17914830577E+03  0.82607880347E+02 0.  0.
          5    1    3    3  501    0 -0.26027058951E+02 -0.13979056040E+02  0.11723859628E+03  0.12099504231E+03  0.47000000000E+01 0. -1.
        -13    1    4    4    0    0 -0.32434878309E+02 -0.97303126430E+02  0.14430862335E+03  0.17704490537E+03  0.00000000000E+00 0.  1.
         14    1    4    4    0    0  0.22344019942E+02 -0.17915783540E+03  0.14072487121E+03  0.22891106262E+03  0.00000000000E+00 0. -1.
         -5    1    5    5    0  503  0.55006241642E+02  0.16513193220E+03  0.25188802033E+03  0.30620892612E+03  0.47000000000E+01 0.  1.
         11    1    6    6    0    0 -0.44680415091E+02  0.93084807834E+02  0.90897896486E+02  0.13756288936E+03  0.00000000000E+00 0. -1.
        -12    1    6    6    0    0  0.25792090767E+02  0.32223277843E+02  0.50769357994E+01  0.41585416413E+02  0.00000000000E+00 0.  1.
</event>
<event>
12    1  0.9028446E-003  0.2000493E+03  0.7818608E-02  0.1150044E+00
         21   -1    0    0  501  502  0.00000000000E+00  0.00000000000E+00  0.78351620825E+03  0.78351620825E+03  0.00000000000E+00 0.  1.
         21   -1    0    0  502  503 -0.00000000000E+00 -0.00000000000E+00 -0.69600303988E+02  0.69600303988E+02  0.00000000000E+00 0.  1.
          6    2    1    2  501    0  0.89732196126E+02  0.36990030267E+02  0.57840814983E+03  0.61149269477E+03  0.17305258914E+03 0.  0.
         24    2    3    3    0    0  0.12293961405E+03  0.33405228723E+02  0.53654818632E+03  0.55773462605E+03  0.83390040424E+02 0.  0.
         -6    2    1    2    0  503 -0.89732196126E+02 -0.36990030267E+02  0.13550775444E+03  0.24162381747E+03  0.17492738006E+03 0.  0.
        -24    2    5    5    0    0 -0.85917322988E+02 -0.83861223626E+02  0.74024041778E+02  0.16407512988E+03  0.83824806996E+02 0.  0.
          5    1    3    3  501    0 -0.33207417928E+02  0.35848015446E+01  0.41859963504E+02  0.53758068717E+02  0.47000000000E+01 0. -1.
        -11    1    4    4    0    0  0.60845500882E+02  0.31619259960E+02  0.13506858032E+03  0.15147763520E+03  0.00000000000E+00 0.  1.
         12    1    4    4    0    0  0.62094113172E+02  0.17859687631E+01  0.40147960601E+03  0.40625699085E+03  0.00000000000E+00 0. -1.
         -5    1    5    5    0  503 -0.38148731379E+01  0.46871193359E+02  0.61483712658E+02  0.77548687585E+02  0.47000000000E+01 0.  1.
         13    1    6    6    0    0 -0.28770184862E+02 -0.61102238863E+02 -0.37821193620E+00  0.67537768510E+02  0.00000000000E+00 0. -1.
        -14    1    6    6    0    0 -0.57147138126E+02 -0.22758984764E+02  0.74402253714E+02  0.96537361375E+02  0.00000000000E+00 0.  1.
</event>
<event>
12    1  0.9028446E-003  0.2208488E+03  0.7818608E-02  0.1133352E+00
         21   -1    0    0  503  502  0.00000000000E+00  0.00000000000E+00  0.81132829297E+02  0.81132829297E+02  0.00000000000E+00 0.  1.
         21   -1    0    0  501  503 -0.00000000000E+00 -0.00000000000E+00 -0.61862455773E+03  0.61862455773E+03  0.00000000000E+00 0.  1.
          6    2    1    2  501    0 -0.11688725298E+03 -0.71758259247E+02 -0.20723099495E+03  0.30245859628E+03  0.17240835106E+03 0.  0.
         24    2    3    3    0    0  0.55003217416E+01 -0.47387114086E+02 -0.91531268118E+02  0.13221997565E+03  0.82633871976E+02 0.  0.
         -6    2    1    2    0  502  0.11688725298E+03  0.71758259247E+02 -0.33026073348E+03  0.39729879075E+03  0.17309621420E+03 0.  0.
        -24    2    5    5    0    0  0.43937918175E+02  0.31538126799E+02 -0.50866552656E+02  0.10571267520E+03  0.75250046000E+02 0.  0.
          5    1    3    3  501    0 -0.12238757472E+03 -0.24371145161E+02 -0.11569972683E+03  0.17023862062E+03  0.47000000000E+01 0. -1.
        -13    1    4    4    0    0 -0.32797152509E+02 -0.41403634629E+02 -0.33887892523E+02  0.62755903570E+02  0.00000000000E+00 0.  1.
         14    1    4    4    0    0  0.38297474251E+02 -0.59834794564E+01 -0.57643375595E+02  0.69464072083E+02  0.00000000000E+00 0. -1.
         -5    1    5    5    0  502  0.72949334806E+02  0.40220132447E+02 -0.27939418083E+03  0.29158611555E+03  0.47000000000E+01 0.  1.
         11    1    6    6    0    0 -0.18603569904E+02 -0.50269034788E+01 -0.47962684406E+01  0.19858669712E+02  0.00000000000E+00 0. -1.
        -12    1    6    6    0    0  0.62541488079E+02  0.36565030278E+02 -0.46070284216E+02  0.85854005487E+02  0.00000000000E+00 0.  1.
</event>
<event>
12    1  0.9028446E-003  0.2825729E+03  0.7818608E-02  0.1095473E+00
         21   -1    0    0  503  502  0.00000000000E+00  0.00000000000E+00  0.13704640356E+04  0.13704640356E+04  0.00000000000E+00 0. -1.
         21   -1    0    0  501  503 -0.00000000000E+00 -0.00000000000E+00 -0.73300960398E+02  0.73300960398E+02  0.00000000000E+00 0. -1.
          6    2    1    2  501    0  0.16594962681E+03 -0.13077445515E+03  0.29528491476E+03  0.40280040928E+03  0.17439539004E+03 0.  0.
         24    2    3    3    0    0  0.98349664850E+02 -0.13697294204E+03  0.27373006106E+03  0.33142199647E+03  0.80486955397E+02 0.  0.
         -6    2    1    2    0  502 -0.16594962681E+03  0.13077445515E+03  0.10018781604E+04  0.10409645867E+04  0.18763311455E+03 0.  0.
        -24    2    5    5    0    0 -0.14468974222E+03  0.96211057823E+02  0.46923804443E+03  0.50676032400E+03  0.80187246404E+02 0.  0.
          5    1    3    3  501    0  0.67599961963E+02  0.61984868872E+01  0.21554853704E+02  0.71378412810E+02  0.47000000000E+01 0. -1.
        -13    1    4    4    0    0  0.43965275777E+02 -0.51753535521E+01  0.65587888889E+02  0.79129646325E+02  0.00000000000E+00 0.  1.
         14    1    4    4    0    0  0.54384389073E+02 -0.13179758849E+03  0.20814217217E+03  0.25229235014E+03  0.00000000000E+00 0. -1.
         -5    1    5    5    0  502 -0.21259884594E+02  0.34563397328E+02  0.53264011598E+03  0.53420426269E+03  0.47000000000E+01 0.  1.
         11    1    6    6    0    0 -0.54913181484E+01  0.25170489473E+02  0.13954949401E+03  0.14190760865E+03  0.00000000000E+00 0. -1.
        -12    1    6    6    0    0 -0.13919842407E+03  0.71040568350E+02  0.32968855042E+03  0.36485271534E+03  0.00000000000E+00 0.  1.
</event>
<event>
12    1  0.9028446E-003  0.2039967E+03  0.7818608E-02  0.1146411E+00
         21   -1    0    0  501  502  0.00000000000E+00  0.00000000000E+00  0.56277935866E+03  0.56277935866E+03  0.00000000000E+00 0.  1.
         21   -1    0    0  502  503 -0.00000000000E+00 -0.00000000000E+00 -0.74090049224E+02  0.74090049224E+02  0.00000000000E+00 0. -1.
          6    2    1    2  501    0 -0.68690705806E+02 -0.85330079996E+02  0.25853043201E+03  0.32932147072E+03  0.17209012518E+03 0.  0.
         24    2    3    3    0    0 -0.75890403096E+02  0.48360815404E+01  0.16990580485E+03  0.20260056926E+03  0.79976666446E+02 0.  0.
         -6    2    1    2    0  503  0.68690705806E+02  0.85330079996E+02  0.23015887742E+03  0.30754793717E+03  0.17208425024E+03 0.  0.
        -24    2    5    5    0    0 -0.10890840967E+02  0.72326592957E-01  0.13737875624E+03  0.15844277968E+03  0.78182965652E+02 0.  0.
          5    1    3    3  501    0  0.71996972899E+01 -0.90166161536E+02  0.88624627165E+02  0.12672090146E+03  0.47000000000E+01 0. -1.
        -11    1    4    4    0    0 -0.44575597419E+02  0.41360547253E+02  0.11079801385E+03  0.12638781044E+03  0.00000000000E+00 0.  1.
         12    1    4    4    0    0 -0.31314805677E+02 -0.36524465713E+02  0.59107790998E+02  0.76212758819E+02  0.00000000000E+00 0. -1.
         -5    1    5    5    0  503  0.79581546773E+02  0.85257753403E+02  0.92780121184E+02  0.14910515749E+03  0.47000000000E+01 0.  1.
         13    1    6    6    0    0  0.51701251996E+01 -0.37362086251E+02  0.57315238694E+02  0.68612624714E+02  0.00000000000E+00 0. -1.
        -14    1    6    6    0    0 -0.16060966166E+02  0.37434412844E+02  0.80063517547E+02  0.89830154966E+02  0.00000000000E+00 0.  1.
</event>
<event>
12    1  0.9028446E-003  0.1720052E+03  0.7818608E-02  0.1175887E+00
         21   -1    0    0  503  502  0.00000000000E+00  0.00000000000E+00  0.34654952162E+02  0.34654952162E+02  0.00000000000E+00 0. -1.
         21   -1    0    0  501  503 -0.00000000000E+00 -0.00000000000E+00 -0.89448721544E+03  0.89448721544E+03  0.00000000000E+00 0. -1.
          6    2    1    2  501    0  0.97884726495E+01 -0.12196331401E+02 -0.53121126098E+03  0.55822769608E+03  0.17084552139E+03 0.  0.
         24    2    3    3    0    0  0.19663137022E+02 -0.10038493684E+02 -0.53859813313E+03  0.54485529389E+03  0.79321699100E+02 0.  0.
         -6    2    1    2    0  502 -0.97884726495E+01  0.12196331401E+02 -0.32862100230E+03  0.37091447153E+03  0.17129278251E+03 0.  0.
        -24    2    5    5    0    0 -0.28694317534E+02 -0.52837275184E+02 -0.15255166355E+03  0.18221019759E+03  0.79456935156E+02 0.  0.
          5    1    3    3  501    0 -0.98746643720E+01 -0.21578377173E+01  0.73868721555E+01  0.13372402189E+02  0.47000000000E+01 0. -1.
        -11    1    4    4    0    0  0.57011382950E+01  0.34405233365E+02 -0.27066085950E+03  0.27289837655E+03  0.00000000000E+00 0.  1.
         12    1    4    4    0    0  0.13961998727E+02 -0.44443727049E+02 -0.26793727363E+03  0.27195691733E+03  0.00000000000E+00 0. -1.
         -5    1    5    5    0  502  0.18905844884E+02  0.65033606586E+02 -0.17606933875E+03  0.18870427394E+03  0.47000000000E+01 0.  1.
         13    1    6    6    0    0 -0.55628717815E+02 -0.28689559821E+02 -0.84692155990E+02  0.10531099836E+03  0.00000000000E+00 0. -1.
        -14    1    6    6    0    0  0.26934400281E+02 -0.24147715364E+02 -0.67859507564E+02  0.76899199233E+02  0.00000000000E+00 0.  1.
</event>
<event>
12    1  0.9028446E-003  0.2098078E+03  0.7818608E-02  0.1142847E+00
         21   -1    0    0  503  502  0.00000000000E+00  0.00000000000E+00  0.42603944208E+03  0.42603944208E+03  0.00000000000E+00 0.  1.
         21   -1    0    0  501  503 -0.00000000000E+00 -0.00000000000E+00 -0.10067641267E+03  0.10067641267E+03  0.00000000000E+00 0.  1.
          6    2    1    2  501    0 -0.37721200519E+02  0.11425461658E+03  0.15659076808E+03  0.26180137762E+03  0.17187869647E+03 0.  0.
         24    2    3    3    0    0  0.27216788288E+02  0.59675737096E+02  0.13091154963E+03  0.17304717358E+03  0.92225502404E+02 0.  0.
         -6    2    1    2    0  502  0.37721200519E+02 -0.11425461658E+03  0.16877226133E+03  0.26491447712E+03  0.16498059770E+03 0.  0.
        -24    2    5    5    0    0 -0.14510351440E+02 -0.81706990970E+02  0.44869719804E+02  0.12648972229E+03  0.84260165072E+02 0.  0.
          5    1    3    3  501    0 -0.64937988807E+02  0.54578879480E+02  0.25679218451E+02  0.88754204046E+02  0.47000000000E+01 0. -1.
        -11    1    4    4    0    0  0.96500780540E+01  0.74892092454E+00  0.10642054347E+03  0.10685980050E+03  0.00000000000E+00 0.  1.
         12    1    4    4    0    0  0.17566710234E+02  0.58926816171E+02  0.24491006155E+02  0.66187373078E+02  0.00000000000E+00 0. -1.
         -5    1    5    5    0  502  0.52231551959E+02 -0.32547625606E+02  0.12390254153E+03  0.13842475483E+03  0.47000000000E+01 0.  1.
         11    1    6    6    0    0  0.22298833284E+02  0.33624439723E+01 -0.19677130069E+01  0.22636605085E+02  0.00000000000E+00 0. -1.
        -12    1    6    6    0    0 -0.36809184723E+02 -0.85069434943E+02  0.46837432810E+02  0.10385311721E+03  0.00000000000E+00 0.  1.
</event>
<event>
12    1  0.9028446E-003  0.2391632E+03  0.7818608E-02  0.1120422E+00
         21   -1    0    0  503  502  0.00000000000E+00  0.00000000000E+00  0.56703347830E+03  0.56703347830E+03  0.00000000000E+00 0. -1.
         21   -1    0    0  501  503 -0.00000000000E+00 -0.00000000000E+00 -0.10070041684E+03  0.10070041684E+03  0.00000000000E+00 0. -1.
          6    2    1    2  501    0  0.14318529125E+03 -0.83834304134E+02  0.23122093102E+03  0.33235835838E+03  0.17166461854E+03 0.  0.
         24    2    3    3    0    0  0.60149381767E+02 -0.69254449289E+02  0.49305859112E+02  0.13180233673E+03  0.80787754957E+02 0.  0.
         -6    2    1    2    0  502 -0.14318529125E+03  0.83834304134E+02  0.23511213043E+03  0.33537553676E+03  0.17224638922E+03 0.  0.
        -24    2    5    5    0    0 -0.15434059095E+03  0.26395770690E+02  0.14486677922E+03  0.22771895660E+03  0.79698084975E+02 0.  0.
          5    1    3    3  501    0  0.83035909484E+02 -0.14579854846E+02  0.18191507191E+03  0.20055602165E+03  0.47000000000E+01 0. -1.
        -11    1    4    4    0    0  0.64432775285E+02 -0.55595649998E+02  0.50089339503E+01  0.85249916416E+02  0.00000000000E+00 0.  1.
         12    1    4    4    0    0 -0.42833935187E+01 -0.13658799291E+02  0.44296925162E+02  0.46552420312E+02  0.00000000000E+00 0. -1.
         -5    1    5    5    0  502  0.11155299698E+02  0.57438533444E+02  0.90245351219E+02  0.10765658016E+03  0.47000000000E+01 0.  1.
         13    1    6    6    0    0 -0.66050624235E+02  0.43516432558E+02  0.99140001953E+02  0.12682706672E+03  0.00000000000E+00 0. -1.
        -14    1    6    6    0    0 -0.88289966714E+02 -0.17120661867E+02  0.45726777262E+02  0.10089188988E+03  0.00000000000E+00 0.  1.
</event>
<event>
12    1  0.9028446E-003  0.1854497E+03  0.7818608E-02  0.1163492E+00
         21   -1    0    0  501  502  0.00000000000E+00  0.00000000000E+00  0.18695582182E+03  0.18695582182E+03  0.00000000000E+00 0. -1.
         21   -1    0    0  502  503 -0.00000000000E+00 -0.00000000000E+00 -0.30629636024E+03  0.30629636024E+03  0.00000000000E+00 0. -1.
          6    2    1    2  501    0  0.53441381504E+02  0.22911942431E+02  0.98127352264E+02  0.20981077164E+03  0.17609839372E+03 0.  0.
         24    2    3    3    0    0  0.55946282531E+02  0.72656525429E+02  0.10415461033E+03  0.15942013851E+03  0.78470634603E+02 0.  0.
         -6    2    1    2    0  503 -0.53441381504E+02 -0.22911942431E+02 -0.21746789069E+03  0.28344141042E+03  0.17223765934E+03 0.  0.
        -24    2    5    5    0    0 -0.88576663753E+02  0.14754017643E+02 -0.99796904621E+02  0.15490439797E+03  0.77281588623E+02 0.  0.
          5    1    3    3  501    0 -0.25049010266E+01 -0.49744582998E+02 -0.60272580625E+01  0.50390633123E+02  0.47000000000E+01 0. -1.
        -13    1    4    4    0    0 -0.59869935110E+00  0.35035421141E+02 -0.45177433636E-01  0.35040565299E+02  0.00000000000E+00 0.  1.
         14    1    4    4    0    0  0.56544981882E+02  0.37621104287E+02  0.10419978776E+03  0.12437957322E+03  0.00000000000E+00 0. -1.
         -5    1    5    5    0  503  0.35135282249E+02 -0.37665960073E+02 -0.11767098607E+03  0.12853701245E+03  0.47000000000E+01 0.  1.
         13    1    6    6    0    0 -0.22500974036E+02 -0.30687988449E+02 -0.27706364120E+02  0.47071106640E+02  0.00000000000E+00 0. -1.
        -14    1    6    6    0    0 -0.66075689717E+02  0.45442006091E+02 -0.72090540500E+02  0.10783329133E+03  0.00000000000E+00 0.  1.
</event>
<event>
12    1  0.9028446E-003  0.2369778E+03  0.7818608E-02  0.1122259E+00
         21   -1    0    0  503  502  0.00000000000E+00  0.00000000000E+00  0.17694425703E+03  0.17694425703E+03  0.00000000000E+00 0.  1.
         21   -1    0    0  501  503 -0.00000000000E+00 -0.00000000000E+00 -0.35088891169E+03  0.35088891169E+03  0.00000000000E+00 0. -1.
          6    2    1    2  501    0  0.16063296683E+03  0.20113414607E+02 -0.17217224554E+03  0.29084872933E+03  0.16953525220E+03 0.  0.
         24    2    3    3    0    0  0.38446930322E+02  0.70047267407E+01 -0.11393009306E+02  0.88430059198E+02  0.78503770997E+02 0.  0.
         -6    2    1    2    0  502 -0.16063296683E+03 -0.20113414607E+02 -0.17724091160E+01  0.23698443939E+03  0.17306352476E+03 0.  0.
        -24    2    5    5    0    0 -0.38327996777E+02 -0.42699765572E+02 -0.40231295032E+02  0.10671615908E+03  0.80482769538E+02 0.  0.
          5    1    3    3  501    0  0.12218603651E+03  0.13108687866E+02 -0.16077923623E+03  0.20241867013E+03  0.47000000000E+01 0. -1.
        -13    1    4    4    0    0  0.20624881771E+01  0.37034450463E+02 -0.17221846063E+02  0.40894942968E+02  0.00000000000E+00 0.  1.
         14    1    4    4    0    0  0.36384442145E+02 -0.30029723722E+02  0.58288367574E+01  0.47535116230E+02  0.00000000000E+00 0. -1.
         -5    1    5    5    0  502 -0.12230497005E+03  0.22586350965E+02  0.38458885916E+02  0.13026828031E+03  0.47000000000E+01 0.  1.
         11    1    6    6    0    0  0.18353010570E+02  0.99753765415E+01 -0.39698405192E+01  0.21262661355E+02  0.00000000000E+00 0. -1.
        -12    1    6    6    0    0 -0.56681007347E+02 -0.52675142114E+02 -0.36261454513E+02  0.85453497728E+02  0.00000000000E+00 0.  1.
</event>
<event>
12    1  0.9028446E-003  0.1979248E+03  0.7818608E-02  0.1151626E+00
         21   -1    0    0  501  502  0.00000000000E+00  0.00000000000E+00  0.17929947969E+03  0.17929947969E+03  0.00000000000E+00 0.  1.
         21   -1    0    0  502  503 -0.00000000000E+00 -0.00000000000E+00 -0.24658824296E+03  0.24658824296E+03  0.00000000000E+00 0. -1.
          6    2    1    2  501    0 -0.14432901748E+02 -0.94569820634E+02  0.39101323640E+02  0.20118111101E+03  0.17260697057E+03 0.  0.
         24    2    3    3    0    0 -0.72342804266E+02 -0.82545232014E+02  0.42529751656E+02  0.14175054934E+03  0.78976210379E+02 0.  0.
         -6    2    1    2    0  503  0.14432901748E+02  0.94569820634E+02 -0.10639008690E+03  0.22470661164E+03  0.17326987937E+03 0.  0.
        -24    2    5    5    0    0  0.31310468616E+01  0.29105998511E+02 -0.12815298939E+03  0.15464265618E+03  0.81450597398E+02 0.  0.
          5    1    3    3  501    0  0.57909902518E+02 -0.12024588620E+02 -0.34284280155E+01  0.59430561665E+02  0.47000000000E+01 0. -1.
        -11    1    4    4    0    0  0.13734123527E+02 -0.41392490064E+01  0.17552455681E+02  0.22668220747E+02  0.00000000000E+00 0.  1.
         12    1    4    4    0    0 -0.86076927793E+02 -0.78405983007E+02  0.24977295974E+02  0.11908232860E+03  0.00000000000E+00 0. -1.
         -5    1    5    5    0  503  0.11301854886E+02  0.65463822123E+02  0.21762902487E+02  0.70063955465E+02  0.47000000000E+01 0.  1.
         13    1    6    6    0    0 -0.16441994101E+02  0.31720233005E+02 -0.13329918562E+02  0.38133962301E+02  0.00000000000E+00 0. -1.
        -14    1    6    6    0    0  0.19573040963E+02 -0.26142344936E+01 -0.11482307083E+03  0.11650869388E+03  0.00000000000E+00 0.  1.
</event>
<event>
12    1  0.9028446E-003  0.1771892E+03  0.7818608E-02  0.1170875E+00
         21   -1    0    0  501  502  0.00000000000E+00  0.00000000000E+00  0.50783945353E+02  0.50783945353E+02  0.00000000000E+00 0.  1.
         21   -1    0    0  502  503 -0.00000000000E+00 -0.00000000000E+00 -0.62047235508E+03  0.62047235508E+03  0.00000000000E+00 0.  1.
          6    2    1    2  501    0 -0.29792405296E+02  0.33568074349E+02 -0.31891065085E+03  0.36419686857E+03  0.17006161480E+03 0.  0.
         24    2    3    3    0    0 -0.79140687642E+02  0.48541042268E+02 -0.19368865023E+03  0.22869010794E+03  0.78513635867E+02 0.  0.
         -6    2    1    2    0  503  0.29792405296E+02 -0.33568074349E+02 -0.25077775888E+03  0.30705943186E+03  0.17141063945E+03 0.  0.
        -24    2    5    5    0    0  0.82235404428E+02 -0.55867848215E+01 -0.19264205936E+03  0.22378236251E+03  0.78572952260E+02 0.  0.
          5    1    3    3  501    0  0.49348282346E+02 -0.14972967920E+02 -0.12522200062E+03  0.13550676064E+03  0.47000000000E+01 0. -1.
        -13    1    4    4    0    0  0.80165953964E+01  0.29881880815E+02 -0.66888319540E+02  0.73696946299E+02  0.00000000000E+00 0.  1.
         14    1    4    4    0    0 -0.87157283039E+02  0.18659161453E+02 -0.12680033069E+03  0.15499316164E+03  0.00000000000E+00 0. -1.
         -5    1    5    5    0  503 -0.52442999132E+02 -0.27981289527E+02 -0.58135699515E+02  0.83277069351E+02  0.47000000000E+01 0.  1.
         13    1    6    6    0    0  0.84661824616E+02 -0.11326802527E+02 -0.10249838016E+03  0.13342353217E+03  0.00000000000E+00 0. -1.
        -14    1    6    6    0    0 -0.24264201879E+01  0.57400177058E+01 -0.90143679207E+02  0.90358830333E+02  0.00000000000E+00 0.  1.
</event>
<event>
12    1  0.9028446E-003  0.1796264E+03  0.7818608E-02  0.1168684E+00
         21   -1    0    0  503  502  0.00000000000E+00  0.00000000000E+00  0.63709753395E+03  0.63709753395E+03  0.00000000000E+00 0. -1.
         21   -1    0    0  501  503 -0.00000000000E+00 -0.00000000000E+00 -0.56239094886E+02  0.56239094886E+02  0.00000000000E+00 0.  1.
          6    2    1    2  501    0  0.31458136491E+02 -0.34502703109E+02  0.17386312561E+03  0.24846494439E+03  0.17124950006E+03 0.  0.
         24    2    3    3    0    0  0.19692863519E+02 -0.49208524067E+02  0.25509253893E+02  0.98846616394E+02  0.79439560823E+02 0.  0.
         -6    2    1    2    0  502 -0.31458136491E+02  0.34502703109E+02  0.40699531345E+03  0.44487168444E+03  0.17345195178E+03 0.  0.
        -24    2    5    5    0    0 -0.30417632660E+02 -0.44781823397E+02  0.26630299712E+03  0.28330579489E+03  0.80088969674E+02 0.  0.
          5    1    3    3  501    0  0.11765272971E+02  0.14705820958E+02  0.14835387172E+03  0.14961832800E+03  0.47000000000E+01 0. -1.
        -13    1    4    4    0    0 -0.21267672553E+02 -0.13895585064E+02 -0.16563489305E+02  0.30327386271E+02  0.00000000000E+00 0.  1.
         14    1    4    4    0    0  0.40960536072E+02 -0.35312939003E+02  0.42072743198E+02  0.68519230122E+02  0.00000000000E+00 0. -1.
         -5    1    5    5    0  502 -0.10405038306E+01  0.79284526506E+02  0.14069231633E+03  0.16156588955E+03  0.47000000000E+01 0.  1.
         11    1    6    6    0    0  0.33221995796E+01 -0.52397259838E+02  0.21579154873E+03  0.22208670008E+03  0.00000000000E+00 0. -1.
        -12    1    6    6    0    0 -0.33739832240E+02  0.76154364412E+01  0.50511448385E+02  0.61219094812E+02  0.00000000000E+00 0.  1.
</event>
<event>
12    1  0.9028446E-003  0.2162830E+03  0.7818608E-02  0.1136846E+00
         21   -1    0    0  501  502  0.00000000000E+00  0.00000000000E+00  0.27082925051E+03  0.27082925051E+03  0.00000000000E+00 0.  1.
         21   -1    0    0  502  503 -0.00000000000E+00 -0.00000000000E+00 -0.25366386061E+03  0.25366386061E+03  0.00000000000E+00 0.  1.
          6    2    1    2  501    0 -0.53384670145E+02 -0.12068290894E+03  0.15734753955E+03  0.26746320568E+03  0.17135936121E+03 0.  0.
         24    2    3    3    0    0 -0.60738806495E+02 -0.50853528801E+02  0.21369587897E+02  0.11435435882E+03  0.79655358191E+02 0.  0.
         -6    2    1    2    0  503  0.53384670145E+02  0.12068290894E+03 -0.14018214965E+03  0.25702990545E+03  0.17029107346E+03 0.  0.
        -24    2    5    5    0    0  0.56935212128E+02  0.13917056759E+02 -0.10613830428E+03  0.14481303084E+03  0.79184413974E+02 0.  0.
          5    1    3    3  501    0  0.73541363505E+01 -0.69829380136E+02  0.13597795165E+03  0.15310884686E+03  0.47000000000E+01 0. -1.
        -11    1    4    4    0    0  0.17740317449E+02 -0.90548574430E+01  0.15511887972E+02  0.25245355512E+02  0.00000000000E+00 0.  1.
         12    1    4    4    0    0 -0.78479123944E+02 -0.41798671358E+02  0.58576999247E+01  0.89109003309E+02  0.00000000000E+00 0. -1.
         -5    1    5    5    0  503 -0.35505419832E+01  0.10676585218E+03 -0.34043845364E+02  0.11221687461E+03  0.47000000000E+01 0.  1.
         13    1    6    6    0    0 -0.15854673564E+02 -0.10728399302E+02 -0.35979262527E+02  0.40755080142E+02  0.00000000000E+00 0. -1.
        -14    1    6    6    0    0  0.72789885692E+02  0.24645456061E+02 -0.70159041756E+02  0.10405795070E+03  0.00000000000E+00 0.  1.
</event>
<event>
12    1  0.9028446E-003  0.1964966E+03  0.7818608E-02  0.1153222E+00
         21   -1    0    0  503  502  0.00000000000E+00  0.00000000000E+00  0.69438989751E+02  0.69438989751E+02  0.00000000000E+00 0. -1.
         21   -1    0    0  501  503 -0.00000000000E+00 -0.00000000000E+00 -0.61472576326E+03  0.61472576326E+03  0.00000000000E+00 0.  1.
          6    2    1    2  501    0  0.21783287085E+01  0.93835410849E+02 -0.38254162573E+03  0.42902385442E+03  0.17003982709E+03 0.  0.
         24    2    3    3    0    0  0.19727272534E+02  0.10758094482E+03 -0.18181837837E+03  0.22701193109E+03  0.80707305587E+02 0.  0.
         -6    2    1    2    0  502 -0.21783287085E+01 -0.93835410849E+02 -0.16274514778E+03  0.25514089859E+03  0.17262985132E+03 0.  0.
        -24    2    5    5    0    0 -0.58112194820E+02 -0.10073423276E+03 -0.92968257169E+02  0.16532388693E+03  0.71864302057E+02 0.  0.
          5    1    3    3  501    0 -0.17548943826E+02 -0.13745533973E+02 -0.20072324736E+03  0.20201192332E+03  0.47000000000E+01 0. -1.
        -13    1    4    4    0    0  0.47461610335E+02  0.87615498709E+02 -0.11655739996E+03  0.15334506042E+03  0.00000000000E+00 0.  1.
         14    1    4    4    0    0 -0.27734337801E+02  0.19965446113E+02 -0.65260978413E+02  0.73666870676E+02  0.00000000000E+00 0. -1.
         -5    1    5    5    0  502  0.55933866112E+02  0.68988219138E+01 -0.69776890609E+02  0.89817011669E+02  0.47000000000E+01 0.  1.
         13    1    6    6    0    0 -0.17952788492E+02 -0.91197328769E+02 -0.78255590491E+02  0.12150387991E+03  0.00000000000E+00 0. -1.
        -14    1    6    6    0    0 -0.40159406328E+02 -0.95369039936E+01 -0.14712666678E+02  0.43820007019E+02  0.00000000000E+00 0.  1.
</event>
<event>
12    1  0.9028446E-003  0.2522180E+03  0.7818608E-02  0.1112018E+00
         21   -1    0    0  503  502  0.00000000000E+00  0.00000000000E+00  0.12874644666E+03  0.12874644666E+03  0.00000000000E+00 0.  1.
         21   -1    0    0  501  503 -0.00000000000E+00 -0.00000000000E+00 -0.51201398248E+03  0.51201398248E+03  0.00000000000E+00 0. -1.
          6    2    1    2  501    0  0.12786335291E+02 -0.18250566416E+03 -0.25350924061E+03  0.35712130047E+03  0.17261772895E+03 0.  0.
         24    2    3    3    0    0 -0.34189134543E+02 -0.45645610255E+02 -0.55414128337E+02  0.11176210942E+03  0.78534227104E+02 0.  0.
         -6    2    1    2    0  502 -0.12786335291E+02  0.18250566416E+03 -0.12975829522E+03  0.28363912868E+03  0.17361489659E+03 0.  0.
        -24    2    5    5    0    0 -0.78933738914E+01  0.12893037528E+03 -0.16088697068E+03  0.22130665651E+03  0.80041688264E+02 0.  0.
          5    1    3    3  501    0  0.46975469834E+02 -0.13686005391E+03 -0.19809511228E+03  0.24535919104E+03  0.47000000000E+01 0. -1.
        -13    1    4    4    0    0 -0.38708613936E+02  0.10973594929E+02 -0.24193171186E+02  0.46947695477E+02  0.00000000000E+00 0.  1.
         14    1    4    4    0    0  0.45194793933E+01 -0.56619205185E+02 -0.31220957151E+02  0.64814413946E+02  0.00000000000E+00 0. -1.
         -5    1    5    5    0  502 -0.48929613993E+01  0.53575288881E+02  0.31128675465E+02  0.62332472165E+02  0.47000000000E+01 0.  1.
         11    1    6    6    0    0  0.35284341860E+02  0.59541734798E+02 -0.61085522518E+02  0.92312751148E+02  0.00000000000E+00 0. -1.
        -12    1    6    6    0    0 -0.43177715751E+02  0.69388640482E+02 -0.99801448162E+02  0.12899390536E+03  0.00000000000E+00 0.  1.
</event>
<event>
12    1  0.9028446E-003  0.2086377E+03  0.7818608E-02  0.1142804E+00
         21   -1    0    0  501  502  0.00000000000E+00  0.00000000000E+00  0.13135852899E+03  0.13135852899E+03  0.00000000000E+00 0. -1.
         21   -1    0    0  502  503 -0.00000000000E+00 -0.00000000000E+00 -0.33130208079E+03  0.33130208079E+03  0.00000000000E+00 0.  1.
          6    2    1    2  501    0 -0.10813500970E+03  0.42831407159E+02 -0.86187177691E+02  0.22502603835E+03  0.17228110337E+03 0.  0.
         24    2    3    3    0    0 -0.18332561399E+02 -0.33150740462E+02 -0.54978272200E+02  0.10323173529E+03  0.78734530895E+02 0.  0.
         -6    2    1    2    0  503  0.10813500970E+03 -0.42831407159E+02 -0.11375637411E+03  0.23763457143E+03  0.17321075927E+03 0.  0.
        -24    2    5    5    0    0  0.70005169346E+02  0.35781208762E+02 -0.26972981934E+02  0.11439790779E+03  0.78602295875E+02 0.  0.
          5    1    3    3  501    0 -0.89802448302E+02  0.75982147622E+02 -0.31208905491E+02  0.12179430307E+03  0.47000000000E+01 0. -1.
        -13    1    4    4    0    0  0.13625114252E+02  0.17713107811E+02 -0.31752011629E+02  0.38827672724E+02  0.00000000000E+00 0.  1.
         14    1    4    4    0    0 -0.31957675651E+02 -0.50863848274E+02 -0.23226260572E+02  0.64404062561E+02  0.00000000000E+00 0. -1.
         -5    1    5    5    0  503  0.38129840355E+02 -0.78612615921E+02 -0.86783392173E+02  0.12323666364E+03  0.47000000000E+01 0.  1.
         13    1    6    6    0    0  0.88265902444E+01  0.30174704880E+02  0.19825982612E+02  0.37168415307E+02  0.00000000000E+00 0. -1.
        -14    1    6    6    0    0  0.61178579101E+02  0.56065038823E+01 -0.46798964546E+02  0.77229492483E+02  0.00000000000E+00 0.  1.
</event>
<event>
12    1  0.9028446E-003  0.2229923E+03  0.7818608E-02  0.1133169E+00
         21   -1    0    0  503  502  0.00000000000E+00  0.00000000000E+00  0.15162151246E+03  0.15162151246E+03  0.00000000000E+00 0.  1.
         21   -1    0    0  501  503 -0.00000000000E+00 -0.00000000000E+00 -0.31739740289E+03  0.31739740289E+03  0.00000000000E+00 0.  1.
          6    2    1    2  501    0  0.12973711200E+03  0.52662441738E+02 -0.95307200662E+02  0.23515703084E+03  0.16312668591E+03 0.  0.
         24    2    3    3    0    0  0.12083769338E+03  0.14429509563E+02 -0.15344068067E+02  0.14595417591E+03  0.79102605214E+02 0.  0.
         -6    2    1    2    0  502 -0.12973711200E+03 -0.52662441738E+02 -0.70468689765E+02  0.23386188450E+03  0.17355256779E+03 0.  0.
        -24    2    5    5    0    0 -0.14861447680E+03 -0.57616100868E+02 -0.94866907607E+02  0.20226668432E+03  0.80661041598E+02 0.  0.
          5    1    3    3  501    0  0.88994186192E+01  0.38232932175E+02 -0.79963132595E+02  0.89202854937E+02  0.47000000000E+01 0. -1.
        -11    1    4    4    0    0  0.88670113567E+02  0.35879199623E+02 -0.35896493937E+02  0.10216782411E+03  0.00000000000E+00 0.  1.
         12    1    4    4    0    0  0.32167579815E+02 -0.21449690060E+02  0.20552425871E+02  0.43786351800E+02  0.00000000000E+00 0. -1.
         -5    1    5    5    0  502  0.18877364803E+02  0.49536591294E+01  0.24398217842E+02  0.31595200182E+02  0.47000000000E+01 0.  1.
         11    1    6    6    0    0 -0.38745229960E+01 -0.12389368885E+02  0.11254506964E+02  0.17180579641E+02  0.00000000000E+00 0. -1.
        -12    1    6    6    0    0 -0.14473995381E+03 -0.45226731983E+02 -0.10612141457E+03  0.18508610468E+03  0.00000000000E+00 0.  1.
</event>
<event>
12    1  0.9028446E-003  0.2728308E+03  0.7818608E-02  0.1099813E+00
         21   -1    0    0  503  502  0.00000000000E+00  0.00000000000E+00  0.15839414238E+03  0.15839414238E+03  0.00000000000E+00 0.  1.
         21   -1    0    0  501  503 -0.00000000000E+00 -0.00000000000E+00 -0.64234501927E+03  0.64234501927E+03  0.00000000000E+00 0.  1.
          6    2    1    2  501    0 -0.17455045790E+03 -0.11878847356E+03 -0.45010564560E+03  0.52581709884E+03  0.17120153453E+03 0.  0.
         24    2    3    3    0    0 -0.17228100986E+03 -0.12454009005E+03 -0.46017327824E+03  0.51310180437E+03  0.79517515382E+02 0.  0.
         -6    2    1    2    0  502  0.17455045790E+03  0.11878847356E+03 -0.33845231283E+02  0.27492206281E+03  0.17279489904E+03 0.  0.
        -24    2    5    5    0    0  0.19676903540E+03  0.10820674828E+03 -0.51412647422E+02  0.24432235357E+03  0.81384264287E+02 0.  0.
          5    1    3    3  501    0 -0.22694480436E+01  0.57516164899E+01  0.10067632637E+02  0.12715294475E+02  0.47000000000E+01 0. -1.
        -11    1    4    4    0    0 -0.50715024024E+02 -0.10259784008E+02 -0.17722099396E+03  0.18462003556E+03  0.00000000000E+00 0.  1.
         12    1    4    4    0    0 -0.12156598584E+03 -0.11428030604E+03 -0.28295228428E+03  0.32848176881E+03  0.00000000000E+00 0. -1.
         -5    1    5    5    0  502 -0.22218577494E+02  0.10581725281E+02  0.17567416139E+02  0.30599709241E+02  0.47000000000E+01 0.  1.
         11    1    6    6    0    0  0.44200080217E+02  0.34758095496E+01 -0.38664402998E+02  0.58827411998E+02  0.00000000000E+00 0. -1.
        -12    1    6    6    0    0  0.15256895518E+03  0.10473093873E+03 -0.12748244424E+02  0.18549494157E+03  0.00000000000E+00 0.  1.
</event>
<event>
12    1  0.9028446E-003  0.2528912E+03  0.7818608E-02  0.1111608E+00
         21   -1    0    0  503  502  0.00000000000E+00  0.00000000000E+00  0.13527363818E+04  0.13527363818E+04  0.00000000000E+00 0. -1.
         21   -1    0    0  501  503 -0.00000000000E+00 -0.00000000000E+00 -0.47253724439E+02  0.47253724439E+02  0.00000000000E+00 0. -1.
          6    2    1    2  501    0 -0.14064761816E+03 -0.12053978131E+03  0.68649204921E+03  0.73133223137E+03  0.17106696827E+03 0.  0.
         24    2    3    3    0    0 -0.14444007005E+03 -0.13849067521E+03  0.67647965915E+03  0.70990899077E+03  0.79394237727E+02 0.  0.
         -6    2    1    2    0  502  0.14064761816E+03  0.12053978131E+03  0.61899060813E+03  0.66865787485E+03  0.17216965259E+03 0.  0.
        -24    2    5    5    0    0  0.16164197333E+03  0.13335298948E+03  0.53323605303E+03  0.57932213187E+03  0.85803827884E+02 0.  0.
          5    1    3    3  501    0  0.37924518867E+01  0.17950893894E+02  0.10012390066E+02  0.21423240598E+02  0.47000000000E+01 0. -1.
        -13    1    4    4    0    0 -0.69394013585E+01 -0.46361239092E+01  0.18899698377E+01  0.85569224668E+01  0.00000000000E+00 0.  1.
         14    1    4    4    0    0 -0.13750066869E+03 -0.13385455130E+03  0.67458968931E+03  0.70135206831E+03  0.00000000000E+00 0. -1.
         -5    1    5    5    0  502 -0.20994355175E+02 -0.12813208171E+02  0.85754555106E+02  0.89335742983E+02  0.47000000000E+01 0.  1.
         13    1    6    6    0    0  0.73585272453E+02  0.31363764590E+02  0.11629342402E+03  0.14114757710E+03  0.00000000000E+00 0. -1.
        -14    1    6    6    0    0  0.88056700882E+02  0.10198922489E+03  0.41694262900E+03  0.43817455477E+03  0.00000000000E+00 0.  1.
</event>
<event>
12    1  0.9028446E-003  0.1827327E+03  0.7818608E-02  0.1165404E+00
         21   -1    0    0  501  502  0.00000000000E+00  0.00000000000E+00  0.65140706458E+03  0.65140706458E+03  0.00000000000E+00 0. -1.
         21   -1    0    0  502  503 -0.00000000000E+00 -0.00000000000E+00 -0.51472091947E+02  0.51472091947E+02  0.00000000000E+00 0.  1.
          6    2    1    2  501    0  0.47244796435E+02  0.40596749268E+02  0.33283435873E+03  0.37925288851E+03  0.17080361896E+03 0.  0.
         24    2    3    3    0    0 -0.15917762095E+02  0.28514636813E+02  0.28875129687E+03  0.30114467777E+03  0.79021173400E+02 0.  0.
         -6    2    1    2    0  503 -0.47244796435E+02 -0.40596749268E+02  0.26710061390E+03  0.32362626801E+03  0.17178782425E+03 0.  0.
        -24    2    5    5    0    0 -0.61885513020E+02 -0.83041490255E+02  0.22829279613E+03  0.26409439975E+03  0.83081558637E+02 0.  0.
          5    1    3    3  501    0  0.63162558530E+02  0.12082112455E+02  0.44083061861E+02  0.78108210736E+02  0.47000000000E+01 0. -1.
        -11    1    4    4    0    0 -0.11325372967E+02 -0.96195525583E+01  0.63767993081E+01  0.16169830973E+02  0.00000000000E+00 0.  1.
         12    1    4    4    0    0 -0.45923891282E+01  0.38134189372E+02  0.28237449756E+03  0.28497484680E+03  0.00000000000E+00 0. -1.
         -5    1    5    5    0  503  0.14640716585E+02  0.42444740987E+02  0.38807817769E+02  0.59531868268E+02  0.47000000000E+01 0.  1.
         13    1    6    6    0    0 -0.14681409597E+01 -0.49102221651E+02  0.39660081512E+02  0.63135613361E+02  0.00000000000E+00 0. -1.
        -14    1    6    6    0    0 -0.60417372060E+02 -0.33939268604E+02  0.18863271462E+03  0.20095878639E+03  0.00000000000E+00 0.  1.
</event>
<event>
12    1  0.9028446E-003  0.2423872E+03  0.7818608E-02  0.1118394E+00
         21   -1    0    0  503  502  0.00000000000E+00  0.00000000000E+00  0.97343422139E+02  0.97343422139E+02  0.00000000000E+00 0.  1.
         21   -1    0    0  501  503 -0.00000000000E+00 -0.00000000000E+00 -0.74384007145E+03  0.74384007145E+03  0.00000000000E+00 0.  1.
          6    2    1    2  501    0  0.21386657399E+02  0.16880757487E+03 -0.50827235189E+03  0.56310951867E+03  0.17262143514E+03 0.  0.
         24    2    3    3    0    0  0.29991428362E+02  0.12656158933E+03 -0.23361749634E+03  0.28505170983E+03  0.98792818632E+02 0.  0.
         -6    2    1    2    0  502 -0.21386657399E+02 -0.16880757487E+03 -0.13822429742E+03  0.27807397492E+03  0.17107247786E+03 0.  0.
        -24    2    5    5    0    0  0.16040535818E+02 -0.14866577198E+03 -0.15762193200E+03  0.23111819527E+03  0.78817105961E+02 0.  0.
          5    1    3    3  501    0 -0.86047709627E+01  0.42245985546E+02 -0.27465485555E+03  0.27805780884E+03  0.47000000000E+01 0. -1.
        -11    1    4    4    0    0 -0.35008523770E+02  0.63754767390E+02 -0.96993675670E+02  0.12123547427E+03  0.00000000000E+00 0.  1.
         12    1    4    4    0    0  0.64999952131E+02  0.62806821936E+02 -0.13662382067E+03  0.16381623556E+03  0.00000000000E+00 0. -1.
         -5    1    5    5    0  502 -0.37427193217E+02 -0.20141802896E+02  0.19397634572E+02  0.46955779655E+02  0.47000000000E+01 0.  1.
         13    1    6    6    0    0  0.36566733748E+02 -0.30602715560E+02 -0.31522323908E+02  0.57160380695E+02  0.00000000000E+00 0. -1.
        -14    1    6    6    0    0 -0.20526197930E+02 -0.11806305642E+03 -0.12609960809E+03  0.17395781457E+03  0.00000000000E+00 0.  1.
</event>
<event>
12    1  0.9028446E-003  0.1794574E+03  0.7818608E-02  0.1168427E+00
         21   -1    0    0  503  502  0.00000000000E+00  0.00000000000E+00  0.24782293779E+02  0.24782293779E+02  0.00000000000E+00 0.  1.
         21   -1    0    0  501  503 -0.00000000000E+00 -0.00000000000E+00 -0.12974087527E+04  0.12974087527E+04  0.00000000000E+00 0.  1.
          6    2    1    2  501    0 -0.48416522853E+02  0.99211985534E+01 -0.65204601680E+03  0.67618405837E+03  0.17209963074E+03 0.  0.
         24    2    3    3    0    0 -0.59204398709E+02 -0.49210549635E+02 -0.32112060620E+03  0.33981126029E+03  0.80164891751E+02 0.  0.
         -6    2    1    2    0  502  0.48416522853E+02 -0.99211985534E+01 -0.62058044212E+03  0.64600698811E+03  0.17251769091E+03 0.  0.
        -24    2    5    5    0    0  0.99500251222E+01 -0.71133273321E+02 -0.37421786464E+03  0.38921290888E+03  0.79301529924E+02 0.  0.
          5    1    3    3  501    0  0.10787875857E+02  0.59131748188E+02 -0.33092541060E+03  0.33637279808E+03  0.47000000000E+01 0. -1.
        -11    1    4    4    0    0 -0.37168093331E+02  0.14599211370E+02 -0.16419629797E+03  0.16898233162E+03  0.00000000000E+00 0.  1.
         12    1    4    4    0    0 -0.22036305378E+02 -0.63809761005E+02 -0.15692430823E+03  0.17082892867E+03  0.00000000000E+00 0. -1.
         -5    1    5    5    0  502  0.38466497730E+02  0.61212074768E+02 -0.24636257748E+03  0.25679407923E+03  0.47000000000E+01 0.  1.
         13    1    6    6    0    0  0.85141219254E+01 -0.28510796545E+02 -0.31409182182E+03  0.31549806391E+03  0.00000000000E+00 0. -1.
        -14    1    6    6    0    0  0.14359031968E+01 -0.42622476776E+02 -0.60126042815E+02  0.73714844971E+02  0.00000000000E+00 0.  1.
</event>
<event>
12    1  0.9028446E-003  0.2559971E+03  0.7818608E-02  0.1110259E+00
         21   -1    0    0  501  502  0.00000000000E+00  0.00000000000E+00  0.12081501906E+03  0.12081501906E+03  0.00000000000E+00 0. -1.
         21   -1    0    0  502  503 -0.00000000000E+00 -0.00000000000E+00 -0.53538874641E+03  0.53538874641E+03  0.00000000000E+00 0.  1.
          6    2    1    2  501    0  0.10189283102E+02 -0.18254678318E+03 -0.23069080087E+03  0.34460521427E+03  0.17918526322E+03 0.  0.
         24    2    3    3    0    0 -0.62167202124E+02 -0.13472262186E+03 -0.14199955061E+03  0.22046481298E+03  0.80161808405E+02 0.  0.
         -6    2    1    2    0  503 -0.10189283102E+02  0.18254678318E+03 -0.18388292647E+03  0.31159855120E+03  0.17278187673E+03 0.  0.
        -24    2    5    5    0    0 -0.62997832799E+02  0.97116560135E+02 -0.14654564195E+03  0.20434544520E+03  0.82952291184E+02 0.  0.
          5    1    3    3  501    0  0.72356485226E+02 -0.47824161317E+02 -0.88691250264E+02  0.12414040129E+03  0.47000000000E+01 0. -1.
        -11    1    4    4    0    0 -0.53435170470E+02 -0.25794102286E+02 -0.47954249462E+02  0.76290649476E+02  0.00000000000E+00 0.  1.
         12    1    4    4    0    0 -0.87320316542E+01 -0.10892851957E+03 -0.94045301146E+02  0.14417416350E+03  0.00000000000E+00 0. -1.
         -5    1    5    5    0  503  0.52808549697E+02  0.85430223042E+02 -0.37337284523E+02  0.10725310600E+03  0.47000000000E+01 0.  1.
         11    1    6    6    0    0 -0.51452098566E+01 -0.27971722809E+01  0.89367961931E+01  0.10684740682E+02  0.00000000000E+00 0. -1.
        -12    1    6    6    0    0 -0.57852622943E+02  0.99913732416E+02 -0.15548243814E+03  0.19366070452E+03  0.00000000000E+00 0.  1.
</event>
<event>
12    1  0.9028446E-003  0.1801074E+03  0.7818608E-02  0.1169671E+00
         21   -1    0    0  503  502  0.00000000000E+00  0.00000000000E+00  0.42745894377E+02  0.42745894377E+02  0.00000000000E+00 0.  1.
         21   -1    0    0  501  503 -0.00000000000E+00 -0.00000000000E+00 -0.99186507557E+03  0.99186507557E+03  0.00000000000E+00 0.  1.
          6    2    1    2  501    0  0.15663222327E+01  0.53973824445E+02 -0.75033185092E+03  0.77164537082E+03  0.17182277122E+03 0.  0.
         24    2    3    3    0    0  0.51774647264E+02 -0.95036980485E+01 -0.35539664100E+03  0.36847520600E+03  0.81830743781E+02 0.  0.
         -6    2    1    2    0  502 -0.15663222327E+01 -0.53973824445E+02 -0.19878733028E+03  0.26296559913E+03  0.16345909751E+03 0.  0.
        -24    2    5    5    0    0  0.10222528271E+02  0.21713923863E+01 -0.18735014006E+03  0.20427861855E+03  0.80749390027E+02 0.  0.
          5    1    3    3  501    0 -0.50208325031E+02  0.63477522493E+02 -0.39493520992E+03  0.40317016482E+03  0.47000000000E+01 0. -1.
        -11    1    4    4    0    0  0.36134692456E+02  0.27400318207E+02 -0.27419918894E+03  0.27792389003E+03  0.00000000000E+00 0.  1.
         12    1    4    4    0    0  0.15639954808E+02 -0.36904016256E+02 -0.81197452060E+02  0.90551315966E+02  0.00000000000E+00 0. -1.
         -5    1    5    5    0  502 -0.11788850503E+02 -0.56145216831E+02 -0.11437190220E+02  0.58686980578E+02  0.47000000000E+01 0.  1.
         11    1    6    6    0    0 -0.35215426970E+02 -0.43358786655E+01 -0.84865280201E+02  0.91983922096E+02  0.00000000000E+00 0. -1.
        -12    1    6    6    0    0  0.45437955241E+02  0.65072710517E+01 -0.10248485986E+03  0.11229469646E+03  0.00000000000E+00 0.  1.
</event>
<event>
12    1  0.9028446E-003  0.2679106E+03  0.7818608E-02  0.1102588E+00
         21   -1    0    0  503  502  0.00000000000E+00  0.00000000000E+00  0.62789926048E+03  0.62789926048E+03  0.00000000000E+00 0. -1.
         21   -1    0    0  501  503 -0.00000000000E+00 -0.00000000000E+00 -0.11923796128E+03  0.11923796128E+03  0.00000000000E+00 0.  1.
          6    2    1    2  501    0 -0.10550697560E+03  0.17622389020E+03  0.17567065578E+03  0.31975116521E+03  0.17086265528E+03 0.  0.
         24    2    3    3    0    0 -0.34628067937E+02  0.46710560405E+02  0.13881085989E+03  0.16750709570E+03  0.73547214385E+02 0.  0.
         -6    2    1    2    0  502  0.10550697560E+03 -0.17622389020E+03  0.33299064342E+03  0.42738605655E+03  0.17201596249E+03 0.  0.
        -24    2    5    5    0    0 -0.29282708269E+01 -0.11388323746E+03  0.20832508211E+03  0.25072776541E+03  0.80542572391E+02 0.  0.
          5    1    3    3  501    0 -0.70878907664E+02  0.12951332980E+03  0.36859795893E+02  0.15224406951E+03  0.47000000000E+01 0. -1.
        -13    1    4    4    0    0 -0.12090579593E+02 -0.19954589922E+02  0.37026333717E+02  0.43764336650E+02  0.00000000000E+00 0.  1.
         14    1    4    4    0    0 -0.22537488344E+02  0.66665150327E+02  0.10178452617E+03  0.12374275905E+03  0.00000000000E+00 0. -1.
         -5    1    5    5    0  502  0.10843524643E+03 -0.62340652739E+02  0.12466556131E+03  0.17665829114E+03  0.47000000000E+01 0.  1.
         11    1    6    6    0    0 -0.26708664370E+02 -0.20084991521E+02  0.19863990327E+02  0.38875927622E+02  0.00000000000E+00 0. -1.
        -12    1    6    6    0    0  0.23780393543E+02 -0.93798245943E+02  0.18846109178E+03  0.21185183779E+03  0.00000000000E+00 0.  1.
</event>
<event>
12    1  0.9028446E-003  0.1875596E+03  0.7818608E-02  0.1161519E+00
         21   -1    0    0  501  502  0.00000000000E+00  0.00000000000E+00  0.11055995282E+03  0.11055995282E+03  0.00000000000E+00 0. -1.
         21   -1    0    0  502  503 -0.00000000000E+00 -0.00000000000E+00 -0.32911510634E+03  0.32911510634E+03  0.00000000000E+00 0. -1.
          6    2    1    2  501    0  0.24190589100E+02  0.60884848748E+02 -0.60269857108E+02  0.19700525672E+03  0.17574545823E+03 0.  0.
         24    2    3    3    0    0  0.56346581397E+01 -0.55531593353E+01 -0.89397395899E+02  0.12197969435E+03  0.82610922341E+02 0.  0.
         -6    2    1    2    0  503 -0.24190589100E+02 -0.60884848748E+02 -0.15828529641E+03  0.24266980244E+03  0.17187858665E+03 0.  0.
        -24    2    5    5    0    0 -0.59658465893E+02  0.10591750400E+02 -0.11406434652E+03  0.15132180345E+03  0.78843486254E+02 0.  0.
          5    1    3    3  501    0  0.18555930960E+02  0.66438008084E+02  0.29127538791E+02  0.75025562363E+02  0.47000000000E+01 0. -1.
        -13    1    4    4    0    0 -0.32646167078E+02  0.18525490581E+02 -0.45075193114E+02  0.58657813294E+02  0.00000000000E+00 0.  1.
         14    1    4    4    0    0  0.38280825218E+02 -0.24078649916E+02 -0.44322202785E+02  0.63321881059E+02  0.00000000000E+00 0. -1.
         -5    1    5    5    0  503  0.35467876793E+02 -0.71476599149E+02 -0.44220949891E+02  0.91347998989E+02  0.47000000000E+01 0.  1.
         11    1    6    6    0    0 -0.38440435922E+02 -0.10898044957E+02 -0.11434091939E+03  0.12112093272E+03  0.00000000000E+00 0. -1.
        -12    1    6    6    0    0 -0.21218029971E+02  0.21489795357E+02  0.27657286752E+00  0.30200870730E+02  0.00000000000E+00 0.  1.
</event>
<event>
12    1  0.9028446E-003  0.3365091E+03  0.7818608E-02  0.1068306E+00
         21   -1    0    0  503  502  0.00000000000E+00  0.00000000000E+00  0.46028983238E+03  0.46028983238E+03  0.00000000000E+00 0.  1.
         21   -1    0    0  501  503 -0.00000000000E+00 -0.00000000000E+00 -0.25136729607E+03  0.25136729607E+03  0.00000000000E+00 0.  1.
          6    2    1    2  501    0  0.45511634176E+02  0.28538245043E+03  0.52090304128E+02  0.34039617790E+03  0.17216766910E+03 0.  0.
         24    2    3    3    0    0  0.24752094059E+02  0.26019228025E+03  0.92483213145E+02  0.28825041797E+03  0.78882633604E+02 0.  0.
         -6    2    1    2    0  502 -0.45511634176E+02 -0.28538245043E+03  0.15683223218E+03  0.37126095055E+03  0.17240618461E+03 0.  0.
        -24    2    5    5    0    0 -0.82708335497E+02 -0.12924211049E+03  0.59440458035E+02  0.18345613693E+03  0.81109766623E+02 0.  0.
          5    1    3    3  501    0  0.20759540117E+02  0.25190170180E+02 -0.40392909017E+02  0.52145759928E+02  0.47000000000E+01 0. -1.
        -13    1    4    4    0    0  0.15625745875E+02  0.17739042585E+03  0.22579376161E+02  0.17950307893E+03  0.00000000000E+00 0.  1.
         14    1    4    4    0    0  0.91263481831E+01  0.82801854401E+02  0.69903836984E+02  0.10874733904E+03  0.00000000000E+00 0. -1.
         -5    1    5    5    0  502  0.37196701321E+02 -0.15614033994E+03  0.97391774142E+02  0.18780481361E+03  0.47000000000E+01 0.  1.
         13    1    6    6    0    0 -0.12884924619E+02 -0.77258916939E+02  0.49594644368E+00  0.78327565338E+02  0.00000000000E+00 0. -1.
        -14    1    6    6    0    0 -0.69823410878E+02 -0.51983193553E+02  0.58944511592E+02  0.10512857159E+03  0.00000000000E+00 0.  1.
</event>
<event>
12    1  0.9028446E-003  0.1752706E+03  0.7818608E-02  0.1173119E+00
         21   -1    0    0  501  502  0.00000000000E+00  0.00000000000E+00  0.29300492667E+03  0.29300492667E+03  0.00000000000E+00 0. -1.
         21   -1    0    0  502  503 -0.00000000000E+00 -0.00000000000E+00 -0.11944606998E+03  0.11944606998E+03  0.00000000000E+00 0. -1.
          6    2    1    2  501    0  0.13465356020E+02 -0.30093015585E+01  0.16206221368E+03  0.23680378654E+03  0.17210897859E+03 0.  0.
         24    2    3    3    0    0  0.33995231562E+02 -0.16034244110E+02  0.17557776732E+02  0.90192916495E+02  0.80085666064E+02 0.  0.
         -6    2    1    2    0  503 -0.13465356020E+02  0.30093015585E+01  0.11496643007E+02  0.17564721011E+03  0.17472663767E+03 0.  0.
        -24    2    5    5    0    0 -0.83769173043E+01 -0.15147861169E+02 -0.59817444052E+02  0.10173263929E+03  0.80447329611E+02 0.  0.
          5    1    3    3  501    0 -0.20529875543E+02  0.13024942552E+02  0.14450443695E+03  0.14661087005E+03  0.47000000000E+01 0. -1.
        -13    1    4    4    0    0  0.12929196753E+02  0.32786959648E+02  0.85009329032E+01  0.36254857769E+02  0.00000000000E+00 0.  1.
         14    1    4    4    0    0  0.21066034809E+02 -0.48821203758E+02  0.90568438286E+01  0.53938058726E+02  0.00000000000E+00 0. -1.
         -5    1    5    5    0  503 -0.50884387154E+01  0.18157162728E+02  0.71314087060E+02  0.73914570824E+02  0.47000000000E+01 0.  1.
         11    1    6    6    0    0  0.25450924799E+02  0.35545609951E+01 -0.57533239731E+02  0.63011571563E+02  0.00000000000E+00 0. -1.
        -12    1    6    6    0    0 -0.33827842103E+02 -0.18702422164E+02 -0.22842043216E+01  0.38721067722E+02  0.00000000000E+00 0.  1.
</event>
<event>
12    1  0.9028446E-003  0.2098721E+03  0.7818608E-02  0.1143194E+00
         21   -1    0    0  503  502  0.00000000000E+00  0.00000000000E+00  0.83320815616E+03  0.83320815616E+03  0.00000000000E+00 0. -1.
         21   -1    0    0  501  503 -0.00000000000E+00 -0.00000000000E+00 -0.55020055277E+02  0.55020055277E+02  0.00000000000E+00 0.  1.
          6    2    1    2  501    0 -0.24194444635E+02  0.11476810639E+03  0.51606743744E+03  0.55711030726E+03  0.17403794148E+03 0.  0.
         24    2    3    3    0    0  0.46653994249E+02  0.55069226840E+02  0.35496164462E+03  0.37120542838E+03  0.81157168399E+02 0.  0.
         -6    2    1    2    0  502  0.24194444635E+02 -0.11476810639E+03  0.26212066345E+03  0.33111790418E+03  0.16484761104E+03 0.  0.
        -24    2    5    5    0    0 -0.10759546943E+01 -0.19410152747E+02  0.19515515290E+03  0.21179396690E+03  0.79957732604E+02 0.  0.
          5    1    3    3  501    0 -0.70848438884E+02  0.59698879552E+02  0.16110579281E+03  0.18590487887E+03  0.47000000000E+01 0. -1.
        -11    1    4    4    0    0 -0.21330381444E+02  0.69618907708E+01  0.45483571791E+02  0.50716943899E+02  0.00000000000E+00 0.  1.
         12    1    4    4    0    0  0.67984375693E+02  0.48107336070E+02  0.30947807283E+03  0.32048848448E+03  0.00000000000E+00 0. -1.
         -5    1    5    5    0  502  0.25270399329E+02 -0.95357953645E+02  0.66965510553E+02  0.11932393729E+03  0.47000000000E+01 0.  1.
         13    1    6    6    0    0  0.18978203543E+02  0.22399103584E+02  0.11954754587E+03  0.12309958479E+03  0.00000000000E+00 0. -1.
        -14    1    6    6    0    0 -0.20054158237E+02 -0.41809256331E+02  0.75607607031E+02  0.88694382113E+02  0.00000000000E+00 0.  1.
</event>
<event>
12    1  0.9028446E-003  0.1887523E+03  0.7818608E-02  0.1160293E+00
         21   -1    0    0  503  502  0.00000000000E+00  0.00000000000E+00  0.21007859828E+03  0.21007859828E+03  0.00000000000E+00 0.  1.
         21   -1    0    0  501  503 -0.00000000000E+00 -0.00000000000E+00 -0.21264324006E+03  0.21264324006E+03  0.00000000000E+00 0.  1.
          6    2    1    2  501    0 -0.74654948303E+02 -0.21893430477E+02 -0.99349886119E+02  0.21060200782E+03  0.16861234303E+03 0.  0.
         24    2    3    3    0    0 -0.28990227384E+02 -0.50866472850E+02 -0.11587865129E+03  0.15385701686E+03  0.82560816795E+02 0.  0.
         -6    2    1    2    0  502  0.74654948303E+02  0.21893430477E+02  0.96785244331E+02  0.21211983052E+03  0.17197312399E+03 0.  0.
        -24    2    5    5    0    0  0.31692776226E+02 -0.46184860370E+02 -0.10714788371E+02  0.77736985834E+02  0.52827633720E+02 0.  0.
          5    1    3    3  501    0 -0.45664720919E+02  0.28973042373E+02  0.16528765168E+02  0.56744990959E+02  0.47000000000E+01 0. -1.
        -13    1    4    4    0    0 -0.21021603051E+02  0.70490061037E+01 -0.84795434234E+02  0.87646231800E+02  0.00000000000E+00 0.  1.
         14    1    4    4    0    0 -0.79686243332E+01 -0.57915478954E+02 -0.31083217053E+02  0.66210785063E+02  0.00000000000E+00 0. -1.
         -5    1    5    5    0  502  0.42962172077E+02  0.68078290847E+02  0.10750003270E+03  0.13438284468E+03  0.47000000000E+01 0.  1.
         13    1    6    6    0    0 -0.16520961753E+01 -0.48904440524E+01 -0.22737343546E+02  0.23315931385E+02  0.00000000000E+00 0. -1.
        -14    1    6    6    0    0  0.33344872402E+02 -0.41294416317E+02  0.12022555175E+02  0.54421054450E+02  0.00000000000E+00 0.  1.
</event>
<event>
12    1  0.9028446E-003  0.4530920E+03  0.7818608E-02  0.1026835E+00
         21   -1    0    0  501  502  0.00000000000E+00  0.00000000000E+00  0.10128353134E+04  0.10128353134E+04  0.00000000000E+00 0. -1.
         21   -1    0    0  502  503 -0.00000000000E+00 -0.00000000000E+00 -0.22918588916E+03  0.22918588916E+03  0.00000000000E+00 0.  1.
          6    2    1    2  501    0  0.11656783457E+03  0.40279703728E+03  0.60355635504E+03  0.75444977520E+03  0.17053057287E+03 0.  0.
         24    2    3    3    0    0  0.49328102097E+00  0.21714988220E+03  0.27322317473E+03  0.35811624370E+03  0.80262233506E+02 0.  0.
         -6    2    1    2    0  503 -0.11656783457E+03 -0.40279703728E+03  0.18009306925E+03  0.48757142741E+03  0.17163586437E+03 0.  0.
        -24    2    5    5    0    0 -0.14808018459E+03 -0.34569410333E+03  0.13143056857E+03  0.40606129160E+03  0.78610584728E+02 0.  0.
          5    1    3    3  501    0  0.11607455355E+03  0.18564715508E+03  0.33033318031E+03  0.39633353149E+03  0.47000000000E+01 0. -1.
        -11    1    4    4    0    0  0.23910837689E+02  0.57142389946E+02  0.12146404035E+03  0.13634696177E+03  0.00000000000E+00 0.  1.
         12    1    4    4    0    0 -0.23417556668E+02  0.16000749225E+03  0.15175913439E+03  0.22176928193E+03  0.00000000000E+00 0. -1.
         -5    1    5    5    0  503  0.31512350010E+02 -0.57102933946E+02  0.48662500677E+02  0.81510135815E+02  0.47000000000E+01 0.  1.
         13    1    6    6    0    0  0.85529865115E+01 -0.13211667682E+02  0.11377373221E+02  0.19420256502E+02  0.00000000000E+00 0. -1.
        -14    1    6    6    0    0 -0.15663317110E+03 -0.33248243565E+03  0.12005319535E+03  0.38664103509E+03  0.00000000000E+00 0.  1.
</event>
<event>
12    1  0.9028446E-003  0.2396728E+03  0.7818608E-02  0.1120035E+00
         21   -1    0    0  501  502  0.00000000000E+00  0.00000000000E+00  0.37443675275E+02  0.37443675275E+02  0.00000000000E+00 0.  1.
         21   -1    0    0  502  503 -0.00000000000E+00 -0.00000000000E+00 -0.18389346712E+04  0.18389346712E+04  0.00000000000E+00 0.  1.
          6    2    1    2  501    0  0.12053797547E+03 -0.11565869727E+03 -0.51842152966E+03  0.57114264592E+03  0.17186245022E+03 0.  0.
         24    2    3    3    0    0  0.12192220115E+03 -0.35371598129E+02 -0.41155771119E+03  0.43738951488E+03  0.76247393347E+02 0.  0.
         -6    2    1    2    0  503 -0.12053797547E+03  0.11565869727E+03 -0.12830694663E+04  0.13052357006E+04  0.17165850094E+03 0.  0.
        -24    2    5    5    0    0 -0.58222323612E+02  0.64372556383E+02 -0.10813285784E+04  0.10878995909E+04  0.81977804754E+02 0.  0.
          5    1    3    3  501    0 -0.13842256800E+01 -0.80287099137E+02 -0.10686381846E+03  0.13375313105E+03  0.47000000000E+01 0. -1.
        -13    1    4    4    0    0  0.79294232881E+02 -0.49065146264E+02 -0.19366678933E+03  0.21494601470E+03  0.00000000000E+00 0.  1.
         14    1    4    4    0    0  0.42627968268E+02  0.13693548135E+02 -0.21789092187E+03  0.22244350018E+03  0.00000000000E+00 0. -1.
         -5    1    5    5    0  503 -0.62315651857E+02  0.51286140884E+02 -0.20174088786E+03  0.21733610963E+03  0.47000000000E+01 0.  1.
         11    1    6    6    0    0 -0.47152610286E+02  0.16578078215E+02 -0.24038937969E+03  0.24553055859E+03  0.00000000000E+00 0. -1.
        -12    1    6    6    0    0 -0.11069713325E+02  0.47794478167E+02 -0.84093919872E+03  0.84236903234E+03  0.00000000000E+00 0.  1.
</event>
<event>
12    1  0.9028446E-003  0.1968521E+03  0.7818608E-02  0.1152545E+00
         21   -1    0    0  503  502  0.00000000000E+00  0.00000000000E+00  0.20772319896E+04  0.20772319896E+04  0.00000000000E+00 0.  1.
         21   -1    0    0  501  503 -0.00000000000E+00 -0.00000000000E+00 -0.31244524574E+02  0.31244524574E+02  0.00000000000E+00 0.  1.
          6    2    1    2  501    0 -0.36615630367E+02 -0.86400975338E+02  0.16927445834E+04  0.17040864887E+04  0.17239693629E+03 0.  0.
         24    2    3    3    0    0 -0.37222488448E+01  0.18869176483E+02  0.54746522700E+03  0.55349938924E+03  0.79205417447E+02 0.  0.
         -6    2    1    2    0  502  0.36615630367E+02  0.86400975338E+02  0.35324288161E+03  0.40439002539E+03  0.17304602365E+03 0.  0.
        -24    2    5    5    0    0  0.27346937418E+02  0.87771520607E+02  0.12436730563E+03  0.17527453848E+03  0.82475707411E+02 0.  0.
          5    1    3    3  501    0 -0.32893381522E+02 -0.10527015182E+03  0.11452793564E+04  0.11505870995E+04  0.47000000000E+01 0. -1.
        -13    1    4    4    0    0 -0.35290882262E+02  0.43720716706E+01  0.13606550031E+03  0.14063563473E+03  0.00000000000E+00 0.  1.
         14    1    4    4    0    0  0.31568633417E+02  0.14497104812E+02  0.41139972669E+03  0.41286375450E+03  0.00000000000E+00 0. -1.
         -5    1    5    5    0  502  0.92686929488E+01 -0.13705452683E+01  0.22887557598E+03  0.22911548692E+03  0.47000000000E+01 0.  1.
         13    1    6    6    0    0  0.82458173783E+01 -0.13646127744E+02  0.36140968740E+02  0.39501644626E+02  0.00000000000E+00 0. -1.
        -14    1    6    6    0    0  0.19101120040E+02  0.10141764835E+03  0.88226336888E+02  0.13577289385E+03  0.00000000000E+00 0.  1.
</event>
<event>
12    1  0.9028446E-003  0.1857990E+03  0.7818608E-02  0.1162524E+00
         21   -1    0    0  501  502  0.00000000000E+00  0.00000000000E+00  0.17146362614E+03  0.17146362614E+03  0.00000000000E+00 0.  1.
         21   -1    0    0  502  503 -0.00000000000E+00 -0.00000000000E+00 -0.20140672080E+03  0.20140672080E+03  0.00000000000E+00 0.  1.
          6    2    1    2  501    0  0.70853708397E+02  0.82183753555E+00 -0.12978751981E+01  0.18580351000E+03  0.17175661978E+03 0.  0.
         24    2    3    3    0    0  0.36456089963E+01  0.40454396456E+02  0.38802887853E+02  0.97952331586E+02  0.80244292631E+02 0.  0.
         -6    2    1    2    0  503 -0.70853708397E+02 -0.82183753555E+00 -0.28645219456E+02  0.18706683694E+03  0.17074111828E+03 0.  0.
        -24    2    5    5    0    0  0.19217287361E+02  0.28761215247E+01  0.21411052777E+02  0.83847751646E+02  0.78704739797E+02 0.  0.
          5    1    3    3  501    0  0.67208099401E+02 -0.39632558921E+02 -0.40100763051E+02  0.87851178415E+02  0.47000000000E+01 0. -1.
        -11    1    4    4    0    0  0.16493216422E+02  0.49900751413E+02 -0.35711904752E+01  0.52676983407E+02  0.00000000000E+00 0.  1.
         12    1    4    4    0    0 -0.12847607426E+02 -0.94463549564E+01  0.42374078328E+02  0.45275348179E+02  0.00000000000E+00 0. -1.
         -5    1    5    5    0  503 -0.90070995758E+02 -0.36979590603E+01 -0.50056272234E+02  0.10321908529E+03  0.47000000000E+01 0.  1.
         11    1    6    6    0    0  0.30029443669E+02  0.15131759306E+02  0.44365865568E+02  0.55669270287E+02  0.00000000000E+00 0. -1.
        -12    1    6    6    0    0 -0.10812156308E+02 -0.12255637781E+02 -0.22954812790E+02  0.28178481359E+02  0.00000000000E+00 0.  1.
</event>
<event>
12    1  0.9028446E-003  0.1994450E+03  0.7818608E-02  0.1150588E+00
         21   -1    0    0  501  502  0.00000000000E+00  0.00000000000E+00  0.16303089547E+03  0.16303089547E+03  0.00000000000E+00 0.  1.
         21   -1    0    0  502  503 -0.00000000000E+00 -0.00000000000E+00 -0.37877227521E+03  0.37877227521E+03  0.00000000000E+00 0. -1.
          6    2    1    2  501    0  0.80852370383E+02  0.58866075264E+02  0.55336883020E+02  0.20525934116E+03  0.17049019297E+03 0.  0.
         24    2    3    3    0    0  0.98176110103E+02  0.33198600433E+02 -0.11409747637E+02  0.13152919857E+03  0.80181369844E+02 0.  0.
         -6    2    1    2    0  503 -0.80852370383E+02 -0.58866075264E+02 -0.27107826276E+03  0.33654382952E+03  0.17255724857E+03 0.  0.
        -24    2    5    5    0    0 -0.14042599164E+01  0.46706588742E+01 -0.55202688570E+02  0.97853083211E+02  0.80648013418E+02 0.  0.
          5    1    3    3  501    0 -0.17323739720E+02  0.25667474832E+02  0.66746630657E+02  0.73730142589E+02  0.47000000000E+01 0. -1.
        -11    1    4    4    0    0  0.42392780794E+02  0.24614926927E+02  0.33523370984E+02  0.59387363076E+02  0.00000000000E+00 0.  1.
         12    1    4    4    0    0  0.55783329309E+02  0.85836735060E+01 -0.44933118620E+02  0.72141835495E+02  0.00000000000E+00 0. -1.
         -5    1    5    5    0  503 -0.79448110466E+02 -0.63536734139E+02 -0.21587557419E+03  0.23869074631E+03  0.47000000000E+01 0.  1.
         13    1    6    6    0    0  0.11849666357E+02 -0.35111237673E+02 -0.36243599552E+02  0.51834468380E+02  0.00000000000E+00 0. -1.
        -14    1    6    6    0    0 -0.13253926274E+02  0.39781896548E+02 -0.18959089018E+02  0.46018614831E+02  0.00000000000E+00 0.  1.
</event>
<event>
12    1  0.9028446E-003  0.3173663E+03  0.7818608E-02  0.1076956E+00
         21   -1    0    0  503  502  0.00000000000E+00  0.00000000000E+00  0.31970672731E+03  0.31970672731E+03  0.00000000000E+00 0. -1.
         21   -1    0    0  501  503 -0.00000000000E+00 -0.00000000000E+00 -0.32875199598E+03  0.32875199598E+03  0.00000000000E+00 0.  1.
          6    2    1    2  501    0 -0.15704305693E+03 -0.21399528270E+03  0.63464958730E+02  0.32364978723E+03  0.17396804604E+03 0.  0.
         24    2    3    3    0    0 -0.83184029635E+02 -0.21581601282E+03  0.39563506254E+02  0.24585621165E+03  0.73374870390E+02 0.  0.
         -6    2    1    2    0  502  0.15704305693E+03  0.21399528270E+03 -0.72510227397E+02  0.32480893605E+03  0.17258797500E+03 0.  0.
        -24    2    5    5    0    0  0.32152675015E+02  0.82585183622E+02  0.20565043710E+02  0.12096753269E+03  0.79725252443E+02 0.  0.
          5    1    3    3  501    0 -0.73859027293E+02  0.18207301237E+01  0.23901452476E+02  0.77793575578E+02  0.47000000000E+01 0. -1.
        -11    1    4    4    0    0 -0.91275855611E+02 -0.20388254499E+03  0.24042781324E+02  0.22467182579E+03  0.00000000000E+00 0.  1.
         12    1    4    4    0    0  0.80918259762E+01 -0.11933467830E+02  0.15520724929E+02  0.21184385864E+02  0.00000000000E+00 0. -1.
         -5    1    5    5    0  502  0.12489038191E+03  0.13141009908E+03 -0.93075271107E+02  0.20384140336E+03  0.47000000000E+01 0.  1.
         11    1    6    6    0    0 -0.26694931257E+02  0.27040066833E+02  0.10508191755E+02  0.39423427846E+02  0.00000000000E+00 0. -1.
        -12    1    6    6    0    0  0.58847606273E+02  0.55545116789E+02  0.10056851955E+02  0.81544104841E+02  0.00000000000E+00 0.  1.
</event>
<event>
12    1  0.9028446E-003  0.2154034E+03  0.7818608E-02  0.1137440E+00
         21   -1    0    0  503  502  0.00000000000E+00  0.00000000000E+00  0.14280129837E+04  0.14280129837E+04  0.00000000000E+00 0.  1.
         21   -1    0    0  501  503 -0.00000000000E+00 -0.00000000000E+00 -0.47790880430E+02  0.47790880430E+02  0.00000000000E+00 0. -1.
          6    2    1    2  501    0 -0.81171195380E+02  0.99791197755E+02  0.27218855661E+03  0.34710980853E+03  0.17277604788E+03 0.  0.
         24    2    3    3    0    0  0.55881722925E+01  0.85684212631E+02  0.81255186643E+02  0.13686272371E+03  0.68963670305E+02 0.  0.
         -6    2    1    2    0  502  0.81171195380E+02 -0.99791197755E+02  0.11080335467E+04  0.11286940556E+04  0.17223496888E+03 0.  0.
        -24    2    5    5    0    0  0.62520084797E+02  0.11887638122E+02  0.50583525933E+03  0.51592583386E+03  0.79120664289E+02 0.  0.
          5    1    3    3  501    0 -0.86759367673E+02  0.14106985124E+02  0.19093336996E+03  0.21024708482E+03  0.47000000000E+01 0. -1.
        -11    1    4    4    0    0  0.21748697152E+02  0.62049772444E+01  0.39799173253E+02  0.45776432386E+02  0.00000000000E+00 0.  1.
         12    1    4    4    0    0 -0.16160524860E+02  0.79479235387E+02  0.41456013390E+02  0.91086291327E+02  0.00000000000E+00 0. -1.
         -5    1    5    5    0  502  0.18651110583E+02 -0.11167883588E+03  0.60219828735E+03  0.61276822176E+03  0.47000000000E+01 0.  1.
         13    1    6    6    0    0  0.30318102090E+02  0.15108731054E+02  0.45087113882E+03  0.45214184156E+03  0.00000000000E+00 0. -1.
        -14    1    6    6    0    0  0.32201982707E+02 -0.32210929317E+01  0.54964120504E+02  0.63783992292E+02  0.00000000000E+00 0.  1.
</event>
<event>
12    1  0.9028446E-003  0.1797707E+03  0.7818608E-02  0.1169889E+00
         21   -1    0    0  501  502  0.00000000000E+00  0.00000000000E+00  0.13817923121E+03  0.13817923121E+03  0.00000000000E+00 0. -1.
         21   -1    0    0  502  503 -0.00000000000E+00 -0.00000000000E+00 -0.22472504486E+03  0.22472504486E+03  0.00000000000E+00 0. -1.
          6    2    1    2  501    0 -0.73316885365E+00  0.43008005499E+01 -0.33628831192E+02  0.17550708770E+03  0.17219989874E+03 0.  0.
         24    2    3    3    0    0 -0.40349343501E+02 -0.50714261187E+02 -0.36632392490E+02  0.10748349112E+03  0.77529109858E+02 0.  0.
         -6    2    1    2    0  503  0.73316885365E+00 -0.43008005499E+01 -0.52916982454E+02  0.18739718836E+03  0.17971773633E+03 0.  0.
        -24    2    5    5    0    0  0.33397819924E+02 -0.52430563766E+02  0.10578028838E+02  0.10115821808E+03  0.79099380516E+02 0.  0.
          5    1    3    3  501    0  0.39616174647E+02  0.55015061737E+02  0.30035612981E+01  0.68023596583E+02  0.47000000000E+01 0. -1.
        -11    1    4    4    0    0 -0.29786227436E+02 -0.48480609800E+01 -0.50135968772E+02  0.58517846892E+02  0.00000000000E+00 0.  1.
         12    1    4    4    0    0 -0.10563116066E+02 -0.45866200207E+02  0.13503576282E+02  0.48965644230E+02  0.00000000000E+00 0. -1.
         -5    1    5    5    0  503 -0.32664651070E+02  0.48129763217E+02 -0.63495011291E+02  0.86238970284E+02  0.47000000000E+01 0.  1.
         11    1    6    6    0    0  0.54950409379E+02 -0.31831169605E+02 -0.10874779766E+02  0.64428500559E+02  0.00000000000E+00 0. -1.
        -12    1    6    6    0    0 -0.21552589455E+02 -0.20599394161E+02  0.21452808603E+02  0.36729717519E+02  0.00000000000E+00 0.  1.
</event>
<event>
12    1  0.9028446E-003  0.2279234E+03  0.7818608E-02  0.1128633E+00
         21   -1    0    0  501  502  0.00000000000E+00  0.00000000000E+00  0.23797674227E+03  0.23797674227E+03  0.00000000000E+00 0. -1.
         21   -1    0    0  502  503 -0.00000000000E+00 -0.00000000000E+00 -0.21642126200E+03  0.21642126200E+03  0.00000000000E+00 0.  1.
          6    2    1    2  501    0  0.91757188230E+02  0.11253267846E+03 -0.38957832577E+01  0.22795667205E+03  0.17568745513E+03 0.  0.
         24    2    3    3    0    0  0.11565363176E+03  0.12870422877E+03 -0.24553289181E+02  0.19216028112E+03  0.79888475945E+02 0.  0.
         -6    2    1    2    0  503 -0.91757188230E+02 -0.11253267846E+03  0.25451263525E+02  0.22644133221E+03  0.17188637179E+03 0.  0.
        -24    2    5    5    0    0 -0.69107559612E+02 -0.56709007150E+02 -0.57674219572E+02  0.12367351675E+03  0.63063910875E+02 0.  0.
          5    1    3    3  501    0 -0.23896443526E+02 -0.16171550311E+02  0.20657505923E+02  0.35796390930E+02  0.47000000000E+01 0. -1.
        -13    1    4    4    0    0  0.15396678837E+02 -0.60707279571E+01 -0.17427288921E+02  0.24033764921E+02  0.00000000000E+00 0.  1.
         14    1    4    4    0    0  0.10025695292E+03  0.13477495673E+03 -0.71260002600E+01  0.16812651620E+03  0.00000000000E+00 0. -1.
         -5    1    5    5    0  503 -0.22649628617E+02 -0.55823671310E+02  0.83125483097E+02  0.10276781546E+03  0.47000000000E+01 0.  1.
         11    1    6    6    0    0  0.13487806073E+01  0.11164928747E+02 -0.31720889956E+01  0.11684904434E+02  0.00000000000E+00 0. -1.
        -12    1    6    6    0    0 -0.70456340220E+02 -0.67873935897E+02 -0.54502130577E+02  0.11198861232E+03  0.00000000000E+00 0.  1.
</event>
<event>
12    1  0.9028446E-003  0.1776389E+03  0.7818608E-02  0.1170127E+00
         21   -1    0    0  501  502  0.00000000000E+00  0.00000000000E+00  0.15456664229E+02  0.15456664229E+02  0.00000000000E+00 0.  1.
         21   -1    0    0  502  503 -0.00000000000E+00 -0.00000000000E+00 -0.20408486116E+04  0.20408486116E+04  0.00000000000E+00 0.  1.
          6    2    1    2  501    0  0.40243452393E+02  0.16517091422E+02 -0.10220010741E+04  0.10373112474E+04  0.17215132506E+03 0.  0.
         24    2    3    3    0    0  0.24575956591E+02  0.57368346952E+02 -0.92761846956E+03  0.93317450295E+03  0.80271557894E+02 0.  0.
         -6    2    1    2    0  503 -0.40243452393E+02 -0.16517091422E+02 -0.10033908733E+04  0.10189940284E+04  0.17223018224E+03 0.  0.
        -24    2    5    5    0    0 -0.45155323295E+02 -0.69080057464E+02 -0.82606157701E+03  0.83391361029E+03  0.78886772277E+02 0.  0.
          5    1    3    3  501    0  0.15667495803E+02 -0.40851255530E+02 -0.94382604585E+02  0.10413674448E+03  0.47000000000E+01 0. -1.
        -13    1    4    4    0    0  0.71899628488E+01  0.60764127634E+02 -0.35165419142E+03  0.35693787290E+03  0.00000000000E+00 0.  1.
         14    1    4    4    0    0  0.17385993742E+02 -0.33957806827E+01 -0.57596427815E+03  0.57623663005E+03  0.00000000000E+00 0. -1.
         -5    1    5    5    0  503  0.49118709015E+01  0.52562966042E+02 -0.17732929625E+03  0.18508041815E+03  0.47000000000E+01 0.  1.
         11    1    6    6    0    0  0.17125884462E+02 -0.61348169729E+01 -0.58553789619E+02  0.61314583720E+02  0.00000000000E+00 0. -1.
        -12    1    6    6    0    0 -0.62281207757E+02 -0.62945240491E+02 -0.76750778739E+03  0.77259902657E+03  0.00000000000E+00 0.  1.
</event>
<event>
12    1  0.9028446E-003  0.1991669E+03  0.7818608E-02  0.1150713E+00
         21   -1    0    0  501  502  0.00000000000E+00  0.00000000000E+00  0.37016594026E+03  0.37016594026E+03  0.00000000000E+00 0. -1.
         21   -1    0    0  502  503 -0.00000000000E+00 -0.00000000000E+00 -0.17821344902E+03  0.17821344902E+03  0.00000000000E+00 0. -1.
          6    2    1    2  501    0 -0.52498337569E+02 -0.85927123840E+02  0.26974889260E+03  0.33455767541E+03  0.17036674282E+03 0.  0.
         24    2    3    3    0    0 -0.36178090165E+02 -0.13538967860E+02  0.53279706193E+02  0.10567474843E+03  0.82681724129E+02 0.  0.
         -6    2    1    2    0  503  0.52498337569E+02  0.85927123840E+02 -0.77796401357E+02  0.21382171386E+03  0.17183683888E+03 0.  0.
        -24    2    5    5    0    0  0.38395139273E+02  0.12531293439E+03 -0.49828639195E+02  0.16328036450E+03  0.83666396483E+02 0.  0.
          5    1    3    3  501    0 -0.16320247403E+02 -0.72388155980E+02  0.21646918640E+03  0.22888292698E+03  0.47000000000E+01 0. -1.
        -13    1    4    4    0    0 -0.40685503209E+02  0.27217219889E+01  0.70577346426E+02  0.81509997978E+02  0.00000000000E+00 0.  1.
         14    1    4    4    0    0  0.45074130438E+01 -0.16260689849E+02 -0.17297640233E+02  0.24164750451E+02  0.00000000000E+00 0. -1.
         -5    1    5    5    0  503  0.14103198296E+02 -0.39385810554E+02 -0.27967762162E+02  0.50541349364E+02  0.47000000000E+01 0.  1.
         11    1    6    6    0    0  0.15839018332E+02  0.61926110262E+02 -0.68265448657E+02  0.93519458479E+02  0.00000000000E+00 0. -1.
        -12    1    6    6    0    0  0.22556120941E+02  0.63386824132E+02  0.18436809462E+02  0.69760906019E+02  0.00000000000E+00 0.  1.
</event>
<event>
12    1  0.9028446E-003  0.1901680E+03  0.7818608E-02  0.1158499E+00
         21   -1    0    0  501  502  0.00000000000E+00  0.00000000000E+00  0.27901822138E+03  0.27901822138E+03  0.00000000000E+00 0.  1.
         21   -1    0    0  502  503 -0.00000000000E+00 -0.00000000000E+00 -0.13006720644E+03  0.13006720644E+03  0.00000000000E+00 0.  1.
          6    2    1    2  501    0  0.38119500268E+01  0.80849258214E+02  0.92479589132E+02  0.21070975544E+03  0.17115780179E+03 0.  0.
         24    2    3    3    0    0  0.37415562215E+02 -0.12173739374E+02  0.36153159622E+02  0.96792076855E+02  0.80706449340E+02 0.  0.
         -6    2    1    2    0  503 -0.38119500268E+01 -0.80849258214E+02  0.56471425809E+02  0.19837567238E+03  0.17208356093E+03 0.  0.
        -24    2    5    5    0    0 -0.35899339182E+02  0.16167362736E+02  0.17882733584E+02  0.89045884808E+02  0.77841064158E+02 0.  0.
          5    1    3    3  501    0 -0.33603612188E+02  0.93022997588E+02  0.56326429510E+02  0.11391767858E+03  0.47000000000E+01 0. -1.
        -13    1    4    4    0    0  0.43571065149E+02  0.25702097886E+02  0.27005660742E+02  0.57344060425E+02  0.00000000000E+00 0.  1.
         14    1    4    4    0    0 -0.61555029338E+01 -0.37875837260E+02  0.91474988804E+01  0.39448016430E+02  0.00000000000E+00 0. -1.
         -5    1    5    5    0  503  0.32087389155E+02 -0.97016620951E+02  0.38588692225E+02  0.10932978757E+03  0.47000000000E+01 0.  1.
         13    1    6    6    0    0  0.17261436475E+02  0.26756919674E+02  0.13749173829E+02  0.34683277247E+02  0.00000000000E+00 0. -1.
        -14    1    6    6    0    0 -0.53160775657E+02 -0.10589556938E+02  0.41335597550E+01  0.54362607561E+02  0.00000000000E+00 0.  1.
</event>
<event>
12    1  0.9028446E-003  0.1966297E+03  0.7818608E-02  0.1154646E+00
         21   -1    0    0  503  502  0.00000000000E+00  0.00000000000E+00  0.12723400603E+03  0.12723400603E+03  0.00000000000E+00 0.  1.
         21   -1    0    0  501  503 -0.00000000000E+00 -0.00000000000E+00 -0.30829573830E+03  0.30829573830E+03  0.00000000000E+00 0.  1.
          6    2    1    2  501    0 -0.37980678027E+02 -0.63384657469E+02 -0.35239154938E+02  0.19072891287E+03  0.17226599623E+03 0.  0.
         24    2    3    3    0    0 -0.71064551778E+02 -0.51309784303E+02  0.24691469901E+02  0.12105743336E+03  0.79764459504E+02 0.  0.
         -6    2    1    2    0  502  0.37980678027E+02  0.63384657469E+02 -0.14582257734E+03  0.24480083146E+03  0.18221711312E+03 0.  0.
        -24    2    5    5    0    0  0.80538121193E+01  0.69888210302E+02 -0.13153617212E+02  0.10856186316E+03  0.81629863763E+02 0.  0.
          5    1    3    3  501    0  0.33083873751E+02 -0.12074873166E+02 -0.59930624840E+02  0.69671479517E+02  0.47000000000E+01 0. -1.
        -11    1    4    4    0    0 -0.57087192942E+02 -0.29601251980E+02 -0.21781271313E+02  0.67894075564E+02  0.00000000000E+00 0.  1.
         12    1    4    4    0    0 -0.13977358837E+02 -0.21708532323E+02  0.46472741214E+02  0.53163357791E+02  0.00000000000E+00 0. -1.
         -5    1    5    5    0  502  0.29926865907E+02 -0.65035528329E+01 -0.13266896013E+03  0.13623896830E+03  0.47000000000E+01 0.  1.
         11    1    6    6    0    0  0.16068029180E+02 -0.10553710269E+02  0.13444070736E+02  0.23458589048E+02  0.00000000000E+00 0. -1.
        -12    1    6    6    0    0 -0.80142170602E+01  0.80441920571E+02 -0.26597687948E+02  0.85103274111E+02  0.00000000000E+00 0.  1.
</event>
<event>
12    1  0.9028446E-003  0.3156529E+03  0.7818608E-02  0.1077788E+00
         21   -1    0    0  503  502  0.00000000000E+00  0.00000000000E+00  0.24485973490E+03  0.24485973490E+03  0.00000000000E+00 0. -1.
         21   -1    0    0  501  503 -0.00000000000E+00 -0.00000000000E+00 -0.41100286681E+03  0.41100286681E+03  0.00000000000E+00 0. -1.
          6    2    1    2  501    0 -0.24080598159E+03 -0.10633592792E+03 -0.12055431293E+03  0.33693460232E+03  0.17232740216E+03 0.  0.
         24    2    3    3    0    0 -0.11693026414E+03 -0.24162313431E+02  0.17681592301E+01  0.14436624176E+03  0.81129410889E+02 0.  0.
         -6    2    1    2    0  502  0.24080598159E+03  0.10633592792E+03 -0.45588818986E+02  0.31892799939E+03  0.17418920185E+03 0.  0.
        -24    2    5    5    0    0  0.12584303224E+03  0.29688449206E+02 -0.87115602670E+02  0.17457468464E+03  0.78545015813E+02 0.  0.
          5    1    3    3  501    0 -0.12387571745E+03 -0.82173614488E+02 -0.12232247216E+03  0.19256836055E+03  0.47000000000E+01 0. -1.
        -13    1    4    4    0    0 -0.79478233420E+01  0.20555651046E+02  0.13721569557E+02  0.25961204843E+02  0.00000000000E+00 0.  1.
         14    1    4    4    0    0 -0.10898244080E+03 -0.44717964477E+02 -0.11953410327E+02  0.11840503692E+03  0.00000000000E+00 0. -1.
         -5    1    5    5    0  502  0.11496294935E+03  0.76647478713E+02  0.41526783683E+02  0.14435331475E+03  0.47000000000E+01 0.  1.
         13    1    6    6    0    0  0.36692943836E+01  0.13731302116E+02  0.10260421667E+02  0.17529650078E+02  0.00000000000E+00 0. -1.
        -14    1    6    6    0    0  0.12217373785E+03  0.15957147090E+02 -0.97376024337E+02  0.15704503456E+03  0.00000000000E+00 0.  1.
</event>
<event>
12    1  0.9028446E-003  0.1828511E+03  0.7818608E-02  0.1165737E+00
         21   -1    0    0  503  502  0.00000000000E+00  0.00000000000E+00  0.20704660764E+03  0.20704660764E+03  0.00000000000E+00 0.  1.
         21   -1    0    0  501  503 -0.00000000000E+00 -0.00000000000E+00 -0.23644928987E+03  0.23644928987E+03  0.00000000000E+00 0.  1.
          6    2    1    2  501    0  0.51132853679E+02 -0.31864051465E+02 -0.14150519121E+03  0.22901629177E+03  0.16969047191E+03 0.  0.
         24    2    3    3    0    0  0.77698835401E+02 -0.30744157015E+02 -0.37777766054E+02  0.12183199126E+03  0.80209489917E+02 0.  0.
         -6    2    1    2    0  502 -0.51132853679E+02  0.31864051465E+02  0.11210250897E+03  0.21447960574E+03  0.17264021043E+03 0.  0.
        -24    2    5    5    0    0 -0.89153302841E+02  0.50415941940E+01  0.36699582640E+02  0.12575142494E+03  0.80578113835E+02 0.  0.
          5    1    3    3  501    0 -0.26565981722E+02 -0.11198944501E+01 -0.10372742515E+03  0.10718430052E+03  0.47000000000E+01 0. -1.
        -11    1    4    4    0    0  0.19356366802E+01 -0.47766450095E+01 -0.41342880750E+02  0.41662894950E+02  0.00000000000E+00 0.  1.
         12    1    4    4    0    0  0.75763198720E+02 -0.25967512006E+02  0.35651146958E+01  0.80169096308E+02  0.00000000000E+00 0. -1.
         -5    1    5    5    0  502  0.38020449162E+02  0.26822457271E+02  0.75402926329E+02  0.88728180797E+02  0.47000000000E+01 0.  1.
         11    1    6    6    0    0 -0.39876108669E+02  0.27393538374E+02 -0.15265329033E+02  0.50730072518E+02  0.00000000000E+00 0. -1.
        -12    1    6    6    0    0 -0.49277194172E+02 -0.22351944180E+02  0.51964911673E+02  0.75021352422E+02  0.00000000000E+00 0.  1.
</event>
<event>
12    1  0.9028446E-003  0.2087139E+03  0.7818608E-02  0.1142730E+00
         21   -1    0    0  503  502  0.00000000000E+00  0.00000000000E+00  0.24907822213E+03  0.24907822213E+03  0.00000000000E+00 0. -1.
         21   -1    0    0  501  503 -0.00000000000E+00 -0.00000000000E+00 -0.18685693744E+03  0.18685693744E+03  0.00000000000E+00 0. -1.
          6    2    1    2  501    0  0.45397105996E+02  0.10480213740E+03 -0.25448183211E+02  0.20955617198E+03  0.17384416570E+03 0.  0.
         24    2    3    3    0    0 -0.40864509403E+02  0.50309039354E+02  0.52420519092E+01  0.10290466211E+03  0.79755769736E+02 0.  0.
         -6    2    1    2    0  502 -0.45397105996E+02 -0.10480213740E+03  0.87669467893E+02  0.22637898759E+03  0.17469151435E+03 0.  0.
        -24    2    5    5    0    0 -0.30495619893E+02 -0.13788648803E+03  0.96376262590E+02  0.18876879191E+03  0.80016288309E+02 0.  0.
          5    1    3    3  501    0  0.86261615399E+02  0.54493098042E+02 -0.30690235121E+02  0.10665150987E+03  0.47000000000E+01 0. -1.
        -11    1    4    4    0    0 -0.47955914808E+01  0.47019859008E+01  0.36346524044E+02  0.36961820561E+02  0.00000000000E+00 0.  1.
         12    1    4    4    0    0 -0.36068917922E+02  0.45607053453E+02 -0.31104472135E+02  0.65942841549E+02  0.00000000000E+00 0. -1.
         -5    1    5    5    0  502 -0.14901486103E+02  0.33084350636E+02 -0.87067946972E+01  0.37610195679E+02  0.47000000000E+01 0.  1.
         13    1    6    6    0    0 -0.49987263345E+02 -0.52434708916E+02  0.59230959741E+02  0.93575807705E+02  0.00000000000E+00 0. -1.
        -14    1    6    6    0    0  0.19491643452E+02 -0.85451779116E+02  0.37145302850E+02  0.95192984207E+02  0.00000000000E+00 0.  1.
</event>
<event>
12    1  0.9028446E-003  0.1730511E+03  0.7818608E-02  0.1174838E+00
         21   -1    0    0  503  502  0.00000000000E+00  0.00000000000E+00  0.21003061454E+02  0.21003061454E+02  0.00000000000E+00 0. -1.
         21   -1    0    0  501  503 -0.00000000000E+00 -0.00000000000E+00 -0.14426269307E+04  0.14426269307E+04  0.00000000000E+00 0. -1.
          6    2    1    2  501    0  0.19907893925E+02  0.20066794439E+01 -0.62326158707E+03  0.64683977499E+03  0.17189048137E+03 0.  0.
         24    2    3    3    0    0  0.23814628995E+02  0.66827222013E+02 -0.36925907886E+03  0.38462549335E+03  0.80941266715E+02 0.  0.
         -6    2    1    2    0  502 -0.19907893925E+02 -0.20066794439E+01 -0.79836228215E+03  0.81679021714E+03  0.17135802944E+03 0.  0.
        -24    2    5    5    0    0 -0.78563222904E+02  0.91988993566E+01 -0.53710238951E+03  0.54875135034E+03  0.79951660015E+02 0.  0.
          5    1    3    3  501    0 -0.39067350700E+01 -0.64820542569E+02 -0.25400250821E+03  0.26221428164E+03  0.47000000000E+01 0. -1.
        -11    1    4    4    0    0  0.19724501115E+02  0.63254343240E+02 -0.13578736798E+03  0.15109062574E+03  0.00000000000E+00 0.  1.
         12    1    4    4    0    0  0.40901278797E+01  0.35728787728E+01 -0.23347171088E+03  0.23353486761E+03  0.00000000000E+00 0. -1.
         -5    1    5    5    0  502  0.58655328980E+02 -0.11205578800E+02 -0.26125989264E+03  0.26803886680E+03  0.47000000000E+01 0.  1.
         13    1    6    6    0    0 -0.87954996504E+02 -0.97240161261E+01 -0.37616447587E+03  0.38643285420E+03  0.00000000000E+00 0. -1.
        -14    1    6    6    0    0  0.93917735993E+01  0.18922915483E+02 -0.16093791364E+03  0.16231849613E+03  0.00000000000E+00 0.  1.
</event>
<event>
12    1  0.9028446E-003  0.1929638E+03  0.7818608E-02  0.1155986E+00
         21   -1    0    0  501  502  0.00000000000E+00  0.00000000000E+00  0.10267732015E+03  0.10267732015E+03  0.00000000000E+00 0. -1.
         21   -1    0    0  502  503 -0.00000000000E+00 -0.00000000000E+00 -0.37771433098E+03  0.37771433098E+03  0.00000000000E+00 0. -1.
          6    2    1    2  501    0  0.51914376136E+02  0.70470237388E+02 -0.18801979376E+03  0.26941873512E+03  0.17197050672E+03 0.  0.
         24    2    3    3    0    0 -0.27777402911E+02  0.74007058490E+02 -0.11119099146E+03  0.15856728672E+03  0.80817813729E+02 0.  0.
         -6    2    1    2    0  503 -0.51914376136E+02 -0.70470237388E+02 -0.87017217077E+02  0.21097291600E+03  0.17110353127E+03 0.  0.
        -24    2    5    5    0    0 -0.52159753310E+02 -0.87156859267E+02 -0.12105026191E+03  0.17277812970E+03  0.69872442435E+02 0.  0.
          5    1    3    3  501    0  0.79691779047E+02 -0.35368211021E+01 -0.76828802296E+02  0.11085144840E+03  0.47000000000E+01 0. -1.
        -11    1    4    4    0    0 -0.27856556337E+01 -0.20449574353E+01 -0.67073421595E+02  0.67162382423E+02  0.00000000000E+00 0.  1.
         12    1    4    4    0    0 -0.24991747277E+02  0.76052015925E+02 -0.44117569867E+02  0.91404904295E+02  0.00000000000E+00 0. -1.
         -5    1    5    5    0  503  0.24537717454E+00  0.16686621879E+02  0.34033044837E+02  0.38194786301E+02  0.47000000000E+01 0.  1.
         13    1    6    6    0    0 -0.47150376388E+02 -0.33533711133E+02 -0.25787968151E+02  0.63345773949E+02  0.00000000000E+00 0. -1.
        -14    1    6    6    0    0 -0.50093769221E+01 -0.53623148134E+02 -0.95262293763E+02  0.10943235575E+03  0.00000000000E+00 0.  1.
</event>
<event>
12    1  0.9028446E-003  0.2674725E+03  0.7818608E-02  0.1102742E+00
         21   -1    0    0  503  502  0.00000000000E+00  0.00000000000E+00  0.11887252593E+04  0.11887252593E+04  0.00000000000E+00 0. -1.
         21   -1    0    0  501  503 -0.00000000000E+00 -0.00000000000E+00 -0.61768347717E+02  0.61768347717E+02  0.00000000000E+00 0.  1.
          6    2    1    2  501    0  0.20426439832E+03  0.18798796898E+02  0.46290506203E+03  0.53459808011E+03  0.17157118530E+03 0.  0.
         24    2    3    3    0    0  0.80687637560E+02  0.46327062198E+02  0.13381796092E+03  0.18196593282E+03  0.80917627840E+02 0.  0.
         -6    2    1    2    0  502 -0.20426439832E+03 -0.18798796898E+02  0.66405184958E+03  0.71589552693E+03  0.17165141234E+03 0.  0.
        -24    2    5    5    0    0 -0.72812904057E+02  0.34808265570E+02  0.18641843493E+03  0.21758941491E+03  0.77974266569E+02 0.  0.
          5    1    3    3  501    0  0.12357676076E+03 -0.27528265300E+02  0.32908710110E+03  0.35263214729E+03  0.47000000000E+01 0. -1.
        -11    1    4    4    0    0  0.23362208506E+02 -0.18777476148E+02  0.11703634197E+02  0.32177032962E+02  0.00000000000E+00 0.  1.
         12    1    4    4    0    0  0.57325429053E+02  0.65104538347E+02  0.12211432673E+03  0.14978889986E+03  0.00000000000E+00 0. -1.
         -5    1    5    5    0  502 -0.13145149426E+03 -0.53607062468E+02  0.47763341465E+03  0.49830611202E+03  0.47000000000E+01 0.  1.
         13    1    6    6    0    0  0.11423789210E+02  0.74820628723E+01  0.69982817786E+02  0.71302727928E+02  0.00000000000E+00 0. -1.
        -14    1    6    6    0    0 -0.84236693268E+02  0.27326202697E+02  0.11643561715E+03  0.14628668698E+03  0.00000000000E+00 0.  1.
</event>
<event>
12    1  0.9028446E-003  0.2201320E+03  0.7818608E-02  0.1134394E+00
         21   -1    0    0  501  502  0.00000000000E+00  0.00000000000E+00  0.21297275290E+03  0.21297275290E+03  0.00000000000E+00 0. -1.
         21   -1    0    0  502  503 -0.00000000000E+00 -0.00000000000E+00 -0.26482611079E+03  0.26482611079E+03  0.00000000000E+00 0. -1.
          6    2    1    2  501    0 -0.10019709292E+03 -0.91682376817E+02 -0.11967032712E+03  0.25055752973E+03  0.17324252614E+03 0.  0.
         24    2    3    3    0    0 -0.23939722845E+02 -0.51989251858E+02  0.65527847410E+01  0.97766513542E+02  0.78989616682E+02 0.  0.
         -6    2    1    2    0  503  0.10019709292E+03  0.91682376817E+02  0.67816969224E+02  0.22724133396E+03  0.16909868981E+03 0.  0.
        -24    2    5    5    0    0  0.10149052527E+03  0.88109899523E+01  0.62505108721E+02  0.14405692683E+03  0.80421074887E+02 0.  0.
          5    1    3    3  501    0 -0.76257370079E+02 -0.39693124960E+02 -0.12622311186E+03  0.15279101619E+03  0.47000000000E+01 0. -1.
        -11    1    4    4    0    0  0.89097696184E+01  0.12476066725E+02 -0.15824257740E+02  0.22032779411E+02  0.00000000000E+00 0.  1.
         12    1    4    4    0    0 -0.32849492464E+02 -0.64465318583E+02  0.22377042481E+02  0.75733734130E+02  0.00000000000E+00 0. -1.
         -5    1    5    5    0  503 -0.12934323496E+01  0.82871386865E+02  0.53118605038E+01  0.83184407134E+02  0.47000000000E+01 0.  1.
         13    1    6    6    0    0  0.63687309367E+02 -0.29738912549E+02  0.55608643878E+02  0.89625875549E+02  0.00000000000E+00 0. -1.
        -14    1    6    6    0    0  0.37803215907E+02  0.38549902501E+02  0.68964648430E+01  0.54431051277E+02  0.00000000000E+00 0.  1.
</event>
<event>
12    1  0.9028446E-003  0.2098294E+03  0.7818608E-02  0.1141840E+00
         21   -1    0    0  503  502  0.00000000000E+00  0.00000000000E+00  0.23308000600E+03  0.23308000600E+03  0.00000000000E+00 0. -1.
         21   -1    0    0  501  503 -0.00000000000E+00 -0.00000000000E+00 -0.18840916695E+03  0.18840916695E+03  0.00000000000E+00 0. -1.
          6    2    1    2  501    0 -0.11850805111E+03  0.13885898707E+02  0.16649896243E+02  0.21048892453E+03  0.17260183066E+03 0.  0.
         24    2    3    3    0    0 -0.14806023803E+03  0.33851010151E+02  0.14404526269E+01  0.17143313620E+03  0.79495410625E+02 0.  0.
         -6    2    1    2    0  502  0.11850805111E+03 -0.13885898707E+02  0.28020942811E+02  0.21100024842E+03  0.17175259893E+03 0.  0.
        -24    2    5    5    0    0  0.43909707535E+02  0.36766395984E+01 -0.48490247334E+02  0.10260556298E+03  0.78962126193E+02 0.  0.
          5    1    3    3  501    0  0.29552186925E+02 -0.19965111444E+02  0.15209443616E+02  0.39055788330E+02  0.47000000000E+01 0. -1.
        -13    1    4    4    0    0 -0.97715426802E+02  0.27761126612E+02 -0.36668835945E+02  0.10799809404E+03  0.00000000000E+00 0.  1.
         14    1    4    4    0    0 -0.50344811229E+02  0.60898835389E+01  0.38109288572E+02  0.63435042167E+02  0.00000000000E+00 0. -1.
         -5    1    5    5    0  502  0.74598343572E+02 -0.17562538305E+02  0.76511190145E+02  0.10839468545E+03  0.47000000000E+01 0.  1.
         11    1    6    6    0    0  0.58222113188E+01 -0.35361484697E+02 -0.17619085586E+02  0.39934507903E+02  0.00000000000E+00 0. -1.
        -12    1    6    6    0    0  0.38087496216E+02  0.39038124295E+02 -0.30871161748E+02  0.62671055075E+02  0.00000000000E+00 0.  1.
</event>
<event>
12    1  0.9028446E-003  0.2305677E+03  0.7818608E-02  0.1127019E+00
         21   -1    0    0  501  502  0.00000000000E+00  0.00000000000E+00  0.19694140237E+03  0.19694140237E+03  0.00000000000E+00 0. -1.
         21   -1    0    0  502  503 -0.00000000000E+00 -0.00000000000E+00 -0.27614540123E+03  0.27614540123E+03  0.00000000000E+00 0. -1.
          6    2    1    2  501    0 -0.12010669731E+03 -0.85587151016E+02  0.86643592576E+01  0.22634341680E+03  0.17148029639E+03 0.  0.
         24    2    3    3    0    0 -0.12100013060E+03 -0.69875543092E+02 -0.47647083320E+02  0.16768575395E+03  0.79527632930E+02 0.  0.
         -6    2    1    2    0  503  0.12010669731E+03  0.85587151016E+02 -0.87868358111E+02  0.24674338679E+03  0.17723056004E+03 0.  0.
        -24    2    5    5    0    0  0.48087699745E+02  0.77039704916E+01 -0.10536042491E+03  0.13913024531E+03  0.76711328996E+02 0.  0.
          5    1    3    3  501    0  0.89343329443E+00 -0.15711607924E+02  0.56311442578E+02  0.58657662857E+02  0.47000000000E+01 0. -1.
        -13    1    4    4    0    0 -0.12624977926E+03 -0.48657134075E+02 -0.52782151796E+02  0.14523249983E+03  0.00000000000E+00 0.  1.
         14    1    4    4    0    0  0.52496486534E+01 -0.21218409017E+02  0.51350684756E+01  0.22453254117E+02  0.00000000000E+00 0. -1.
         -5    1    5    5    0  503  0.72018997563E+02  0.77883180524E+02  0.17492066795E+02  0.10761314148E+03  0.47000000000E+01 0.  1.
         11    1    6    6    0    0  0.29204411820E+02  0.38963443826E+02 -0.83230938565E+02  0.96428402242E+02  0.00000000000E+00 0. -1.
        -12    1    6    6    0    0  0.18883287924E+02 -0.31259473334E+02 -0.22129486341E+02  0.42701843071E+02  0.00000000000E+00 0.  1.
</event>
<event>
12    1  0.9028446E-003  0.2256060E+03  0.7818608E-02  0.1129804E+00
         21   -1    0    0  503  502  0.00000000000E+00  0.00000000000E+00  0.44401695037E+02  0.44401695037E+02  0.00000000000E+00 0. -1.
         21   -1    0    0  501  503 -0.00000000000E+00 -0.00000000000E+00 -0.12497010031E+04  0.12497010031E+04  0.00000000000E+00 0.  1.
          6    2    1    2  501    0  0.96328553801E+02 -0.10951113404E+03 -0.78980366112E+03  0.82139386712E+03  0.17212258150E+03 0.  0.
         24    2    3    3    0    0 -0.41662915749E+01 -0.18957111642E+02 -0.39646402347E+03  0.40541621692E+03  0.82473371253E+02 0.  0.
         -6    2    1    2    0  502 -0.96328553801E+02  0.10951113404E+03 -0.41549564693E+03  0.47270883101E+03  0.17188696151E+03 0.  0.
        -24    2    5    5    0    0 -0.12968175499E+03  0.60201846489E+02 -0.28832995940E+03  0.33222024089E+03  0.82428775743E+02 0.  0.
          5    1    3    3  501    0  0.10049484538E+03 -0.90554022400E+02 -0.39333963766E+03  0.41597765021E+03  0.47000000000E+01 0. -1.
        -13    1    4    4    0    0 -0.23597074006E+02 -0.29061160190E+02 -0.36593083518E+03  0.36784065717E+03  0.00000000000E+00 0.  1.
         14    1    4    4    0    0  0.19430782431E+02  0.10104048548E+02 -0.30533188287E+02  0.37575559741E+02  0.00000000000E+00 0. -1.
         -5    1    5    5    0  502  0.33353201189E+02  0.49309287553E+02 -0.12716568753E+03  0.14048859012E+03  0.47000000000E+01 0.  1.
         13    1    6    6    0    0 -0.24972663788E+02 -0.20919674556E+02 -0.57133899921E+02  0.65768907854E+02  0.00000000000E+00 0. -1.
        -14    1    6    6    0    0 -0.10470909120E+03  0.81121521045E+02 -0.23119605948E+03  0.26645133304E+03  0.00000000000E+00 0.  1.
</event>
<event>
12    1  0.9028446E-003  0.2026275E+03  0.7818608E-02  0.1147572E+00
         21   -1    0    0  501  502  0.00000000000E+00  0.00000000000E+00  0.97760590914E+03  0.97760590914E+03  0.00000000000E+00 0. -1.
         21   -1    0    0  502  503 -0.00000000000E+00 -0.00000000000E+00 -0.50488870477E+02  0.50488870477E+02  0.00000000000E+00 0. -1.
          6    2    1    2  501    0 -0.24906105575E+02 -0.10278397669E+03  0.67460042319E+03  0.70433170920E+03  0.17266315662E+03 0.  0.
         24    2    3    3    0    0  0.31941149863E+02 -0.10574736917E+03  0.56016669048E+03  0.57643502696E+03  0.79296128793E+02 0.  0.
         -6    2    1    2    0  503  0.24906105575E+02  0.10278397669E+03  0.25251661546E+03  0.32376307041E+03  0.17283814601E+03 0.  0.
        -24    2    5    5    0    0 -0.46336372389E+02  0.50786242054E+02  0.18338915016E+03  0.21160268733E+03  0.80111266998E+02 0.  0.
          5    1    3    3  501    0 -0.56847255438E+02  0.29633924745E+01  0.11443373271E+03  0.12789668224E+03  0.47000000000E+01 0. -1.
        -11    1    4    4    0    0 -0.25028174960E+02 -0.51671612812E+02  0.24130106503E+03  0.24803743487E+03  0.00000000000E+00 0.  1.
         12    1    4    4    0    0  0.56969324822E+02 -0.54075756355E+02  0.31886562545E+03  0.32839759209E+03  0.00000000000E+00 0. -1.
         -5    1    5    5    0  503  0.71242477964E+02  0.51997734638E+02  0.69127465307E+02  0.11216038308E+03  0.47000000000E+01 0.  1.
         13    1    6    6    0    0 -0.17731105423E+02  0.23087489803E+02  0.16534294138E+03  0.16788601058E+03  0.00000000000E+00 0. -1.
        -14    1    6    6    0    0 -0.28605266966E+02  0.27698752251E+02  0.18046208780E+02  0.43716676747E+02  0.00000000000E+00 0.  1.
</event>
<event>
12    1  0.9028446E-003  0.2431369E+03  0.7818608E-02  0.1118410E+00
         21   -1    0    0  503  502  0.00000000000E+00  0.00000000000E+00  0.20976647623E+03  0.20976647623E+03  0.00000000000E+00 0.  1.
         21   -1    0    0  501  503 -0.00000000000E+00 -0.00000000000E+00 -0.30064973697E+03  0.30064973697E+03  0.00000000000E+00 0. -1.
          6    2    1    2  501    0  0.41974119898E+02 -0.16604041543E+03  0.26495298734E+02  0.24042866089E+03  0.16665141410E+03 0.  0.
         24    2    3    3    0    0  0.25160366953E+02 -0.19001378234E+03  0.14513237940E+02  0.20844297049E+03  0.80619825896E+02 0.  0.
         -6    2    1    2    0  502 -0.41974119898E+02  0.16604041543E+03 -0.11737855948E+03  0.26998755232E+03  0.17258130225E+03 0.  0.
        -24    2    5    5    0    0  0.34155169092E+02  0.10226449918E+03 -0.28908591432E+02  0.13690088364E+03  0.79256179022E+02 0.  0.
          5    1    3    3  501    0  0.16813752945E+02  0.23973366908E+02  0.11982060794E+02  0.31985690392E+02  0.47000000000E+01 0. -1.
        -11    1    4    4    0    0  0.13934657995E+02 -0.82466538382E+02  0.46482546781E+02  0.95684543168E+02  0.00000000000E+00 0.  1.
         12    1    4    4    0    0  0.11225708958E+02 -0.10754724396E+03 -0.31969308841E+02  0.11275842733E+03  0.00000000000E+00 0. -1.
         -5    1    5    5    0  502 -0.76129288990E+02  0.63775916254E+02 -0.88469968044E+02  0.13308666869E+03  0.47000000000E+01 0.  1.
         13    1    6    6    0    0  0.12235711981E+02  0.82620560165E+02 -0.52954058148E+02  0.98893892046E+02  0.00000000000E+00 0. -1.
        -14    1    6    6    0    0  0.21919457110E+02  0.19643939016E+02  0.24045466716E+02  0.38006991589E+02  0.00000000000E+00 0.  1.
</event>
<event>
12    1  0.9028446E-003  0.2385714E+03  0.7818608E-02  0.1120778E+00
         21   -1    0    0  501  502  0.00000000000E+00  0.00000000000E+00  0.57002142056E+03  0.57002142056E+03  0.00000000000E+00 0.  1.
         21   -1    0    0  502  503 -0.00000000000E+00 -0.00000000000E+00 -0.11017113641E+03  0.11017113641E+03  0.00000000000E+00 0. -1.
          6    2    1    2  501    0 -0.16490489554E+03 -0.11422063353E+01  0.33447433792E+03  0.41083988703E+03  0.17239895832E+03 0.  0.
         24    2    3    3    0    0 -0.87706514539E+02  0.46508603255E+02  0.27333063730E+03  0.30133723039E+03  0.78987380404E+02 0.  0.
         -6    2    1    2    0  503  0.16490489554E+03  0.11422063353E+01  0.12537594622E+03  0.26935266994E+03  0.17215343071E+03 0.  0.
        -24    2    5    5    0    0  0.89478003740E+02  0.14748858543E+01 -0.97705192143E+00  0.12212326791E+03  0.83094220574E+02 0.  0.
          5    1    3    3  501    0 -0.77198381005E+02 -0.47650809590E+02  0.61143700629E+02  0.10950265664E+03  0.47000000000E+01 0. -1.
        -13    1    4    4    0    0 -0.89226846029E+02  0.94007267516E+01  0.19217175217E+03  0.21208438426E+03  0.00000000000E+00 0.  1.
         14    1    4    4    0    0  0.15203314897E+01  0.37107876503E+02  0.81158885126E+02  0.89252846124E+02  0.00000000000E+00 0. -1.
         -5    1    5    5    0  503  0.75426891805E+02 -0.33267951907E+00  0.12635299815E+03  0.14722940203E+03  0.47000000000E+01 0.  1.
         11    1    6    6    0    0  0.53455689774E+02  0.41569026934E+02 -0.60480213645E+01  0.67985831847E+02  0.00000000000E+00 0. -1.
        -12    1    6    6    0    0  0.36022313965E+02 -0.40094141079E+02  0.50709694430E+01  0.54137436062E+02  0.00000000000E+00 0.  1.
</event>
<event>
12    1  0.9028446E-003  0.2202274E+03  0.7818608E-02  0.1134096E+00
         21   -1    0    0  501  502  0.00000000000E+00  0.00000000000E+00  0.87196054071E+02  0.87196054071E+02  0.00000000000E+00 0. -1.
         21   -1    0    0  502  503 -0.00000000000E+00 -0.00000000000E+00 -0.63763891059E+03  0.63763891059E+03  0.00000000000E+00 0. -1.
          6    2    1    2  501    0 -0.12397975362E+02  0.13941851116E+03 -0.14057000918E+03  0.25954381383E+03  0.16736735873E+03 0.  0.
         24    2    3    3    0    0 -0.21653695859E+02  0.16049474011E+03 -0.14952155657E+03  0.23440229460E+03  0.79751461969E+02 0.  0.
         -6    2    1    2    0  503  0.12397975362E+02 -0.13941851116E+03 -0.40987284734E+03  0.46529115083E+03  0.17002609509E+03 0.  0.
        -24    2    5    5    0    0 -0.57336237939E+02 -0.75067392509E+02 -0.26004300787E+03  0.28787920712E+03  0.79558245031E+02 0.  0.
          5    1    3    3  501    0  0.92557204973E+01 -0.21076228948E+02  0.89515473880E+01  0.25141519231E+02  0.47000000000E+01 0. -1.
        -11    1    4    4    0    0 -0.27393202155E+02  0.87880656490E+02 -0.12945942271E+03  0.15884942379E+03  0.00000000000E+00 0.  1.
         12    1    4    4    0    0  0.57395062955E+01  0.72614083619E+02 -0.20062133859E+02  0.75552870808E+02  0.00000000000E+00 0. -1.
         -5    1    5    5    0  503  0.69734213301E+02 -0.64351118651E+02 -0.14982983947E+03  0.17741194371E+03  0.47000000000E+01 0.  1.
         13    1    6    6    0    0  0.54140162034E+01 -0.58214260520E+02 -0.11870031836E+03  0.13231771339E+03  0.00000000000E+00 0. -1.
        -14    1    6    6    0    0 -0.62750254143E+02 -0.16853131989E+02 -0.14134268951E+03  0.15556149373E+03  0.00000000000E+00 0.  1.
</event>
<event>
12    1  0.9028446E-003  0.3533984E+03  0.7818608E-02  0.1061508E+00
         21   -1    0    0  501  502  0.00000000000E+00  0.00000000000E+00  0.19291729665E+03  0.19291729665E+03  0.00000000000E+00 0.  1.
         21   -1    0    0  502  503 -0.00000000000E+00 -0.00000000000E+00 -0.90163206426E+03  0.90163206426E+03  0.00000000000E+00 0. -1.
          6    2    1    2  501    0 -0.18194015124E+03  0.24853305319E+03 -0.59908857214E+02  0.35573980394E+03  0.16760322125E+03 0.  0.
         24    2    3    3    0    0 -0.14449599857E+03  0.12339971330E+03 -0.84731396940E+02  0.22270347131E+03  0.79440818611E+02 0.  0.
         -6    2    1    2    0  503  0.18194015124E+03 -0.24853305319E+03 -0.64880591040E+03  0.73880955697E+03  0.17326152185E+03 0.  0.
        -24    2    5    5    0    0  0.19934820073E+03 -0.24130105500E+03 -0.54878550074E+03  0.63691984046E+03  0.80842149055E+02 0.  0.
          5    1    3    3  501    0 -0.37444152671E+02  0.12513333989E+03  0.24822539726E+02  0.13303633263E+03  0.47000000000E+01 0. -1.
        -11    1    4    4    0    0 -0.13993662976E+03  0.12864983862E+03 -0.63579622332E+02  0.20043804455E+03  0.00000000000E+00 0.  1.
         12    1    4    4    0    0 -0.45593688024E+01 -0.52501253202E+01 -0.21151774608E+02  0.22265426760E+02  0.00000000000E+00 0. -1.
         -5    1    5    5    0  503 -0.17408049490E+02 -0.72319981825E+01 -0.10002040965E+03  0.10188971652E+03  0.47000000000E+01 0.  1.
         13    1    6    6    0    0  0.27479355055E+01 -0.40393505513E+02 -0.49550231531E+02  0.63987591625E+02  0.00000000000E+00 0. -1.
        -14    1    6    6    0    0  0.19660026522E+03 -0.20090754949E+03 -0.49923526921E+03  0.57293224883E+03  0.00000000000E+00 0.  1.
</event>
<event>
12    1  0.9028446E-003  0.1763181E+03  0.7818608E-02  0.1171732E+00
         21   -1    0    0  503  502  0.00000000000E+00  0.00000000000E+00  0.10851609454E+03  0.10851609454E+03  0.00000000000E+00 0. -1.
         21   -1    0    0  501  503 -0.00000000000E+00 -0.00000000000E+00 -0.29530616849E+03  0.29530616849E+03  0.00000000000E+00 0. -1.
          6    2    1    2  501    0 -0.11906752287E+01 -0.34291074003E+02 -0.54956751934E+02  0.18468436370E+03  0.17294731610E+03 0.  0.
         24    2    3    3    0    0 -0.66289249495E+02 -0.22173808357E+02 -0.44077642918E+02  0.11741551867E+03  0.83412367454E+02 0.  0.
         -6    2    1    2    0  502  0.11906752287E+01  0.34291074003E+02 -0.13183332201E+03  0.21913789933E+03  0.17165109573E+03 0.  0.
        -24    2    5    5    0    0 -0.38676093838E+02  0.60333809358E+02 -0.36409928919E+02  0.11238914154E+03  0.78546975918E+02 0.  0.
          5    1    3    3  501    0  0.65098574266E+02 -0.12117265646E+02 -0.10879109016E+02  0.67268845026E+02  0.47000000000E+01 0. -1.
        -13    1    4    4    0    0 -0.23029618777E+01 -0.23272335020E+02  0.17030656806E+02  0.28930061907E+02  0.00000000000E+00 0.  1.
         14    1    4    4    0    0 -0.63986287617E+02  0.10985266630E+01 -0.61108299724E+02  0.88485456765E+02  0.00000000000E+00 0. -1.
         -5    1    5    5    0  502  0.39866769067E+02 -0.26042735355E+02 -0.95423393096E+02  0.10674875779E+03  0.47000000000E+01 0.  1.
         13    1    6    6    0    0  0.16733941645E+02  0.16845434216E+02  0.12308105884E+02  0.26744773833E+02  0.00000000000E+00 0. -1.
        -14    1    6    6    0    0 -0.55410035483E+02  0.43488375142E+02 -0.48718034803E+02  0.85644367706E+02  0.00000000000E+00 0.  1.
</event>
<event>
12    1  0.9028446E-003  0.2377038E+03  0.7818608E-02  0.1121740E+00
         21   -1    0    0  503  502  0.00000000000E+00  0.00000000000E+00  0.21376088671E+04  0.21376088671E+04  0.00000000000E+00 0. -1.
         21   -1    0    0  501  503 -0.00000000000E+00 -0.00000000000E+00 -0.37816605807E+02  0.37816605807E+02  0.00000000000E+00 0. -1.
          6    2    1    2  501    0 -0.72882829279E+01 -0.16220289955E+03  0.44985948412E+03  0.50879923792E+03  0.17360935854E+03 0.  0.
         24    2    3    3    0    0  0.55894039606E+02 -0.12614772223E+03  0.36015933443E+03  0.39321295610E+03  0.76578660081E+02 0.  0.
         -6    2    1    2    0  502  0.72882829279E+01  0.16220289955E+03  0.16499327771E+04  0.16666262349E+04  0.17029955447E+03 0.  0.
        -24    2    5    5    0    0  0.23952815020E+01  0.57510919262E+02  0.12243602864E+04  0.12283131197E+04  0.79885954308E+02 0.  0.
          5    1    3    3  501    0 -0.63182322534E+02 -0.36055177311E+02  0.89700149693E+02  0.11558628183E+03  0.47000000000E+01 0. -1.
        -13    1    4    4    0    0  0.48435387729E+02 -0.32051930731E+02  0.90729207609E+02  0.10772697973E+03  0.00000000000E+00 0.  1.
         14    1    4    4    0    0  0.74586518773E+01 -0.94095791504E+02  0.26943012682E+03  0.28548597637E+03  0.00000000000E+00 0. -1.
         -5    1    5    5    0  502  0.48930014259E+01  0.10469198028E+03  0.42557249069E+03  0.43831311528E+03  0.47000000000E+01 0.  1.
         11    1    6    6    0    0 -0.18116212981E+02  0.66450126493E+02  0.67672762478E+03  0.68022356224E+03  0.00000000000E+00 0. -1.
        -12    1    6    6    0    0  0.20511494483E+02 -0.89392072308E+01  0.54763266166E+03  0.54808955741E+03  0.00000000000E+00 0.  1.
</event>
<event>
12    1  0.9028446E-003  0.1847235E+03  0.7818608E-02  0.1163541E+00
         21   -1    0    0  503  502  0.00000000000E+00  0.00000000000E+00  0.26992880951E+03  0.26992880951E+03  0.00000000000E+00 0. -1.
         21   -1    0    0  501  503 -0.00000000000E+00 -0.00000000000E+00 -0.13707925696E+03  0.13707925696E+03  0.00000000000E+00 0. -1.
          6    2    1    2  501    0 -0.65393013523E+02  0.11839171025E+02  0.80503758239E+01  0.18489881397E+03  0.17235530357E+03 0.  0.
         24    2    3    3    0    0 -0.91073905362E+02 -0.32551170432E+01 -0.40553089902E+02  0.12769975262E+03  0.79734695679E+02 0.  0.
         -6    2    1    2    0  502  0.65393013523E+02 -0.11839171025E+02  0.12479917673E+03  0.22210925250E+03  0.17129294599E+03 0.  0.
        -24    2    5    5    0    0 -0.18799698010E+02 -0.11260463559E+02  0.14457684425E+02  0.83234911811E+02  0.78986069787E+02 0.  0.
          5    1    3    3  501    0  0.25680891838E+02  0.15094288069E+02  0.48603465725E+02  0.57199061342E+02  0.47000000000E+01 0. -1.
        -11    1    4    4    0    0  0.60313993496E+01  0.19430181150E+02 -0.13357722312E+02  0.24338004499E+02  0.00000000000E+00 0.  1.
         12    1    4    4    0    0 -0.97105304711E+02 -0.22685298194E+02 -0.27195367590E+02  0.10336174813E+03  0.00000000000E+00 0. -1.
         -5    1    5    5    0  502  0.84192711534E+02 -0.57870746614E+00  0.11034149231E+03  0.13887434069E+03  0.47000000000E+01 0.  1.
         11    1    6    6    0    0 -0.29984348813E+02  0.28039864404E+02  0.57017363997E+01  0.41446410792E+02  0.00000000000E+00 0. -1.
        -12    1    6    6    0    0  0.11184650802E+02 -0.39300327964E+02  0.87559480253E+01  0.41788501019E+02  0.00000000000E+00 0.  1.
</event>
<event>
12    1  0.9028446E-003  0.2236074E+03  0.7818608E-02  0.1131554E+00
         21   -1    0    0  503  502  0.00000000000E+00  0.00000000000E+00  0.36922501713E+03  0.36922501713E+03  0.00000000000E+00 0. -1.
         21   -1    0    0  501  503 -0.00000000000E+00 -0.00000000000E+00 -0.13467635045E+03  0.13467635045E+03  0.00000000000E+00 0.  1.
          6    2    1    2  501    0  0.36446474058E+02 -0.13621466824E+03  0.10488564362E+03  0.24698433037E+03  0.17354388464E+03 0.  0.
         24    2    3    3    0    0  0.78961159795E+02 -0.42440321240E+02  0.67417218948E+02  0.13731619687E+03  0.79212441496E+02 0.  0.
         -6    2    1    2    0  502 -0.36446474058E+02  0.13621466824E+03  0.12966302306E+03  0.25691703722E+03  0.17120479885E+03 0.  0.
        -24    2    5    5    0    0 -0.27559884505E+02  0.10883622054E+00  0.44297084597E+02  0.95941255090E+02  0.80516666878E+02 0.  0.
          5    1    3    3  501    0 -0.42514685737E+02 -0.93774346997E+02  0.37468424675E+02  0.10966813350E+03  0.47000000000E+01 0. -1.
        -13    1    4    4    0    0  0.46189638904E+02 -0.25943776439E+02  0.82173662135E+02  0.97770512051E+02  0.00000000000E+00 0.  1.
         14    1    4    4    0    0  0.32771520891E+02 -0.16496544802E+02 -0.14756443188E+02  0.39545684815E+02  0.00000000000E+00 0. -1.
         -5    1    5    5    0  502 -0.88865895530E+01  0.13610583202E+03  0.85365938462E+02  0.16097578213E+03  0.47000000000E+01 0.  1.
         13    1    6    6    0    0 -0.43589866302E+02 -0.17771339428E+02  0.52548331160E+02  0.70549444058E+02  0.00000000000E+00 0. -1.
        -14    1    6    6    0    0  0.16029981797E+02  0.17880175649E+02 -0.82512465627E+01  0.25391811032E+02  0.00000000000E+00 0.  1.
</event>
<event>
12    1  0.9028446E-003  0.2083350E+03  0.7818608E-02  0.1142944E+00
         21   -1    0    0  503  502  0.00000000000E+00  0.00000000000E+00  0.42310289572E+03  0.42310289572E+03  0.00000000000E+00 0.  1.
         21   -1    0    0  501  503 -0.00000000000E+00 -0.00000000000E+00 -0.11704676160E+03  0.11704676160E+03  0.00000000000E+00 0.  1.
          6    2    1    2  501    0  0.99269540969E+02 -0.62462430397E+02  0.24830248303E+03  0.32395773038E+03  0.17186765552E+03 0.  0.
         24    2    3    3    0    0  0.12214888501E+03 -0.62803744149E+02  0.25426950541E+03  0.29984805940E+03  0.79945087114E+02 0.  0.
         -6    2    1    2    0  502 -0.99269540969E+02  0.62462430397E+02  0.57753651085E+02  0.21619192694E+03  0.17218440140E+03 0.  0.
        -24    2    5    5    0    0 -0.67036737795E+02  0.35099537017E+02 -0.34259311524E+02  0.11482054625E+03  0.79272666809E+02 0.  0.
          5    1    3    3  501    0 -0.22879344038E+02  0.34131375185E+00 -0.59670223806E+01  0.24109670980E+02  0.47000000000E+01 0. -1.
        -13    1    4    4    0    0 -0.29558567665E+01 -0.18049773538E+02  0.72021821497E+02  0.74307968521E+02  0.00000000000E+00 0.  1.
         14    1    4    4    0    0  0.12510474177E+03 -0.44753970611E+02  0.18224768392E+03  0.22554009088E+03  0.00000000000E+00 0. -1.
         -5    1    5    5    0  502 -0.32232803173E+02  0.27362893380E+02  0.92012962608E+02  0.10137138069E+03  0.47000000000E+01 0.  1.
         13    1    6    6    0    0 -0.36774486897E+02  0.40709942141E+02  0.14876069438E+02  0.56841531626E+02  0.00000000000E+00 0. -1.
        -14    1    6    6    0    0 -0.30262250898E+02 -0.56104051239E+01 -0.49135380961E+02  0.57979014628E+02  0.00000000000E+00 0.  1.
</event>
<event>
12    1  0.9028446E-003  0.2423978E+03  0.7818608E-02  0.1118252E+00
         21   -1    0    0  501  502  0.00000000000E+00  0.00000000000E+00  0.83372379971E+03  0.83372379971E+03  0.00000000000E+00 0. -1.
         21   -1    0    0  502  503 -0.00000000000E+00 -0.00000000000E+00 -0.10835665837E+03  0.10835665837E+03  0.00000000000E+00 0. -1.
          6    2    1    2  501    0  0.35717620354E+02  0.16777253339E+03  0.64135878143E+03  0.68553790746E+03  0.17087353419E+03 0.  0.
         24    2    3    3    0    0  0.33300536676E+02  0.31159975542E+02  0.15131898668E+03  0.17678460409E+03  0.79217994763E+02 0.  0.
         -6    2    1    2    0  503 -0.35717620354E+02 -0.16777253339E+03  0.84008359915E+02  0.25654255061E+03  0.17126968318E+03 0.  0.
        -24    2    5    5    0    0 -0.54619152204E+02 -0.48282314400E+02 -0.60702720060E+01  0.10564049540E+03  0.76214384429E+02 0.  0.
          5    1    3    3  501    0  0.24170836783E+01  0.13661255785E+03  0.49003979474E+03  0.50875330337E+03  0.47000000000E+01 0. -1.
        -11    1    4    4    0    0  0.23168752982E+01  0.48826876454E+02  0.52535249079E+02  0.71759209661E+02  0.00000000000E+00 0.  1.
         12    1    4    4    0    0  0.30983661378E+02 -0.17666900912E+02  0.98783737606E+02  0.10502539443E+03  0.00000000000E+00 0. -1.
         -5    1    5    5    0  503  0.18901531850E+02 -0.11949021899E+03  0.90078631921E+02  0.15090205522E+03  0.47000000000E+01 0.  1.
         11    1    6    6    0    0 -0.65353498547E+02 -0.57311522229E+02  0.60068481373E+01  0.87130778586E+02  0.00000000000E+00 0. -1.
        -12    1    6    6    0    0  0.10734346343E+02  0.90292078286E+01 -0.12077120143E+02  0.18509716810E+02  0.00000000000E+00 0.  1.
</event>
<event>
12    1  0.9028446E-003  0.2815359E+03  0.7818608E-02  0.1095111E+00
         21   -1    0    0  501  502  0.00000000000E+00  0.00000000000E+00  0.17839889949E+03  0.17839889949E+03  0.00000000000E+00 0.  1.
         21   -1    0    0  502  503 -0.00000000000E+00 -0.00000000000E+00 -0.48164185437E+03  0.48164185437E+03  0.00000000000E+00 0. -1.
          6    2    1    2  501    0 -0.19859820680E+02  0.21830748482E+03 -0.24758315211E+03  0.37491317920E+03  0.17666325120E+03 0.  0.
         24    2    3    3    0    0 -0.31310117990E+02  0.20154883542E+03 -0.12820742565E+03  0.25373308304E+03  0.79630878989E+02 0.  0.
         -6    2    1    2    0  503  0.19859820680E+02 -0.21830748482E+03 -0.55659802771E+02  0.28512757465E+03  0.17362934596E+03 0.  0.
        -24    2    5    5    0    0 -0.74607727437E+01 -0.38888955295E+02  0.15509402772E+02  0.90128678813E+02  0.79464603418E+02 0.  0.
          5    1    3    3  501    0  0.11450297310E+02  0.16758649402E+02 -0.11937572646E+03  0.12118009616E+03  0.47000000000E+01 0. -1.
        -11    1    4    4    0    0  0.16247238537E+02  0.14101058761E+03 -0.81051935009E+02  0.16345450360E+03  0.00000000000E+00 0.  1.
         12    1    4    4    0    0 -0.47557356527E+02  0.60538247803E+02 -0.47155490643E+02  0.90278579434E+02  0.00000000000E+00 0. -1.
         -5    1    5    5    0  503  0.27320593424E+02 -0.17941852952E+03 -0.71169205542E+02  0.19499889584E+03  0.47000000000E+01 0.  1.
         13    1    6    6    0    0 -0.95810106957E+01  0.21427173986E+02 -0.87950255333E+01  0.25065355077E+02  0.00000000000E+00 0. -1.
        -14    1    6    6    0    0  0.21202379520E+01 -0.60316129281E+02  0.24304428305E+02  0.65063323736E+02  0.00000000000E+00 0.  1.
</event>
<event>
12    1  0.9028446E-003  0.1745698E+03  0.7818608E-02  0.1173480E+00
         21   -1    0    0  503  502  0.00000000000E+00  0.00000000000E+00  0.34884246734E+03  0.34884246734E+03  0.00000000000E+00 0. -1.
         21   -1    0    0  501  503 -0.00000000000E+00 -0.00000000000E+00 -0.86897064572E+02  0.86897064572E+02  0.00000000000E+00 0. -1.
          6    2    1    2  501    0  0.70824273584E+01 -0.27744558198E+02  0.12205156675E+03  0.21300518306E+03  0.17220540577E+03 0.  0.
         24    2    3    3    0    0  0.65303803726E+02 -0.45527986932E+02  0.91136854622E+02  0.14456697421E+03  0.79096772298E+02 0.  0.
         -6    2    1    2    0  502 -0.70824273584E+01  0.27744558198E+02  0.13989383602E+03  0.22273434885E+03  0.17093970726E+03 0.  0.
        -24    2    5    5    0    0 -0.34845373501E+02  0.55992933188E+02  0.14847416607E+03  0.18193650661E+03  0.81895700900E+02 0.  0.
          5    1    3    3  501    0 -0.58221376367E+02  0.17783428733E+02  0.30914712127E+02  0.68438208842E+02  0.47000000000E+01 0. -1.
        -11    1    4    4    0    0 -0.15682627749E+02 -0.12112999381E+02  0.25562168105E+01  0.19980085373E+02  0.00000000000E+00 0.  1.
         12    1    4    4    0    0  0.80986431475E+02 -0.33414987551E+02  0.88580637812E+02  0.12458688884E+03  0.00000000000E+00 0. -1.
         -5    1    5    5    0  502  0.27762946142E+02 -0.28248374989E+02 -0.85803300519E+01  0.40797842245E+02  0.47000000000E+01 0.  1.
         11    1    6    6    0    0  0.96892883931E+00  0.99764137614E+01 -0.93360807342E+01  0.13697812165E+02  0.00000000000E+00 0. -1.
        -12    1    6    6    0    0 -0.35814302340E+02  0.46016519426E+02  0.15781024680E+03  0.16823869444E+03  0.00000000000E+00 0.  1.
</event>
<event>
12    1  0.9028446E-003  0.1871257E+03  0.7818608E-02  0.1161223E+00
         21   -1    0    0  503  502  0.00000000000E+00  0.00000000000E+00  0.17098126376E+03  0.17098126376E+03  0.00000000000E+00 0.  1.
         21   -1    0    0  501  503 -0.00000000000E+00 -0.00000000000E+00 -0.21317685774E+03  0.21317685774E+03  0.00000000000E+00 0.  1.
          6    2    1    2  501    0 -0.62383649590E+02  0.38609612627E+02 -0.60669417470E+02  0.19612275070E+03  0.17146700324E+03 0.  0.
         24    2    3    3    0    0 -0.43543603253E+02  0.81881493124E+02 -0.59973007546E+01  0.12374503773E+03  0.81708276490E+02 0.  0.
         -6    2    1    2    0  502  0.62383649590E+02 -0.38609612627E+02  0.18473823493E+02  0.18803537080E+03  0.17214411577E+03 0.  0.
        -24    2    5    5    0    0  0.29440127163E+02 -0.19500201702E+02  0.78747855658E+02  0.11658262971E+03  0.78379243596E+02 0.  0.
          5    1    3    3  501    0 -0.18840046337E+02 -0.43271880497E+02 -0.54672116716E+02  0.72377712964E+02  0.47000000000E+01 0. -1.
        -13    1    4    4    0    0  0.72699783437E+01  0.18736228227E+02  0.29145444765E+02  0.35402765201E+02  0.00000000000E+00 0.  1.
         14    1    4    4    0    0 -0.50813581597E+02  0.63145264897E+02 -0.35142745520E+02  0.88342272533E+02  0.00000000000E+00 0. -1.
         -5    1    5    5    0  502  0.32943522427E+02 -0.19109410925E+02 -0.60274032165E+02  0.71452741090E+02  0.47000000000E+01 0.  1.
         13    1    6    6    0    0  0.11409958864E+02  0.25008758751E+02  0.40577234868E+01  0.27786512833E+02  0.00000000000E+00 0. -1.
        -14    1    6    6    0    0  0.18030168299E+02 -0.44508960453E+02  0.74690132171E+02  0.88796116881E+02  0.00000000000E+00 0.  1.
</event>
<event>
12    1  0.9028446E-003  0.1898844E+03  0.7818608E-02  0.1158652E+00
         21   -1    0    0  503  502  0.00000000000E+00  0.00000000000E+00  0.70882758136E+02  0.70882758136E+02  0.00000000000E+00 0.  1.
         21   -1    0    0  501  503 -0.00000000000E+00 -0.00000000000E+00 -0.69214975844E+03  0.69214975844E+03  0.00000000000E+00 0.  1.
          6    2    1    2  501    0 -0.56546246069E+02  0.58522380139E+02 -0.50737891062E+03  0.54161305208E+03  0.17114027090E+03 0.  0.
         24    2    3    3    0    0 -0.54777478835E+02  0.71493310042E+02 -0.51301999237E+03  0.52660354298E+03  0.77523630883E+02 0.  0.
         -6    2    1    2    0  502  0.56546246069E+02 -0.58522380139E+02 -0.11388808968E+03  0.22141946449E+03  0.17156262810E+03 0.  0.
        -24    2    5    5    0    0 -0.49232253882E+01 -0.66810883269E+02 -0.12012410410E+03  0.15890408174E+03  0.79578731681E+02 0.  0.
          5    1    3    3  501    0 -0.17687672338E+01 -0.12970929902E+02  0.56410817510E+01  0.15009509098E+02  0.47000000000E+01 0. -1.
        -13    1    4    4    0    0  0.34206225721E+01  0.12123297790E+02 -0.25938290361E+03  0.25968859369E+03  0.00000000000E+00 0.  1.
         14    1    4    4    0    0 -0.58198101407E+02  0.59370012252E+02 -0.25363708876E+03  0.26691494929E+03  0.00000000000E+00 0. -1.
         -5    1    5    5    0  502  0.61469471457E+02  0.82885031300E+01  0.62360144113E+01  0.62515382756E+02  0.47000000000E+01 0.  1.
         11    1    6    6    0    0 -0.33539456529E+01 -0.17671687464E+02 -0.10633100217E+03  0.10784164090E+03  0.00000000000E+00 0. -1.
        -12    1    6    6    0    0 -0.15692797353E+01 -0.49139195806E+02 -0.13793101924E+02  0.51062440835E+02  0.00000000000E+00 0.  1.
</event>
<event>
12    1  0.9028446E-003  0.2123526E+03  0.7818608E-02  0.1140275E+00
         21   -1    0    0  503  502  0.00000000000E+00  0.00000000000E+00  0.17410424403E+03  0.17410424403E+03  0.00000000000E+00 0.  1.
         21   -1    0    0  501  503 -0.00000000000E+00 -0.00000000000E+00 -0.46093746735E+03  0.46093746735E+03  0.00000000000E+00 0. -1.
          6    2    1    2  501    0  0.92255845568E+02 -0.74605222309E+02 -0.35483187231E+03  0.41206764983E+03  0.17267602668E+03 0.  0.
         24    2    3    3    0    0  0.14759385140E+02  0.22852199397E+02 -0.14830467403E+03  0.17086395157E+03  0.80375065413E+02 0.  0.
         -6    2    1    2    0  502 -0.92255845568E+02  0.74605222309E+02  0.67998648988E+02  0.22297406155E+03  0.17611512037E+03 0.  0.
        -24    2    5    5    0    0 -0.81656490084E+02  0.55359343995E+02 -0.23588372141E+02  0.12867123759E+03  0.79167144329E+02 0.  0.
          5    1    3    3  501    0  0.77496460428E+02 -0.97457421706E+02 -0.20652719828E+03  0.24120369826E+03  0.47000000000E+01 0. -1.
        -11    1    4    4    0    0 -0.16666575453E+02 -0.18058187904E+02 -0.88671721383E+02  0.92013841680E+02  0.00000000000E+00 0.  1.
         12    1    4    4    0    0  0.31425960593E+02  0.40910387301E+02 -0.59632952648E+02  0.78850109891E+02  0.00000000000E+00 0. -1.
         -5    1    5    5    0  502 -0.10599355484E+02  0.19245878314E+02  0.91587021129E+02  0.94302823966E+02  0.47000000000E+01 0.  1.
         11    1    6    6    0    0 -0.94277484333E+02  0.44262269407E+02 -0.59683185511E+01  0.10432168217E+03  0.00000000000E+00 0. -1.
        -12    1    6    6    0    0  0.12620994249E+02  0.11097074588E+02 -0.17620053590E+02  0.24349555412E+02  0.00000000000E+00 0.  1.
</event>
<event>
12    1  0.9028446E-003  0.2483748E+03  0.7818608E-02  0.1114805E+00
         21   -1    0    0  503  502  0.00000000000E+00  0.00000000000E+00  0.11397708474E+04  0.11397708474E+04  0.00000000000E+00 0.  1.
         21   -1    0    0  501  503 -0.00000000000E+00 -0.00000000000E+00 -0.56790931041E+02  0.56790931041E+02  0.00000000000E+00 0. -1.
          6    2    1    2  501    0  0.10778369438E+03  0.14232404230E+03  0.39422299451E+03  0.46438958732E+03  0.16844127054E+03 0.  0.
         24    2    3    3    0    0  0.17388147228E+02  0.61581354172E+02  0.83858255938E+02  0.13116429179E+03  0.77956741255E+02 0.  0.
         -6    2    1    2    0  502 -0.10778369438E+03 -0.14232404230E+03  0.68875692189E+03  0.73217219116E+03  0.17267472967E+03 0.  0.
        -24    2    5    5    0    0  0.11095978657E+02 -0.45472445564E+02  0.24410304016E+03  0.26179811345E+03  0.82225871468E+02 0.  0.
          5    1    3    3  501    0  0.90395547155E+02  0.80742688124E+02  0.31036473857E+03  0.33322529552E+03  0.47000000000E+01 0. -1.
        -13    1    4    4    0    0  0.33756470538E+02  0.20834757521E+02  0.77140034651E+02  0.86741981590E+02  0.00000000000E+00 0.  1.
         14    1    4    4    0    0 -0.16368323310E+02  0.40746596651E+02  0.67182212873E+01  0.44422310204E+02  0.00000000000E+00 0. -1.
         -5    1    5    5    0  502 -0.11887967304E+03 -0.96851596731E+02  0.44465388173E+03  0.47037407772E+03  0.47000000000E+01 0.  1.
         11    1    6    6    0    0 -0.27427838345E+01 -0.67060986464E+02  0.19768329739E+03  0.20876634029E+03  0.00000000000E+00 0. -1.
        -12    1    6    6    0    0  0.13838762492E+02  0.21588540900E+02  0.46419742771E+02  0.53031773160E+02  0.00000000000E+00 0.  1.
</event>
<event>
12    1  0.9028446E-003  0.1768504E+03  0.7818608E-02  0.1171336E+00
         21   -1    0    0  503  502  0.00000000000E+00  0.00000000000E+00  0.21023556353E+03  0.21023556353E+03  0.00000000000E+00 0.  1.
         21   -1    0    0  501  503 -0.00000000000E+00 -0.00000000000E+00 -0.25230426559E+03  0.25230426559E+03  0.00000000000E+00 0.  1.
          6    2    1    2  501    0 -0.32180968276E+02 -0.20630432070E+02 -0.17032666553E+03  0.24553458717E+03  0.17266971668E+03 0.  0.
         24    2    3    3    0    0 -0.14644376456E+02  0.28073568845E+02 -0.17435735374E+03  0.19340064232E+03  0.77464434546E+02 0.  0.
         -6    2    1    2    0  502  0.32180968276E+02  0.20630432070E+02  0.12825796347E+03  0.21700524196E+03  0.17082136985E+03 0.  0.
        -24    2    5    5    0    0  0.61209901876E+02 -0.11596695314E+02  0.13970468334E+03  0.17190109447E+03  0.78431194697E+02 0.  0.
          5    1    3    3  501    0 -0.17536591820E+02 -0.48704000915E+02  0.40306882079E+01  0.52133944846E+02  0.47000000000E+01 0. -1.
        -13    1    4    4    0    0 -0.41839105553E+02  0.16193317985E+01 -0.12014164130E+03  0.12722871910E+03  0.00000000000E+00 0.  1.
         14    1    4    4    0    0  0.27194729097E+02  0.26454237047E+02 -0.54215712437E+02  0.66171923226E+02  0.00000000000E+00 0. -1.
         -5    1    5    5    0  502 -0.29028933600E+02  0.32227127383E+02 -0.11446719870E+02  0.45104147494E+02  0.47000000000E+01 0.  1.
         13    1    6    6    0    0  0.32422568121E+02  0.98542033056E+01  0.72321469867E+01  0.34650139919E+02  0.00000000000E+00 0. -1.
        -14    1    6    6    0    0  0.28787333755E+02 -0.21450898619E+02  0.13247253635E+03  0.13725095455E+03  0.00000000000E+00 0.  1.
</event>
<event>
12    1  0.9028446E-003  0.1774457E+03  0.7818608E-02  0.1171179E+00
         21   -1    0    0  501  502  0.00000000000E+00  0.00000000000E+00  0.12169073660E+03  0.12169073660E+03  0.00000000000E+00 0.  1.
         21   -1    0    0  502  503 -0.00000000000E+00 -0.00000000000E+00 -0.60639541650E+03  0.60639541650E+03  0.00000000000E+00 0.  1.
          6    2    1    2  501    0 -0.98669533851E+01  0.30415042309E+02  0.34290345944E+02  0.18072857852E+03  0.17454099720E+03 0.  0.
         24    2    3    3    0    0 -0.15967335493E-01  0.61998271006E+02  0.76205658607E+02  0.12712330176E+03  0.80679895787E+02 0.  0.
         -6    2    1    2    0  503  0.98669533851E+01 -0.30415042309E+02 -0.51899502585E+03  0.54735757457E+03  0.17094457003E+03 0.  0.
        -24    2    5    5    0    0 -0.48896792247E+02 -0.45472609790E+02 -0.23264901186E+03  0.25461871849E+03  0.79034641455E+02 0.  0.
          5    1    3    3  501    0 -0.98509860496E+01 -0.31583228696E+02 -0.41915312664E+02  0.53605276762E+02  0.47000000000E+01 0. -1.
        -13    1    4    4    0    0  0.39364663291E+02  0.41963230524E+02  0.41600754051E+02  0.71000789923E+02  0.00000000000E+00 0.  1.
         14    1    4    4    0    0 -0.39380630627E+02  0.20035040481E+02  0.34604904556E+02  0.56122511838E+02  0.00000000000E+00 0. -1.
         -5    1    5    5    0  503  0.58763745632E+02  0.15057567481E+02 -0.28634601398E+03  0.29273885609E+03  0.47000000000E+01 0.  1.
         13    1    6    6    0    0  0.17571891884E+02 -0.29065213896E+02 -0.60969581495E+02  0.69791460158E+02  0.00000000000E+00 0. -1.
        -14    1    6    6    0    0 -0.66468684131E+02 -0.16407395894E+02 -0.17167943037E+03  0.18482725833E+03  0.00000000000E+00 0.  1.
</event>
<event>
12    1  0.9028446E-003  0.2025290E+03  0.7818608E-02  0.1148165E+00
         21   -1    0    0  501  502  0.00000000000E+00  0.00000000000E+00  0.45264199840E+03  0.45264199840E+03  0.00000000000E+00 0.  1.
         21   -1    0    0  502  503 -0.00000000000E+00 -0.00000000000E+00 -0.89970615637E+02  0.89970615637E+02  0.00000000000E+00 0.  1.
          6    2    1    2  501    0 -0.49150837365E+02  0.89622207880E+02  0.15974367641E+03  0.25591129125E+03  0.17182724428E+03 0.  0.
         24    2    3    3    0    0 -0.16586270429E+02 -0.19392166697E+01  0.19215550899E+02  0.84989702367E+02  0.81087281272E+02 0.  0.
         -6    2    1    2    0  503  0.49150837365E+02 -0.89622207880E+02  0.20292770636E+03  0.28670132279E+03  0.17484292815E+03 0.  0.
        -24    2    5    5    0    0  0.37800280155E+02 -0.64410516158E+02  0.36376809753E+02  0.11780562804E+03  0.83530341419E+02 0.  0.
          5    1    3    3  501    0 -0.32564566935E+02  0.91561424550E+02  0.14052812551E+03  0.17092158888E+03  0.47000000000E+01 0. -1.
        -13    1    4    4    0    0 -0.14089562462E+02  0.34912134672E+02  0.28126230135E+02  0.46994230916E+02  0.00000000000E+00 0.  1.
         14    1    4    4    0    0 -0.24967079670E+01 -0.36851351342E+02 -0.89106792357E+01  0.37995471452E+02  0.00000000000E+00 0. -1.
         -5    1    5    5    0  503  0.11350557210E+02 -0.25211691723E+02  0.16655089660E+03  0.16889569476E+03  0.47000000000E+01 0.  1.
         11    1    6    6    0    0 -0.63928679641E+01  0.91205374674E+01  0.29742923288E+02  0.31759950413E+02  0.00000000000E+00 0. -1.
        -12    1    6    6    0    0  0.44193148119E+02 -0.73531053625E+02  0.66338864648E+01  0.86045677623E+02  0.00000000000E+00 0.  1.
</event>
<event>
12    1  0.9028446E-003  0.1888963E+03  0.7818608E-02  0.1163196E+00
         21   -1    0    0  501  502  0.00000000000E+00  0.00000000000E+00  0.16309530862E+03  0.16309530862E+03  0.00000000000E+00 0.  1.
         21   -1    0    0  502  503 -0.00000000000E+00 -0.00000000000E+00 -0.28114908765E+03  0.28114908765E+03  0.00000000000E+00 0.  1.
          6    2    1    2  501    0  0.36570892407E+01  0.25868750060E+02  0.61335970782E+02  0.18374008198E+03  0.17121842740E+03 0.  0.
         24    2    3    3    0    0 -0.37239726433E+02  0.34266793190E+02  0.92336670497E+02  0.13152696061E+03  0.78817956758E+02 0.  0.
         -6    2    1    2    0  503 -0.36570892407E+01 -0.25868750060E+02 -0.17938974981E+03  0.26050431429E+03  0.18708086192E+03 0.  0.
        -24    2    5    5    0    0  0.69305167809E+02  0.12398015119E+01 -0.68373145812E+02  0.12483876639E+03  0.78135057009E+02 0.  0.
          5    1    3    3  501    0  0.40896815674E+02 -0.83980431304E+01 -0.31000699716E+02  0.52213121374E+02  0.47000000000E+01 0. -1.
        -11    1    4    4    0    0 -0.26279203639E+02 -0.10861946128E+02  0.29980573240E+00  0.28437093752E+02  0.00000000000E+00 0.  1.
         12    1    4    4    0    0 -0.10960522795E+02  0.45128739318E+02  0.92036864765E+02  0.10308986685E+03  0.00000000000E+00 0. -1.
         -5    1    5    5    0  503 -0.72962257050E+02 -0.27108551572E+02 -0.11101660400E+03  0.13566554790E+03  0.47000000000E+01 0.  1.
         13    1    6    6    0    0 -0.34352435927E+01 -0.21153335050E+02  0.15489507038E+01  0.21486361502E+02  0.00000000000E+00 0. -1.
        -14    1    6    6    0    0  0.72740411402E+02  0.22393136562E+02 -0.69922096515E+02  0.10335240489E+03  0.00000000000E+00 0.  1.
</event>
<event>
12    1  0.9028446E-003  0.1944130E+03  0.7818608E-02  0.1154679E+00
         21   -1    0    0  503  502  0.00000000000E+00  0.00000000000E+00  0.53603636396E+02  0.53603636396E+02  0.00000000000E+00 0.  1.
         21   -1    0    0  501  503 -0.00000000000E+00 -0.00000000000E+00 -0.76728057044E+03  0.76728057044E+03  0.00000000000E+00 0.  1.
          6    2    1    2  501    0  0.66394237993E+02  0.63573565243E+02 -0.47527218532E+03  0.51325903515E+03  0.17059130689E+03 0.  0.
         24    2    3    3    0    0  0.10208620396E+03  0.42305380650E+02 -0.43233044513E+03  0.45332294284E+03  0.79879524588E+02 0.  0.
         -6    2    1    2    0  502 -0.66394237993E+02 -0.63573565243E+02 -0.23840474872E+03  0.30762517168E+03  0.17130857831E+03 0.  0.
        -24    2    5    5    0    0 -0.63703562743E+02  0.17388550465E+02 -0.85919465360E+02  0.13489429559E+03  0.80335613910E+02 0.  0.
          5    1    3    3  501    0 -0.35691965970E+02  0.21268184593E+02 -0.42941740191E+02  0.59936092309E+02  0.47000000000E+01 0. -1.
        -13    1    4    4    0    0  0.74327140564E+02  0.12550707109E+02 -0.37800119883E+03  0.38544383559E+03  0.00000000000E+00 0.  1.
         14    1    4    4    0    0  0.27759063399E+02  0.29754673541E+02 -0.54329246297E+02  0.67879107253E+02  0.00000000000E+00 0. -1.
         -5    1    5    5    0  502 -0.26906752501E+01 -0.80962115708E+02 -0.15248528336E+03  0.17273087609E+03  0.47000000000E+01 0.  1.
         11    1    6    6    0    0  0.56934096502E+01  0.12442594392E+02  0.96060043805E+01  0.16718504383E+02  0.00000000000E+00 0. -1.
        -12    1    6    6    0    0 -0.69396972393E+02  0.49459560723E+01 -0.95525469740E+02  0.11817579121E+03  0.00000000000E+00 0.  1.
</event>
<event>
12    1  0.9028446E-003  0.2110168E+03  0.7818608E-02  0.1140846E+00
         21   -1    0    0  501  502  0.00000000000E+00  0.00000000000E+00  0.29824137906E+03  0.29824137906E+03  0.00000000000E+00 0. -1.
         21   -1    0    0  502  503 -0.00000000000E+00 -0.00000000000E+00 -0.19359305033E+03  0.19359305033E+03  0.00000000000E+00 0. -1.
          6    2    1    2  501    0 -0.92837385306E+02 -0.76556023733E+02  0.17038522223E+03  0.27121799221E+03  0.17334494646E+03 0.  0.
         24    2    3    3    0    0 -0.11016467662E+02  0.11249977326E+01  0.19102809248E+02  0.82439121208E+02  0.79427093644E+02 0.  0.
         -6    2    1    2    0  503  0.92837385306E+02  0.76556023733E+02 -0.65736893502E+02  0.22061643718E+03  0.17283132906E+03 0.  0.
        -24    2    5    5    0    0  0.11071213832E+03  0.57798248268E+02  0.19214411944E+01  0.14801408743E+03  0.79414501615E+02 0.  0.
          5    1    3    3  501    0 -0.81820917643E+02 -0.77681021465E+02  0.15128241298E+03  0.18877887100E+03  0.47000000000E+01 0. -1.
        -13    1    4    4    0    0  0.26460147932E+02 -0.14101567930E+02 -0.11083059638E+02  0.31966042258E+02  0.00000000000E+00 0.  1.
         14    1    4    4    0    0 -0.37476615595E+02  0.15226565662E+02  0.30185868886E+02  0.50473078950E+02  0.00000000000E+00 0. -1.
         -5    1    5    5    0  503 -0.17874753011E+02  0.18757775464E+02 -0.67658334696E+02  0.72602349752E+02  0.47000000000E+01 0.  1.
         11    1    6    6    0    0  0.79472125475E+02  0.74573276447E+02 -0.12578223629E+02  0.10970507735E+03  0.00000000000E+00 0. -1.
        -12    1    6    6    0    0  0.31240012842E+02 -0.16775028178E+02  0.14499664824E+02  0.38309010073E+02  0.00000000000E+00 0.  1.
</event>
<event>
12    1  0.9028446E-003  0.2208751E+03  0.7818608E-02  0.1133506E+00
         21   -1    0    0  503  502  0.00000000000E+00  0.00000000000E+00  0.24415623445E+03  0.24415623445E+03  0.00000000000E+00 0.  1.
         21   -1    0    0  501  503 -0.00000000000E+00 -0.00000000000E+00 -0.19865268071E+03  0.19865268071E+03  0.00000000000E+00 0. -1.
          6    2    1    2  501    0 -0.13097912489E+03  0.38443103843E+02  0.29200512424E+02  0.22279691177E+03  0.17364443722E+03 0.  0.
         24    2    3    3    0    0 -0.75231606246E+02  0.32257184210E+02  0.82695997892E+02  0.14514442692E+03  0.86763794803E+02 0.  0.
         -6    2    1    2    0  502  0.13097912489E+03 -0.38443103843E+02  0.16303041320E+02  0.22001200339E+03  0.17177336548E+03 0.  0.
        -24    2    5    5    0    0  0.65375972285E+02  0.35978106514E+02 -0.23184908694E+02  0.11313039422E+03  0.81807727048E+02 0.  0.
          5    1    3    3  501    0 -0.55747518642E+02  0.61859196324E+01 -0.53495485468E+02  0.77652484840E+02  0.47000000000E+01 0. -1.
        -13    1    4    4    0    0 -0.90438682423E+02  0.42207387198E+02  0.77144340083E+02  0.12614225311E+03  0.00000000000E+00 0.  1.
         14    1    4    4    0    0  0.15207076177E+02 -0.99502029871E+01  0.55516578086E+01  0.19002173817E+02  0.00000000000E+00 0. -1.
         -5    1    5    5    0  502  0.65603152603E+02 -0.74421210357E+02  0.39487950014E+02  0.10688160917E+03  0.47000000000E+01 0.  1.
         13    1    6    6    0    0 -0.64874080766E-02  0.42926646985E+02 -0.19853393616E+02  0.47295394084E+02  0.00000000000E+00 0. -1.
        -14    1    6    6    0    0  0.65382459693E+02 -0.69485404715E+01 -0.33315150773E+01  0.65835000136E+02  0.00000000000E+00 0.  1.
</event>
<event>
12    1  0.9028446E-003  0.1739472E+03  0.7818608E-02  0.1174023E+00
         21   -1    0    0  503  502  0.00000000000E+00  0.00000000000E+00  0.50003763854E+03  0.50003763854E+03  0.00000000000E+00 0. -1.
         21   -1    0    0  501  503 -0.00000000000E+00 -0.00000000000E+00 -0.62221775550E+02  0.62221775550E+02  0.00000000000E+00 0. -1.
          6    2    1    2  501    0  0.15971094568E+02 -0.10162328031E+02  0.16873163835E+03  0.24233862724E+03  0.17291412810E+03 0.  0.
         24    2    3    3    0    0  0.41103881038E+01  0.58380958841E+02  0.76242777687E+02  0.12651489098E+03  0.82266790657E+02 0.  0.
         -6    2    1    2    0  502 -0.15971094568E+02  0.10162328031E+02  0.26908422464E+03  0.31992078686E+03  0.17200186377E+03 0.  0.
        -24    2    5    5    0    0  0.19637260127E+02  0.61532113496E+02  0.11192528401E+03  0.15072317338E+03  0.77578236759E+02 0.  0.
          5    1    3    3  501    0  0.11860706464E+02 -0.68543286872E+02  0.92488860663E+02  0.11582373625E+03  0.47000000000E+01 0. -1.
        -13    1    4    4    0    0 -0.37958430805E+02  0.22367084795E+02  0.23031441648E+02  0.49714950023E+02  0.00000000000E+00 0.  1.
         14    1    4    4    0    0  0.42068818909E+02  0.36013874046E+02  0.53211336040E+02  0.76799940959E+02  0.00000000000E+00 0. -1.
         -5    1    5    5    0  502 -0.35608354694E+02 -0.51369785465E+02  0.15715894064E+03  0.16919761347E+03  0.47000000000E+01 0.  1.
         11    1    6    6    0    0  0.12187408671E+02  0.35485067564E+02  0.11725572777E+03  0.12311226034E+03  0.00000000000E+00 0. -1.
        -12    1    6    6    0    0  0.74498514560E+01  0.26047045932E+02 -0.53304437662E+01  0.27610913047E+02  0.00000000000E+00 0.  1.
</event>
<event>
12    1  0.9028446E-003  0.1766196E+03  0.7818608E-02  0.1171301E+00
         21   -1    0    0  503  502  0.00000000000E+00  0.00000000000E+00  0.68619763249E+02  0.68619763249E+02  0.00000000000E+00 0.  1.
         21   -1    0    0  501  503 -0.00000000000E+00 -0.00000000000E+00 -0.46273524480E+03  0.46273524480E+03  0.00000000000E+00 0.  1.
          6    2    1    2  501    0  0.28101708166E+02  0.25629341289E+02 -0.23663252044E+03  0.29527855267E+03  0.17247580931E+03 0.  0.
         24    2    3    3    0    0 -0.36025197813E+02  0.54695602055E+02 -0.11841357701E+03  0.15760169850E+03  0.80790447394E+02 0.  0.
         -6    2    1    2    0  502 -0.28101708166E+02 -0.25629341289E+02 -0.15748296111E+03  0.23607645539E+03  0.17171092164E+03 0.  0.
        -24    2    5    5    0    0 -0.54514848239E+02  0.29727248626E+02 -0.49375202204E+02  0.11169243892E+03  0.78623866161E+02 0.  0.
          5    1    3    3  501    0  0.64126905979E+02 -0.29066260767E+02 -0.11821894343E+03  0.13767685416E+03  0.47000000000E+01 0. -1.
        -11    1    4    4    0    0 -0.20839950752E+02  0.75413984845E+02 -0.91678136782E+02  0.12052573759E+03  0.00000000000E+00 0.  1.
         12    1    4    4    0    0 -0.15185247061E+02 -0.20718382790E+02 -0.26735440223E+02  0.37075960914E+02  0.00000000000E+00 0. -1.
         -5    1    5    5    0  502  0.26413140074E+02 -0.55356589915E+02 -0.10810775891E+03  0.12438401647E+03  0.47000000000E+01 0.  1.
         13    1    6    6    0    0 -0.33782754982E+02 -0.24403619285E+02 -0.26440082130E+02  0.49354727346E+02  0.00000000000E+00 0. -1.
        -14    1    6    6    0    0 -0.20732093258E+02  0.54130867911E+02 -0.22935120074E+02  0.62337711575E+02  0.00000000000E+00 0.  1.
</event>
<event>
12    1  0.9028446E-003  0.2843130E+03  0.7818608E-02  0.1093404E+00
         21   -1    0    0  501  502  0.00000000000E+00  0.00000000000E+00  0.26677008560E+03  0.26677008560E+03  0.00000000000E+00 0. -1.
         21   -1    0    0  502  503 -0.00000000000E+00 -0.00000000000E+00 -0.51336925012E+03  0.51336925012E+03  0.00000000000E+00 0.  1.
          6    2    1    2  501    0  0.67887449886E+02  0.21614644786E+03  0.12657585506E+03  0.31121591434E+03  0.17177283103E+03 0.  0.
         24    2    3    3    0    0  0.65429123759E+02  0.20696230567E+03  0.53518456869E+02  0.23739271158E+03  0.79854292832E+02 0.  0.
         -6    2    1    2    0  503 -0.67887449886E+02 -0.21614644786E+03 -0.37317501958E+03  0.46892342138E+03  0.17117706364E+03 0.  0.
        -24    2    5    5    0    0  0.49576280824E+01 -0.19438374699E+03 -0.27138286091E+03  0.34178666785E+03  0.73210996126E+02 0.  0.
          5    1    3    3  501    0  0.24583261269E+01  0.91841421898E+01  0.73057398187E+02  0.73823202755E+02  0.47000000000E+01 0. -1.
        -13    1    4    4    0    0  0.42303053589E+02  0.14724788928E+03  0.74028729312E+02  0.17015211431E+03  0.00000000000E+00 0.  1.
         14    1    4    4    0    0  0.23126070170E+02  0.59714416385E+02 -0.20510272443E+02  0.67240597271E+02  0.00000000000E+00 0. -1.
         -5    1    5    5    0  503 -0.72845077968E+02 -0.21762700862E+02 -0.10179215867E+03  0.12713675353E+03  0.47000000000E+01 0.  1.
         13    1    6    6    0    0  0.89692483531E+01 -0.85138128460E+02 -0.62397166771E+02  0.10593561608E+03  0.00000000000E+00 0. -1.
        -14    1    6    6    0    0 -0.40116202707E+01 -0.10924561854E+03 -0.20898569414E+03  0.23585105177E+03  0.00000000000E+00 0.  1.
</event>
<event>
12    1  0.9028446E-003  0.1978021E+03  0.7818608E-02  0.1151639E+00
         21   -1    0    0  501  502  0.00000000000E+00  0.00000000000E+00  0.26062761083E+03  0.26062761083E+03  0.00000000000E+00 0.  1.
         21   -1    0    0  502  503 -0.00000000000E+00 -0.00000000000E+00 -0.15160087084E+03  0.15160087084E+03  0.00000000000E+00 0.  1.
          6    2    1    2  501    0 -0.96581920629E+02 -0.17272662710E+02  0.33364264185E+02  0.20044912504E+03  0.17158165792E+03 0.  0.
         24    2    3    3    0    0 -0.10252619244E+03 -0.29471995850E+01  0.79321009018E+02  0.15171858373E+03  0.78780708649E+02 0.  0.
         -6    2    1    2    0  503  0.96581920629E+02  0.17272662710E+02  0.75662475812E+02  0.21177935663E+03  0.17175352509E+03 0.  0.
        -24    2    5    5    0    0  0.26226916398E+02  0.26839682162E+02  0.10370547136E+03  0.13529501784E+03  0.78368982254E+02 0.  0.
          5    1    3    3  501    0  0.59442718102E+01 -0.14325463125E+02 -0.45956744832E+02  0.48730541313E+02  0.47000000000E+01 0. -1.
        -13    1    4    4    0    0 -0.10564684167E+03  0.18833979777E+02  0.64930500838E+02  0.12542704608E+03  0.00000000000E+00 0.  1.
         14    1    4    4    0    0  0.31206492353E+01 -0.21781179362E+02  0.14390508179E+02  0.26291537645E+02  0.00000000000E+00 0. -1.
         -5    1    5    5    0  503  0.70355004231E+02 -0.95670194518E+01 -0.28042995546E+02  0.76484338794E+02  0.47000000000E+01 0.  1.
         13    1    6    6    0    0 -0.10889276717E+02 -0.22589491806E+02  0.30014741000E+02  0.39111969584E+02  0.00000000000E+00 0. -1.
        -14    1    6    6    0    0  0.37116193114E+02  0.49429173967E+02  0.73690730358E+02  0.96183048252E+02  0.00000000000E+00 0.  1.
</event>
<event>
12    1  0.9028446E-003  0.1982743E+03  0.7818608E-02  0.1151278E+00
         21   -1    0    0  503  502  0.00000000000E+00  0.00000000000E+00  0.15590965693E+03  0.15590965693E+03  0.00000000000E+00 0. -1.
         21   -1    0    0  501  503 -0.00000000000E+00 -0.00000000000E+00 -0.27803534445E+03  0.27803534445E+03  0.00000000000E+00 0. -1.
          6    2    1    2  501    0 -0.41279201863E+01  0.97230547453E+02 -0.12778595848E+03  0.23558989980E+03  0.17234422131E+03 0.  0.
         24    2    3    3    0    0 -0.12812603117E+02  0.69987995229E+02 -0.28324267110E+01  0.10732043550E+03  0.80294277257E+02 0.  0.
         -6    2    1    2    0  502  0.41279201863E+01 -0.97230547453E+02  0.56602709684E+01  0.19835510158E+03  0.17274804941E+03 0.  0.
        -24    2    5    5    0    0  0.51095768134E+01 -0.13669655787E+03  0.96874758317E+01  0.15839464605E+03  0.79265124744E+02 0.  0.
          5    1    3    3  501    0  0.86846829305E+01  0.27242552223E+02 -0.12495353177E+03  0.12826946430E+03  0.47000000000E+01 0. -1.
        -11    1    4    4    0    0 -0.31002593837E+02  0.79730585954E+02 -0.83727992113E+01  0.85954819108E+02  0.00000000000E+00 0.  1.
         12    1    4    4    0    0  0.18189990720E+02 -0.97425907247E+01  0.55403725003E+01  0.21365616393E+02  0.00000000000E+00 0. -1.
         -5    1    5    5    0  502 -0.98165662711E+00  0.39466010413E+02 -0.40272048633E+01  0.39960455536E+02  0.47000000000E+01 0.  1.
         11    1    6    6    0    0  0.25218713362E+00 -0.70752547536E+02  0.44584054592E+02  0.83628490989E+02  0.00000000000E+00 0. -1.
        -12    1    6    6    0    0  0.48573896798E+01 -0.65944010329E+02 -0.34896578761E+02  0.74766155057E+02  0.00000000000E+00 0.  1.
</event>
<event>
12    1  0.9028446E-003  0.2893962E+03  0.7818608E-02  0.1090688E+00
         21   -1    0    0  501  502  0.00000000000E+00  0.00000000000E+00  0.12377414910E+03  0.12377414910E+03  0.00000000000E+00 0.  1.
         21   -1    0    0  502  503 -0.00000000000E+00 -0.00000000000E+00 -0.67628399003E+03  0.67628399003E+03  0.00000000000E+00 0. -1.
          6    2    1    2  501    0  0.64082081098E+02  0.22299295508E+03 -0.28028178963E+03  0.40287469184E+03  0.17296752469E+03 0.  0.
         24    2    3    3    0    0  0.35880970161E+02  0.78615171323E+02 -0.48643514724E+02  0.12843229807E+03  0.81614180631E+02 0.  0.
         -6    2    1    2    0  503 -0.64082081098E+02 -0.22299295508E+03 -0.27222805131E+03  0.39718344729E+03  0.17266791176E+03 0.  0.
        -24    2    5    5    0    0  0.38913448273E+01 -0.12633171784E+03 -0.22389227047E+03  0.26942500677E+03  0.80543404429E+02 0.  0.
          5    1    3    3  501    0  0.28201110937E+02  0.14437778376E+03 -0.23163827490E+03  0.27444239377E+03  0.47000000000E+01 0. -1.
        -11    1    4    4    0    0  0.61096076749E+02  0.41239806014E+02 -0.28092812665E+02  0.78883827985E+02  0.00000000000E+00 0.  1.
         12    1    4    4    0    0 -0.25215106588E+02  0.37375365310E+02 -0.20550702060E+02  0.49548470082E+02  0.00000000000E+00 0. -1.
         -5    1    5    5    0  503 -0.67973425925E+02 -0.96661237235E+02 -0.48335780833E+02  0.12775844052E+03  0.47000000000E+01 0.  1.
         11    1    6    6    0    0 -0.15911242654E+02 -0.12225003378E+03 -0.21387234815E+03  0.24685951411E+03  0.00000000000E+00 0. -1.
        -12    1    6    6    0    0  0.19802587481E+02 -0.40816840621E+01 -0.10019922325E+02  0.22565492663E+02  0.00000000000E+00 0.  1.
</event>
<event>
12    1  0.9028446E-003  0.3168796E+03  0.7818608E-02  0.1077104E+00
         21   -1    0    0  501  502  0.00000000000E+00  0.00000000000E+00  0.45023887353E+03  0.45023887353E+03  0.00000000000E+00 0. -1.
         21   -1    0    0  502  503 -0.00000000000E+00 -0.00000000000E+00 -0.25906591960E+03  0.25906591960E+03  0.00000000000E+00 0.  1.
          6    2    1    2  501    0 -0.25620463669E+03  0.72174906954E+02  0.22798894381E+03  0.39037373833E+03  0.17193796563E+03 0.  0.
         24    2    3    3    0    0 -0.55199731450E+02  0.64335698829E+02  0.75061266367E+02  0.13764188509E+03  0.78262394078E+02 0.  0.
         -6    2    1    2    0  503  0.25620463669E+03 -0.72174906954E+02 -0.36815989868E+02  0.31893105480E+03  0.17178931151E+03 0.  0.
        -24    2    5    5    0    0  0.10301365943E+03  0.24683817373E+02  0.12582429987E+02  0.13101782515E+03  0.76067391790E+02 0.  0.
          5    1    3    3  501    0 -0.20100490524E+03  0.78392081249E+01  0.15292767744E+03  0.25273185324E+03  0.47000000000E+01 0. -1.
        -11    1    4    4    0    0  0.11110869594E+02  0.37484789961E+02  0.86813474165E+01  0.40049053603E+02  0.00000000000E+00 0.  1.
         12    1    4    4    0    0 -0.66310601044E+02  0.26850908868E+02  0.66379918951E+02  0.97592831488E+02  0.00000000000E+00 0. -1.
         -5    1    5    5    0  503  0.15319097726E+03 -0.96858724327E+02 -0.49398419855E+02  0.18791322965E+03  0.47000000000E+01 0.  1.
         11    1    6    6    0    0  0.10466006991E+03  0.45920086584E+01  0.24516247679E+02  0.10759118541E+03  0.00000000000E+00 0. -1.
        -12    1    6    6    0    0 -0.16464104821E+01  0.20091808714E+02 -0.11933817692E+02  0.23426639742E+02  0.00000000000E+00 0.  1.
</event>
<event>
12    1  0.9028446E-003  0.2072179E+03  0.7818608E-02  0.1144084E+00
         21   -1    0    0  501  502  0.00000000000E+00  0.00000000000E+00  0.25778568816E+02  0.25778568816E+02  0.00000000000E+00 0.  1.
         21   -1    0    0  502  503 -0.00000000000E+00 -0.00000000000E+00 -0.17007324193E+04  0.17007324193E+04  0.00000000000E+00 0.  1.
          6    2    1    2  501    0 -0.90403946508E+02 -0.71869950103E+02 -0.69719684006E+03  0.72733945151E+03  0.17204964593E+03 0.  0.
         24    2    3    3    0    0 -0.80805113707E+02 -0.64368604899E+02 -0.70145730858E+03  0.71360448289E+03  0.80723097967E+02 0.  0.
         -6    2    1    2    0  503  0.90403946508E+02  0.71869950103E+02 -0.97775701038E+03  0.99917153656E+03  0.17028454085E+03 0.  0.
        -24    2    5    5    0    0  0.96157248819E+02  0.66401935734E+01 -0.79338998980E+03  0.80346433204E+03  0.82443606603E+02 0.  0.
          5    1    3    3  501    0 -0.95988328016E+01 -0.75013452040E+01  0.42604685189E+01  0.13734968621E+02  0.47000000000E+01 0. -1.
        -13    1    4    4    0    0 -0.75034042042E+02 -0.12514122812E+02 -0.34035775242E+03  0.34875508652E+03  0.00000000000E+00 0.  1.
         14    1    4    4    0    0 -0.57710716650E+01 -0.51854482087E+02 -0.36109955615E+03  0.36484939637E+03  0.00000000000E+00 0. -1.
         -5    1    5    5    0  503 -0.57533023108E+01  0.65229756530E+02 -0.18436702058E+03  0.19570720452E+03  0.47000000000E+01 0.  1.
         13    1    6    6    0    0 -0.23767883940E+01 -0.86962299317E+01 -0.29805055233E+03  0.29818686302E+03  0.00000000000E+00 0. -1.
        -14    1    6    6    0    0  0.98534037213E+02  0.15336423505E+02 -0.49533943748E+03  0.50527746902E+03  0.00000000000E+00 0.  1.
</event>
<event>
12    1  0.9028446E-003  0.2077581E+03  0.7818608E-02  0.1143441E+00
         21   -1    0    0  501  502  0.00000000000E+00  0.00000000000E+00  0.70082763739E+02  0.70082763739E+02  0.00000000000E+00 0. -1.
         21   -1    0    0  502  503 -0.00000000000E+00 -0.00000000000E+00 -0.64784757784E+03  0.64784757784E+03  0.00000000000E+00 0.  1.
          6    2    1    2  501    0 -0.19002732755E+02  0.11370533968E+03 -0.37048246462E+03  0.42475956110E+03  0.17283928960E+03 0.  0.
         24    2    3    3    0    0  0.63342678716E+01  0.13633427098E+03 -0.22220314818E+03  0.27256600731E+03  0.79314770904E+02 0.  0.
         -6    2    1    2    0  503  0.19002732755E+02 -0.11370533968E+03 -0.20728234948E+03  0.29317078048E+03  0.17231693474E+03 0.  0.
        -24    2    5    5    0    0  0.13873257726E+02 -0.12747269760E+03 -0.92247938406E+02  0.17710675768E+03  0.80095977188E+02 0.  0.
          5    1    3    3  501    0 -0.25337000627E+02 -0.22628931302E+02 -0.14827931644E+03  0.15219355379E+03  0.47000000000E+01 0. -1.
        -11    1    4    4    0    0 -0.20694174801E+02  0.10666897983E+03 -0.19756705487E+03  0.22547563349E+03  0.00000000000E+00 0.  1.
         12    1    4    4    0    0  0.27028442673E+02  0.29665291145E+02 -0.24636093312E+02  0.47090373812E+02  0.00000000000E+00 0. -1.
         -5    1    5    5    0  503  0.51294750287E+01  0.13767357921E+02 -0.11503441107E+03  0.11606402280E+03  0.47000000000E+01 0.  1.
         11    1    6    6    0    0 -0.25661287964E+02 -0.23843877399E+02 -0.43770347959E+02  0.56061355227E+02  0.00000000000E+00 0. -1.
        -12    1    6    6    0    0  0.39534545690E+02 -0.10362882020E+03 -0.48477590447E+02  0.12104540245E+03  0.00000000000E+00 0.  1.
</event>
<event>
12    1  0.9028446E-003  0.1787716E+03  0.7818608E-02  0.1169042E+00
         21   -1    0    0  501  502  0.00000000000E+00  0.00000000000E+00  0.86748270319E+02  0.86748270319E+02  0.00000000000E+00 0.  1.
         21   -1    0    0  502  503 -0.00000000000E+00 -0.00000000000E+00 -0.39295360936E+03  0.39295360936E+03  0.00000000000E+00 0.  1.
          6    2    1    2  501    0 -0.19866692889E+01  0.50460132180E+02 -0.92775900781E+02  0.20141169230E+03  0.17149090423E+03 0.  0.
         24    2    3    3    0    0 -0.64972652670E+02  0.42607485661E+02 -0.37830110086E+02  0.11732823331E+03  0.79359647637E+02 0.  0.
         -6    2    1    2    0  503  0.19866692889E+01 -0.50460132180E+02 -0.21342943826E+03  0.27829018738E+03  0.17129836976E+03 0.  0.
        -24    2    5    5    0    0 -0.61320271029E+01 -0.46306982319E+02 -0.33860864074E+02  0.98428783186E+02  0.79747908285E+02 0.  0.
          5    1    3    3  501    0  0.62985983381E+02  0.78526465191E+01 -0.54945790695E+02  0.84083458985E+02  0.47000000000E+01 0. -1.
        -11    1    4    4    0    0 -0.38789781778E+02  0.27424748514E+02  0.20401295007E+02  0.51700839833E+02  0.00000000000E+00 0.  1.
         12    1    4    4    0    0 -0.26182870893E+02  0.15182737147E+02 -0.58231405094E+02  0.65627393477E+02  0.00000000000E+00 0. -1.
         -5    1    5    5    0  503  0.81186963918E+01 -0.41531498617E+01 -0.17956857419E+03  0.17986140420E+03  0.47000000000E+01 0.  1.
         11    1    6    6    0    0 -0.39191797194E+02 -0.92963998749E+01 -0.39182946303E+01  0.40469408826E+02  0.00000000000E+00 0. -1.
        -12    1    6    6    0    0  0.33059770091E+02 -0.37010582444E+02 -0.29942569444E+02  0.57959374360E+02  0.00000000000E+00 0.  1.
</event>
<event>
12    1  0.9028446E-003  0.1843287E+03  0.7818608E-02  0.1163836E+00
         21   -1    0    0  503  502  0.00000000000E+00  0.00000000000E+00  0.12821680395E+03  0.12821680395E+03  0.00000000000E+00 0.  1.
         21   -1    0    0  501  503 -0.00000000000E+00 -0.00000000000E+00 -0.26522768675E+03  0.26522768675E+03  0.00000000000E+00 0.  1.
          6    2    1    2  501    0 -0.61242036852E+02  0.24572963432E+02 -0.81576770390E+02  0.20096068017E+03  0.17139430532E+03 0.  0.
         24    2    3    3    0    0 -0.33973147512E+02  0.76469582921E+02 -0.83422641272E+02  0.14211895450E+03  0.78972705963E+02 0.  0.
         -6    2    1    2    0  502  0.61242036852E+02 -0.24572963432E+02 -0.55434112412E+02  0.19248381053E+03  0.17211234379E+03 0.  0.
        -24    2    5    5    0    0 -0.26112743027E+02 -0.16806987394E+02 -0.60780217842E+02  0.10449609096E+03  0.79125520352E+02 0.  0.
          5    1    3    3  501    0 -0.27268889340E+02 -0.51896619489E+02  0.18458708824E+01  0.58841725668E+02  0.47000000000E+01 0. -1.
        -13    1    4    4    0    0 -0.59869839412E+02  0.53249990984E+02 -0.54773121267E+02  0.97056962781E+02  0.00000000000E+00 0.  1.
         14    1    4    4    0    0  0.25896691900E+02  0.23219591937E+02 -0.28649520006E+02  0.45061991718E+02  0.00000000000E+00 0. -1.
         -5    1    5    5    0  502  0.87354779879E+02 -0.77659760385E+01  0.53461054300E+01  0.87987719569E+02  0.47000000000E+01 0.  1.
         13    1    6    6    0    0 -0.22138840371E+02 -0.48361638859E+02 -0.38776447450E+02  0.65822406845E+02  0.00000000000E+00 0. -1.
        -14    1    6    6    0    0 -0.39739026565E+01  0.31554651465E+02 -0.22003770391E+02  0.38673684113E+02  0.00000000000E+00 0.  1.
</event>
<event>
12    1  0.9028446E-003  0.2001179E+03  0.7818608E-02  0.1149878E+00
         21   -1    0    0  501  502  0.00000000000E+00  0.00000000000E+00  0.61784558352E+02  0.61784558352E+02  0.00000000000E+00 0.  1.
         21   -1    0    0  502  503 -0.00000000000E+00 -0.00000000000E+00 -0.73788668184E+03  0.73788668184E+03  0.00000000000E+00 0. -1.
          6    2    1    2  501    0  0.27623331437E+02  0.98169706771E+02 -0.19500018540E+03  0.27860862349E+03  0.17087232956E+03 0.  0.
         24    2    3    3    0    0  0.86309037598E+01 -0.14668740412E+02 -0.61502684958E+02  0.10271973784E+03  0.80492855826E+02 0.  0.
         -6    2    1    2    0  503 -0.27623331437E+02 -0.98169706771E+02 -0.48110193808E+03  0.52106261670E+03  0.17218256569E+03 0.  0.
        -24    2    5    5    0    0  0.74310309086E+01 -0.19053206651E+02 -0.38188181277E+03  0.38932442110E+03  0.72948893356E+02 0.  0.
          5    1    3    3  501    0  0.18992427678E+02  0.11283844718E+03 -0.13349750044E+03  0.17588888565E+03  0.47000000000E+01 0. -1.
        -11    1    4    4    0    0 -0.17290882916E+02 -0.34978575535E+02 -0.57581441792E+02  0.69556436203E+02  0.00000000000E+00 0.  1.
         12    1    4    4    0    0  0.25921786676E+02  0.20309835123E+02 -0.39212431663E+01  0.33163301633E+02  0.00000000000E+00 0. -1.
         -5    1    5    5    0  503 -0.35054362346E+02 -0.79116500120E+02 -0.99220125316E+02  0.13173819559E+03  0.47000000000E+01 0.  1.
         11    1    6    6    0    0 -0.19514155277E+02 -0.88281667543E+00 -0.29097675103E+02  0.35046487953E+02  0.00000000000E+00 0. -1.
        -12    1    6    6    0    0  0.26945186185E+02 -0.18170389976E+02 -0.35278413766E+03  0.35427793315E+03  0.00000000000E+00 0.  1.
</event>
<event>
12    1  0.9028446E-003  0.3555210E+03  0.7818608E-02  0.1060376E+00
         21   -1    0    0  503  502  0.00000000000E+00  0.00000000000E+00  0.10500398244E+04  0.10500398244E+04  0.00000000000E+00 0. -1.
         21   -1    0    0  501  503 -0.00000000000E+00 -0.00000000000E+00 -0.16176997277E+03  0.16176997277E+03  0.00000000000E+00 0.  1.
          6    2    1    2  501    0 -0.24442683019E+03  0.19259898194E+03  0.13758888310E+03  0.38121636499E+03  0.17191967025E+03 0.  0.
         24    2    3    3    0    0 -0.26213153583E+03  0.19588244525E+03  0.12818126756E+03  0.36036376411E+03  0.79678922542E+02 0.  0.
         -6    2    1    2    0  502  0.24442683019E+03 -0.19259898194E+03  0.75068096857E+03  0.83059343224E+03  0.17182750053E+03 0.  0.
        -24    2    5    5    0    0  0.88257926135E+02 -0.11751796522E+03  0.49485433572E+03  0.52157038821E+03  0.74531353120E+02 0.  0.
          5    1    3    3  501    0  0.17704705640E+02 -0.32834633081E+01  0.94076155392E+01  0.20852600874E+02  0.47000000000E+01 0. -1.
        -13    1    4    4    0    0 -0.16920230710E+03  0.16702699426E+03  0.74078213185E+02  0.24902814943E+03  0.00000000000E+00 0.  1.
         14    1    4    4    0    0 -0.92929228724E+02  0.28855450992E+02  0.54103054379E+02  0.11133561468E+03  0.00000000000E+00 0. -1.
         -5    1    5    5    0  502  0.15616890405E+03 -0.75081016722E+02  0.25582663285E+03  0.30902304403E+03  0.47000000000E+01 0.  1.
         11    1    6    6    0    0  0.81643446048E+02 -0.47547780237E+02  0.27923289724E+03  0.29478374207E+03  0.00000000000E+00 0. -1.
        -12    1    6    6    0    0  0.66144800870E+01 -0.69970184982E+02  0.21562143848E+03  0.22678664614E+03  0.00000000000E+00 0.  1.
</event>
<event>
12    1  0.9028446E-003  0.2533261E+03  0.7818608E-02  0.1111335E+00
         21   -1    0    0  501  502  0.00000000000E+00  0.00000000000E+00  0.31111591932E+03  0.31111591932E+03  0.00000000000E+00 0.  1.
         21   -1    0    0  502  503 -0.00000000000E+00 -0.00000000000E+00 -0.20666823302E+03  0.20666823302E+03  0.00000000000E+00 0. -1.
          6    2    1    2  501    0 -0.17839191027E+02  0.18564719031E+03  0.70261572431E+02  0.26288934706E+03  0.17143804780E+03 0.  0.
         24    2    3    3    0    0  0.46417631908E+01  0.20577421394E+03  0.73263287318E+02  0.23220399755E+03  0.78655032395E+02 0.  0.
         -6    2    1    2    0  503  0.17839191027E+02 -0.18564719031E+03  0.34186113875E+02  0.25489480528E+03  0.17035127052E+03 0.  0.
        -24    2    5    5    0    0 -0.15809349532E+02 -0.13137179736E+03 -0.37473318703E+02  0.15879482172E+03  0.79391820217E+02 0.  0.
          5    1    3    3  501    0 -0.22480954218E+02 -0.20127023628E+02 -0.30017148877E+01  0.30685349517E+02  0.47000000000E+01 0. -1.
        -11    1    4    4    0    0  0.71326984351E+01  0.86722201403E+00  0.18861333291E+02  0.20183591219E+02  0.00000000000E+00 0.  1.
         12    1    4    4    0    0 -0.24909352443E+01  0.20490699192E+03  0.54401954027E+02  0.21202040633E+03  0.00000000000E+00 0. -1.
         -5    1    5    5    0  503  0.33648540559E+02 -0.54275392951E+02  0.71659432578E+02  0.96099983554E+02  0.47000000000E+01 0.  1.
         13    1    6    6    0    0  0.16460707981E+02 -0.11131654058E+03 -0.42875029151E+02  0.12041841736E+03  0.00000000000E+00 0. -1.
        -14    1    6    6    0    0 -0.32270057512E+02 -0.20055256780E+02  0.54017104484E+01  0.38376404367E+02  0.00000000000E+00 0.  1.
</event>
<event>
12    1  0.9028446E-003  0.2027289E+03  0.7818608E-02  0.1147623E+00
         21   -1    0    0  503  502  0.00000000000E+00  0.00000000000E+00  0.66897408170E+03  0.66897408170E+03  0.00000000000E+00 0.  1.
         21   -1    0    0  501  503 -0.00000000000E+00 -0.00000000000E+00 -0.61846534000E+02  0.61846534000E+02  0.00000000000E+00 0.  1.
          6    2    1    2  501    0 -0.10711275973E+03  0.11428525243E+02  0.26543962812E+03  0.33351766248E+03  0.17079836218E+03 0.  0.
         24    2    3    3    0    0 -0.43068580804E+02 -0.51670696010E+02  0.18908801678E+03  0.21547179372E+03  0.78415893282E+02 0.  0.
         -6    2    1    2    0  502  0.10711275973E+03 -0.11428525243E+02  0.34168791958E+03  0.39730295322E+03  0.17174180553E+03 0.  0.
        -24    2    5    5    0    0  0.13766212371E+03 -0.64597430820E+01  0.32636038106E+03  0.36244644920E+03  0.76575071854E+02 0.  0.
          5    1    3    3  501    0 -0.64044178928E+02  0.63099221253E+02  0.76351611340E+02  0.11804586876E+03  0.47000000000E+01 0. -1.
        -13    1    4    4    0    0 -0.61937648227E+02 -0.28643755690E+02  0.96317125597E+02  0.11804120336E+03  0.00000000000E+00 0.  1.
         14    1    4    4    0    0  0.18869067423E+02 -0.23026940320E+02  0.92770891187E+02  0.97430590358E+02  0.00000000000E+00 0. -1.
         -5    1    5    5    0  502 -0.30549363974E+02 -0.49687821611E+01  0.15327538515E+02  0.34856504018E+02  0.47000000000E+01 0.  1.
         13    1    6    6    0    0  0.38591228199E+02  0.28985933195E+02  0.67165844094E+02  0.82708632137E+02  0.00000000000E+00 0. -1.
        -14    1    6    6    0    0  0.99070895507E+02 -0.35445676277E+02  0.25919453697E+03  0.27973781707E+03  0.00000000000E+00 0.  1.
</event>
<event>
12    1  0.9028446E-003  0.2440494E+03  0.7818608E-02  0.1117467E+00
         21   -1    0    0  503  502  0.00000000000E+00  0.00000000000E+00  0.18697528578E+03  0.18697528578E+03  0.00000000000E+00 0.  1.
         21   -1    0    0  501  503 -0.00000000000E+00 -0.00000000000E+00 -0.44012035766E+03  0.44012035766E+03  0.00000000000E+00 0. -1.
          6    2    1    2  501    0 -0.78899532601E+02 -0.15172673005E+03 -0.29359337401E+03  0.38178157363E+03  0.17410905732E+03 0.  0.
         24    2    3    3    0    0  0.16934772843E+02 -0.94416466973E+02 -0.10906273613E+03  0.16604486680E+03  0.80467146172E+02 0.  0.
         -6    2    1    2    0  502  0.78899532601E+02  0.15172673005E+03  0.40448302126E+02  0.24531406981E+03  0.17116305339E+03 0.  0.
        -24    2    5    5    0    0  0.10188960257E+02  0.10993734544E+03 -0.27704777578E+02  0.13979427218E+03  0.81147082520E+02 0.  0.
          5    1    3    3  501    0 -0.95834305444E+02 -0.57310263075E+02 -0.18453063788E+03  0.21573670682E+03  0.47000000000E+01 0. -1.
        -13    1    4    4    0    0  0.91370104687E+01 -0.10389752715E+03 -0.11238740532E+03  0.15332680778E+03  0.00000000000E+00 0.  1.
         14    1    4    4    0    0  0.77977623744E+01  0.94810601811E+01  0.33246691887E+01  0.12718059027E+02  0.00000000000E+00 0. -1.
         -5    1    5    5    0  502  0.68710572344E+02  0.41789384612E+02  0.68153079704E+02  0.10551979763E+03  0.47000000000E+01 0.  1.
         13    1    6    6    0    0 -0.24030560166E+02  0.68960760033E+02  0.11003339842E+02  0.73852066551E+02  0.00000000000E+00 0. -1.
        -14    1    6    6    0    0  0.34219520423E+02  0.40976585404E+02 -0.38708117419E+02  0.65942205631E+02  0.00000000000E+00 0.  1.
</event>
<event>
12    1  0.9028446E-003  0.2272169E+03  0.7818608E-02  0.1128756E+00
         21   -1    0    0  503  502  0.00000000000E+00  0.00000000000E+00  0.18280598033E+03  0.18280598033E+03  0.00000000000E+00 0.  1.
         21   -1    0    0  501  503 -0.00000000000E+00 -0.00000000000E+00 -0.30111452087E+03  0.30111452087E+03  0.00000000000E+00 0.  1.
          6    2    1    2  501    0 -0.24795848664E+02 -0.14653618015E+03 -0.12091419721E+03  0.25668863276E+03  0.17082483689E+03 0.  0.
         24    2    3    3    0    0 -0.19738501099E+02 -0.11350328129E+03 -0.15539744502E+03  0.20843996904E+03  0.77628934594E+02 0.  0.
         -6    2    1    2    0  502  0.24795848664E+02  0.14653618015E+03  0.26056566627E+01  0.22723186843E+03  0.17187159853E+03 0.  0.
        -24    2    5    5    0    0  0.63769011710E+02  0.13635621644E+03 -0.32664802755E+02  0.17348585085E+03  0.79817582579E+02 0.  0.
          5    1    3    3  501    0 -0.50573475647E+01 -0.33032898862E+02  0.34483247809E+02  0.48248663723E+02  0.47000000000E+01 0. -1.
        -13    1    4    4    0    0  0.15398559914E+02 -0.94357939496E+02 -0.87359512036E+02  0.12950760880E+03  0.00000000000E+00 0.  1.
         14    1    4    4    0    0 -0.35137061013E+02 -0.19145341794E+02 -0.68037932980E+02  0.78932360241E+02  0.00000000000E+00 0. -1.
         -5    1    5    5    0  502 -0.38973163046E+02  0.10179963713E+02  0.35270459418E+02  0.53746017588E+02  0.47000000000E+01 0.  1.
         13    1    6    6    0    0 -0.13847203933E+02  0.55004024658E+02 -0.20837953346E+02  0.60426882138E+02  0.00000000000E+00 0. -1.
        -14    1    6    6    0    0  0.77616215643E+02  0.81352191782E+02 -0.11826849409E+02  0.11305896871E+03  0.00000000000E+00 0.  1.
</event>
<event>
12    1  0.9028446E-003  0.2439260E+03  0.7818608E-02  0.1117497E+00
         21   -1    0    0  503  502  0.00000000000E+00  0.00000000000E+00  0.16699854899E+04  0.16699854899E+04  0.00000000000E+00 0.  1.
         21   -1    0    0  501  503 -0.00000000000E+00 -0.00000000000E+00 -0.35539710504E+02  0.35539710504E+02  0.00000000000E+00 0. -1.
          6    2    1    2  501    0 -0.76197126907E+02 -0.15439007760E+03  0.75515859534E+03  0.79303088895E+03  0.17026799022E+03 0.  0.
         24    2    3    3    0    0 -0.11005572214E+03 -0.15182858743E+03  0.68557007802E+03  0.71545758525E+03  0.81908744830E+02 0.  0.
         -6    2    1    2    0  502  0.76197126907E+02  0.15439007760E+03  0.87928718404E+03  0.91249431145E+03  0.17279357103E+03 0.  0.
        -24    2    5    5    0    0  0.93642585113E+02  0.13590897720E+03  0.50229513777E+03  0.53461736317E+03  0.79215754408E+02 0.  0.
          5    1    3    3  501    0  0.33858595235E+02 -0.25614901722E+01  0.69588517321E+02  0.77573303694E+02  0.47000000000E+01 0. -1.
        -13    1    4    4    0    0 -0.45447529835E+02 -0.12574721462E+03  0.48685764780E+03  0.50488435228E+03  0.00000000000E+00 0.  1.
         14    1    4    4    0    0 -0.64608192307E+02 -0.26081372804E+02  0.19871243022E+03  0.21057323297E+03  0.00000000000E+00 0. -1.
         -5    1    5    5    0  502 -0.17445458205E+02  0.18481100397E+02  0.37699204628E+03  0.37787694828E+03  0.47000000000E+01 0.  1.
         13    1    6    6    0    0  0.81904033981E+02  0.84164677316E+02  0.42453837958E+03  0.44048246211E+03  0.00000000000E+00 0. -1.
        -14    1    6    6    0    0  0.11738551132E+02  0.51744299887E+02  0.77756758181E+02  0.94134901054E+02  0.00000000000E+00 0.  1.
</event>
<event>
12    1  0.9028446E-003  0.2438284E+03  0.7818608E-02  0.1117848E+00
         21   -1    0    0  503  502  0.00000000000E+00  0.00000000000E+00  0.33904144104E+03  0.33904144104E+03  0.00000000000E+00 0.  1.
         21   -1    0    0  501  503 -0.00000000000E+00 -0.00000000000E+00 -0.20724163145E+03  0.20724163145E+03  0.00000000000E+00 0.  1.
          6    2    1    2  501    0 -0.96290330415E+02  0.14578396743E+03 -0.45801513748E+02  0.24463011917E+03  0.16498885918E+03 0.  0.
         24    2    3    3    0    0 -0.10662940358E+03  0.86701713706E+02 -0.76483637249E+02  0.17709426320E+03  0.81397877275E+02 0.  0.
         -6    2    1    2    0  502  0.96290330415E+02 -0.14578396743E+03  0.17760132334E+03  0.30165295332E+03  0.17008080816E+03 0.  0.
        -24    2    5    5    0    0  0.96190550249E+01 -0.91721097660E+01  0.62380775633E+02  0.10297589313E+03  0.80845652826E+02 0.  0.
          5    1    3    3  501    0  0.10339073164E+02  0.59082253723E+02  0.30682123502E+02  0.67535855969E+02  0.47000000000E+01 0. -1.
        -13    1    4    4    0    0 -0.86074028876E+02  0.72523596780E+02 -0.18634981741E+02  0.11408625282E+03  0.00000000000E+00 0.  1.
         14    1    4    4    0    0 -0.20555374703E+02  0.14178116926E+02 -0.57848655508E+02  0.63008010386E+02  0.00000000000E+00 0. -1.
         -5    1    5    5    0  502  0.86671275390E+02 -0.13661185766E+03  0.11522054770E+03  0.19867706019E+03  0.47000000000E+01 0.  1.
         13    1    6    6    0    0  0.17144968192E+01 -0.51868197485E+01 -0.19687606380E+02  0.20431457202E+02  0.00000000000E+00 0. -1.
        -14    1    6    6    0    0  0.79045582057E+01 -0.39852900175E+01  0.82068382013E+02  0.82544435931E+02  0.00000000000E+00 0.  1.
</event>
<event>
12    1  0.9028446E-003  0.2168134E+03  0.7818608E-02  0.1136317E+00
         21   -1    0    0  501  502  0.00000000000E+00  0.00000000000E+00  0.81280441538E+02  0.81280441538E+02  0.00000000000E+00 0. -1.
         21   -1    0    0  502  503 -0.00000000000E+00 -0.00000000000E+00 -0.10365853211E+04  0.10365853211E+04  0.00000000000E+00 0. -1.
          6    2    1    2  501    0 -0.12919214536E+03 -0.22942646476E+02 -0.10570951655E+03  0.24104175421E+03  0.17236487441E+03 0.  0.
         24    2    3    3    0    0 -0.99329379978E+02 -0.47335415110E+02 -0.13455780954E+03  0.19265677796E+03  0.83089486314E+02 0.  0.
         -6    2    1    2    0  503  0.12919214536E+03  0.22942646476E+02 -0.84959536303E+03  0.87682400844E+03  0.17260094281E+03 0.  0.
        -24    2    5    5    0    0  0.15814603225E+03  0.20961010887E+01 -0.76396169025E+03  0.78393632393E+03  0.76838367131E+02 0.  0.
          5    1    3    3  501    0 -0.29862765386E+02  0.24392768635E+02  0.28848292987E+02  0.48384976247E+02  0.47000000000E+01 0. -1.
        -13    1    4    4    0    0 -0.54390085875E+02  0.33992309808E+00 -0.10995562379E+03  0.12267288288E+03  0.00000000000E+00 0.  1.
         14    1    4    4    0    0 -0.44939294103E+02 -0.47675338208E+02 -0.24602185742E+02  0.69983895083E+02  0.00000000000E+00 0. -1.
         -5    1    5    5    0  503 -0.28953886882E+02  0.20846545387E+02 -0.85633672780E+02  0.92887684512E+02  0.47000000000E+01 0.  1.
         13    1    6    6    0    0  0.11239597124E+03 -0.31542175724E+02 -0.57008256188E+03  0.58191227050E+03  0.00000000000E+00 0. -1.
        -14    1    6    6    0    0  0.45750061009E+02  0.33638276812E+02 -0.19387912836E+03  0.20202405343E+03  0.00000000000E+00 0.  1.
</event>
<event>
12    1  0.9028446E-003  0.2005394E+03  0.7818608E-02  0.1150248E+00
         21   -1    0    0  503  502  0.00000000000E+00  0.00000000000E+00  0.90737973167E+03  0.90737973167E+03  0.00000000000E+00 0. -1.
         21   -1    0    0  501  503 -0.00000000000E+00 -0.00000000000E+00 -0.44533240529E+02  0.44533240529E+02  0.00000000000E+00 0. -1.
          6    2    1    2  501    0  0.24244707619E+02  0.99874955677E+02  0.50497658558E+03  0.54168507258E+03  0.16690881721E+03 0.  0.
         24    2    3    3    0    0  0.76002205899E+02  0.72746960429E+02  0.30031462746E+03  0.32879220315E+03  0.82746491377E+02 0.  0.
         -6    2    1    2    0  502 -0.24244707619E+02 -0.99874955677E+02  0.35786990557E+03  0.41022789962E+03  0.17220118378E+03 0.  0.
        -24    2    5    5    0    0 -0.42943481216E+02 -0.11850965750E+03  0.19352255078E+03  0.24370751266E+03  0.77805479043E+02 0.  0.
          5    1    3    3  501    0 -0.51757498280E+02  0.27127995248E+02  0.20466195812E+03  0.21289286943E+03  0.47000000000E+01 0. -1.
        -11    1    4    4    0    0 -0.10592260128E+01 -0.42949213208E+01  0.10534680408E+03  0.10543963884E+03  0.00000000000E+00 0.  1.
         12    1    4    4    0    0  0.77061431912E+02  0.77041881749E+02  0.19496782337E+03  0.22335256431E+03  0.00000000000E+00 0. -1.
         -5    1    5    5    0  502  0.18698773597E+02  0.18634701819E+02  0.16434735479E+03  0.16652038695E+03  0.47000000000E+01 0.  1.
         11    1    6    6    0    0 -0.32508931840E+02 -0.30624049570E+02  0.20035263387E+02  0.48949717471E+02  0.00000000000E+00 0. -1.
        -12    1    6    6    0    0 -0.10434549376E+02 -0.87885607926E+02  0.17348728740E+03  0.19475779519E+03  0.00000000000E+00 0.  1.
</event>
<event>
12    1  0.9028446E-003  0.1890583E+03  0.7818608E-02  0.1159345E+00
         21   -1    0    0  503  502  0.00000000000E+00  0.00000000000E+00  0.21498234168E+02  0.21498234168E+02  0.00000000000E+00 0.  1.
         21   -1    0    0  501  503 -0.00000000000E+00 -0.00000000000E+00 -0.18411856578E+04  0.18411856578E+04  0.00000000000E+00 0.  1.
          6    2    1    2  501    0 -0.43107062150E+02 -0.62298656547E+02 -0.61910646288E+03  0.64732978471E+03  0.17321575095E+03 0.  0.
         24    2    3    3    0    0 -0.18398418694E+02 -0.68518742536E+02 -0.20323349737E+03  0.23065050760E+03  0.82840100874E+02 0.  0.
         -6    2    1    2    0  502  0.43107062150E+02  0.62298656547E+02 -0.12005809608E+04  0.12153541073E+04  0.17306536712E+03 0.  0.
        -24    2    5    5    0    0 -0.27139957129E+02 -0.44498574329E+01 -0.46725922499E+03  0.47564276763E+03  0.84548687486E+02 0.  0.
          5    1    3    3  501    0 -0.24708643457E+02  0.62200859890E+01 -0.41587296551E+03  0.41667927711E+03  0.47000000000E+01 0. -1.
        -11    1    4    4    0    0 -0.47427159130E+02 -0.23520626905E+02 -0.12599555642E+03  0.13666541461E+03  0.00000000000E+00 0.  1.
         12    1    4    4    0    0  0.29028740437E+02 -0.44998115631E+02 -0.77237940956E+02  0.93985092993E+02  0.00000000000E+00 0. -1.
         -5    1    5    5    0  502  0.70247019279E+02  0.66748513980E+02 -0.73332173579E+03  0.73971133966E+03  0.47000000000E+01 0.  1.
         11    1    6    6    0    0 -0.17128171827E+02 -0.18544764655E+02 -0.35625926314E+02  0.43663362125E+02  0.00000000000E+00 0. -1.
        -12    1    6    6    0    0 -0.10011785302E+02  0.14094907222E+02 -0.43163329867E+03  0.43197940550E+03  0.00000000000E+00 0.  1.
</event>
<event>
12    1  0.9028446E-003  0.2174523E+03  0.7818608E-02  0.1135878E+00
         21   -1    0    0  503  502  0.00000000000E+00  0.00000000000E+00  0.76550662595E+03  0.76550662595E+03  0.00000000000E+00 0. -1.
         21   -1    0    0  501  503 -0.00000000000E+00 -0.00000000000E+00 -0.73258614837E+02  0.73258614837E+02  0.00000000000E+00 0. -1.
          6    2    1    2  501    0  0.13228918438E+03 -0.16859407206E+02  0.17888428032E+03  0.28124587761E+03  0.17121620838E+03 0.  0.
         24    2    3    3    0    0  0.29193750422E+02 -0.36930220492E+02  0.26773255943E+02  0.96336819460E+02  0.79673454178E+02 0.  0.
         -6    2    1    2    0  502 -0.13228918438E+03  0.16859407206E+02  0.51336373079E+03  0.55751936318E+03  0.17175812153E+03 0.  0.
        -24    2    5    5    0    0 -0.35484720707E+02  0.56568265560E+02  0.18524473308E+03  0.21308930601E+03  0.81438977966E+02 0.  0.
          5    1    3    3  501    0  0.10309543395E+03  0.20070813286E+02  0.15211102437E+03  0.18490905815E+03  0.47000000000E+01 0. -1.
        -11    1    4    4    0    0  0.51153554867E+02 -0.77611111861E+01  0.11864387298E+01  0.51752571523E+02  0.00000000000E+00 0.  1.
         12    1    4    4    0    0 -0.21959804445E+02 -0.29169109306E+02  0.25586817213E+02  0.44584247937E+02  0.00000000000E+00 0. -1.
         -5    1    5    5    0  502 -0.96804463668E+02 -0.39708858354E+02  0.32811899772E+03  0.34443005717E+03  0.47000000000E+01 0.  1.
         13    1    6    6    0    0 -0.53618262015E+02  0.16328972966E+02  0.69952762745E+02  0.89637840197E+02  0.00000000000E+00 0. -1.
        -14    1    6    6    0    0  0.18133541308E+02  0.40239292595E+02  0.11529197033E+03  0.12345146582E+03  0.00000000000E+00 0.  1.
</event>
<event>
12    1  0.9028446E-003  0.1940745E+03  0.7818608E-02  0.1155290E+00
         21   -1    0    0  503  502  0.00000000000E+00  0.00000000000E+00  0.48454710559E+02  0.48454710559E+02  0.00000000000E+00 0. -1.
         21   -1    0    0  501  503 -0.00000000000E+00 -0.00000000000E+00 -0.81063733394E+03  0.81063733394E+03  0.00000000000E+00 0. -1.
          6    2    1    2  501    0 -0.80964664645E+02  0.28661036250E+02 -0.47637982658E+03  0.51362401412E+03  0.17174154066E+03 0.  0.
         24    2    3    3    0    0  0.20684955031E+02  0.60955959583E+01 -0.14892671730E+03  0.16998252499E+03  0.79056106787E+02 0.  0.
         -6    2    1    2    0  502  0.80964664645E+02 -0.28661036250E+02 -0.28580279680E+03  0.34546803038E+03  0.17403502359E+03 0.  0.
        -24    2    5    5    0    0 -0.15627280315E+02 -0.50892506820E+02 -0.12716341056E+03  0.15835098952E+03  0.77911769039E+02 0.  0.
          5    1    3    3  501    0 -0.10164961968E+03  0.22565440292E+02 -0.32745310928E+03  0.34364148913E+03  0.47000000000E+01 0. -1.
        -13    1    4    4    0    0  0.54440796600E+01 -0.23184269539E+01  0.91791486404E+01  0.10921074885E+02  0.00000000000E+00 0.  1.
         14    1    4    4    0    0  0.15240875371E+02  0.84140229123E+01 -0.15810586594E+03  0.15906145010E+03  0.00000000000E+00 0. -1.
         -5    1    5    5    0  502  0.96591944960E+02  0.22231470570E+02 -0.15863938624E+03  0.18711704086E+03  0.47000000000E+01 0.  1.
         13    1    6    6    0    0 -0.36569138901E+02  0.25789416100E+01 -0.55550750189E+02  0.66557033485E+02  0.00000000000E+00 0. -1.
        -14    1    6    6    0    0  0.20941858587E+02 -0.53471448430E+02 -0.71612660371E+02  0.91793956030E+02  0.00000000000E+00 0.  1.
</event>
<event>
12    1  0.9028446E-003  0.2339546E+03  0.7818608E-02  0.1124030E+00
         21   -1    0    0  503  502  0.00000000000E+00  0.00000000000E+00  0.17620926029E+04  0.17620926029E+04  0.00000000000E+00 0. -1.
         21   -1    0    0  501  503 -0.00000000000E+00 -0.00000000000E+00 -0.35311100384E+02  0.35311100384E+02  0.00000000000E+00 0.  1.
          6    2    1    2  501    0 -0.15706387855E+03 -0.92300767552E+01  0.54898434801E+03  0.59675669165E+03  0.17314871759E+03 0.  0.
         24    2    3    3    0    0 -0.37978331743E+02  0.23895567791E+02  0.12056657386E+03  0.15083903670E+03  0.78757630857E+02 0.  0.
         -6    2    1    2    0  502  0.15706387855E+03  0.92300767552E+01  0.11777971545E+04  0.12006470116E+04  0.17202573392E+03 0.  0.
        -24    2    5    5    0    0  0.10516718670E+03  0.33810180292E+02  0.10696659279E+04  0.10781239514E+04  0.77219116118E+02 0.  0.
          5    1    3    3  501    0 -0.11908554681E+03 -0.33125644546E+02  0.42841777415E+03  0.44591765495E+03  0.47000000000E+01 0. -1.
        -13    1    4    4    0    0 -0.40843005595E+02 -0.16690586119E+02  0.35819482670E+02  0.56830996030E+02  0.00000000000E+00 0.  1.
         14    1    4    4    0    0  0.28646738521E+01  0.40586153909E+02  0.84747091188E+02  0.94008040668E+02  0.00000000000E+00 0. -1.
         -5    1    5    5    0  502  0.51896691856E+02 -0.24580103537E+02  0.10813122663E+03  0.12252306023E+03  0.47000000000E+01 0.  1.
         11    1    6    6    0    0  0.11225214163E+03  0.24416340901E+02  0.10380929369E+04  0.10444298189E+04  0.00000000000E+00 0. -1.
        -12    1    6    6    0    0 -0.70849549373E+01  0.93938393915E+01  0.31572990936E+02  0.33694132451E+02  0.00000000000E+00 0.  1.
</event>
<event>
12    1  0.9028446E-003  0.2240310E+03  0.7818608E-02  0.1130955E+00
         21   -1    0    0  503  502  0.00000000000E+00  0.00000000000E+00  0.58517615365E+03  0.58517615365E+03  0.00000000000E+00 0. -1.
         21   -1    0    0  501  503 -0.00000000000E+00 -0.00000000000E+00 -0.87709426036E+02  0.87709426036E+02  0.00000000000E+00 0.  1.
          6    2    1    2  501    0  0.13348424101E+03 -0.52645850289E+02  0.29978710864E+03  0.37410950730E+03  0.17174395127E+03 0.  0.
         24    2    3    3    0    0  0.11579092729E+02 -0.45207962728E+01  0.59604716810E+02  0.10045542393E+03  0.79900293768E+02 0.  0.
         -6    2    1    2    0  502 -0.13348424101E+03  0.52645850289E+02  0.19767961898E+03  0.29877607239E+03  0.17204732349E+03 0.  0.
        -24    2    5    5    0    0 -0.58098488494E+02 -0.31241080696E+02  0.13448500636E+03  0.16940962412E+03  0.79132574343E+02 0.  0.
          5    1    3    3  501    0  0.12190514828E+03 -0.48125054016E+02  0.24018239183E+03  0.27365408337E+03  0.47000000000E+01 0. -1.
        -11    1    4    4    0    0  0.84418469041E+01 -0.15048276010E+02 -0.16314186725E+02  0.23745906564E+02  0.00000000000E+00 0.  1.
         12    1    4    4    0    0  0.31372458245E+01  0.10527479738E+02  0.75918903536E+02  0.76709517369E+02  0.00000000000E+00 0. -1.
         -5    1    5    5    0  502 -0.75385752513E+02  0.83886930985E+02  0.63194612623E+02  0.12936644826E+03  0.47000000000E+01 0.  1.
         13    1    6    6    0    0  0.38617426040E+01 -0.70128470321E+01  0.87730534524E+02  0.88095060970E+02  0.00000000000E+00 0. -1.
        -14    1    6    6    0    0 -0.61960231098E+02 -0.24228233664E+02  0.46754471831E+02  0.81314563151E+02  0.00000000000E+00 0.  1.
</event>
<event>
12    1  0.9028446E-003  0.2304994E+03  0.7818608E-02  0.1126370E+00
         21   -1    0    0  503  502  0.00000000000E+00  0.00000000000E+00  0.72679132568E+03  0.72679132568E+03  0.00000000000E+00 0. -1.
         21   -1    0    0  501  503 -0.00000000000E+00 -0.00000000000E+00 -0.83966336125E+02  0.83966336125E+02  0.00000000000E+00 0.  1.
          6    2    1    2  501    0  0.97172813623E+02 -0.11843621145E+03  0.17433819449E+03  0.28863712167E+03  0.17160387542E+03 0.  0.
         24    2    3    3    0    0  0.86399023649E+02 -0.15167758861E+03  0.13077031386E+03  0.23258969597E+03  0.80784958431E+02 0.  0.
         -6    2    1    2    0  502 -0.97172813623E+02  0.11843621145E+03  0.46848679507E+03  0.52212054013E+03  0.17222162869E+03 0.  0.
        -24    2    5    5    0    0 -0.40960339989E+02  0.19203548686E+02  0.97245119400E+02  0.13372713738E+03  0.79873702120E+02 0.  0.
          5    1    3    3  501    0  0.10773789974E+02  0.33241377156E+02  0.43567880632E+02  0.56047425707E+02  0.47000000000E+01 0. -1.
        -13    1    4    4    0    0  0.63054843682E+02 -0.58465983104E+02  0.24700361983E+02  0.89466710984E+02  0.00000000000E+00 0.  1.
         14    1    4    4    0    0  0.23344179966E+02 -0.93211605506E+02  0.10606995188E+03  0.14312298498E+03  0.00000000000E+00 0. -1.
         -5    1    5    5    0  502 -0.56212473634E+02  0.99232662768E+02  0.37124167567E+03  0.38839340276E+03  0.47000000000E+01 0.  1.
         13    1    6    6    0    0 -0.21820169955E+02  0.50262866908E+02  0.51323545819E+02  0.75077173376E+02  0.00000000000E+00 0. -1.
        -14    1    6    6    0    0 -0.19140170034E+02 -0.31059318223E+02  0.45921573581E+02  0.58649964003E+02  0.00000000000E+00 0.  1.
</event>
<event>
12    1  0.9028446E-003  0.2023986E+03  0.7818608E-02  0.1148956E+00
         21   -1    0    0  501  502  0.00000000000E+00  0.00000000000E+00  0.86706032481E+02  0.86706032481E+02  0.00000000000E+00 0.  1.
         21   -1    0    0  502  503 -0.00000000000E+00 -0.00000000000E+00 -0.45931067481E+03  0.45931067481E+03  0.00000000000E+00 0.  1.
          6    2    1    2  501    0  0.89445492571E+02 -0.11421388581E+01 -0.18198628426E+03  0.27218413727E+03  0.18155824492E+03 0.  0.
         24    2    3    3    0    0  0.42516976246E+01  0.55504257838E+02 -0.11089094904E+03  0.14751082959E+03  0.79773696785E+02 0.  0.
         -6    2    1    2    0  503 -0.89445492571E+02  0.11421388581E+01 -0.19061835807E+03  0.27383257002E+03  0.17506318102E+03 0.  0.
        -24    2    5    5    0    0 -0.77462663821E+02  0.15737802940E+02 -0.21521673128E+03  0.24246711833E+03  0.78891820366E+02 0.  0.
          5    1    3    3  501    0  0.85193794946E+02 -0.56646396696E+02 -0.71095335228E+02  0.12467330768E+03  0.47000000000E+01 0. -1.
        -11    1    4    4    0    0  0.24048312398E+02 -0.11245165273E+02 -0.41112821145E+02  0.48939137035E+02  0.00000000000E+00 0.  1.
         12    1    4    4    0    0 -0.19796614774E+02  0.66749423111E+02 -0.69778127891E+02  0.98571692559E+02  0.00000000000E+00 0. -1.
         -5    1    5    5    0  503 -0.11982828750E+02 -0.14595664082E+02  0.24598373215E+02  0.31365451689E+02  0.47000000000E+01 0.  1.
         11    1    6    6    0    0 -0.49809655492E+01  0.11070541886E+02 -0.12970772887E+03  0.13027456330E+03  0.00000000000E+00 0. -1.
        -12    1    6    6    0    0 -0.72481698271E+02  0.46672610535E+01 -0.85509002411E+02  0.11219255503E+03  0.00000000000E+00 0.  1.
</event>
<event>
12    1  0.9028446E-003  0.2611709E+03  0.7818608E-02  0.1106733E+00
         21   -1    0    0  501  502  0.00000000000E+00  0.00000000000E+00  0.25308584154E+04  0.25308584154E+04  0.00000000000E+00 0. -1.
         21   -1    0    0  502  503 -0.00000000000E+00 -0.00000000000E+00 -0.29957649560E+02  0.29957649560E+02  0.00000000000E+00 0. -1.
          6    2    1    2  501    0  0.19330680563E+03  0.64505079877E+01  0.16734935037E+04  0.16937505032E+04  0.17550250718E+03 0.  0.
         24    2    3    3    0    0  0.14850994025E+03 -0.52685819627E+02  0.13692172083E+04  0.13805253153E+04  0.79141548881E+02 0.  0.
         -6    2    1    2    0  503 -0.19330680563E+03 -0.64505079877E+01  0.82740726214E+03  0.86706556175E+03  0.17260006021E+03 0.  0.
        -24    2    5    5    0    0 -0.18431527262E+03  0.39606716295E+02  0.61054578629E+03  0.64513515536E+03  0.88839179578E+02 0.  0.
          5    1    3    3  501    0  0.44796865376E+02  0.59136327615E+02  0.30427629545E+03  0.31322518795E+03  0.47000000000E+01 0. -1.
        -13    1    4    4    0    0  0.13510272500E+03 -0.22728495580E+02  0.92416580622E+03  0.93426536284E+03  0.00000000000E+00 0.  1.
         14    1    4    4    0    0  0.13407215251E+02 -0.29957324047E+02  0.44505140207E+03  0.44625995246E+03  0.00000000000E+00 0. -1.
         -5    1    5    5    0  503 -0.89915330066E+01 -0.46057224282E+02  0.21686147585E+03  0.22193040639E+03  0.47000000000E+01 0.  1.
         11    1    6    6    0    0 -0.28841685109E+01  0.58318888831E+01  0.13317123692E+03  0.13333007050E+03  0.00000000000E+00 0. -1.
        -12    1    6    6    0    0 -0.18143110411E+03  0.33774827412E+02  0.47737454937E+03  0.51180508486E+03  0.00000000000E+00 0.  1.
</event>
<event>
12    1  0.9028446E-003  0.2222300E+03  0.7818608E-02  0.1132516E+00
         21   -1    0    0  501  502  0.00000000000E+00  0.00000000000E+00  0.19806884085E+04  0.19806884085E+04  0.00000000000E+00 0.  1.
         21   -1    0    0  502  503 -0.00000000000E+00 -0.00000000000E+00 -0.25898807978E+02  0.25898807978E+02  0.00000000000E+00 0.  1.
          6    2    1    2  501    0 -0.12507516410E+03  0.59640933715E+02  0.11844181294E+04  0.12048027314E+04  0.17176285566E+03 0.  0.
         24    2    3    3    0    0 -0.88249901923E+01 -0.15920126701E+01  0.38671517903E+03  0.39633772674E+03  0.86339730087E+02 0.  0.
         -6    2    1    2    0  503  0.12507516410E+03 -0.59640933715E+02  0.77037147116E+03  0.80178448516E+03  0.17373922819E+03 0.  0.
        -24    2    5    5    0    0  0.78524266096E+02 -0.74484822240E+02  0.29844221944E+03  0.32730936910E+03  0.79684475555E+02 0.  0.
          5    1    3    3  501    0 -0.11625017391E+03  0.61232946385E+02  0.79770295037E+03  0.80846500461E+03  0.47000000000E+01 0. -1.
        -13    1    4    4    0    0 -0.33572657532E+02  0.18783012468E+02  0.89748023775E+02  0.97645443635E+02  0.00000000000E+00 0.  1.
         14    1    4    4    0    0  0.24747667340E+02 -0.20375025138E+02  0.29696715525E+03  0.29869228311E+03  0.00000000000E+00 0. -1.
         -5    1    5    5    0  503  0.46550898008E+02  0.14843888524E+02  0.47192925172E+03  0.47447511606E+03  0.47000000000E+01 0.  1.
         11    1    6    6    0    0  0.18871752305E+02 -0.69201900024E+02  0.12907638006E+03  0.14766772800E+03  0.00000000000E+00 0. -1.
        -12    1    6    6    0    0  0.59652513790E+02 -0.52829222154E+01  0.16936583938E+03  0.17964164110E+03  0.00000000000E+00 0.  1.
</event>
<event>
12    1  0.9028446E-003  0.2284658E+03  0.7818608E-02  0.1127817E+00
         21   -1    0    0  501  502  0.00000000000E+00  0.00000000000E+00  0.68789033306E+03  0.68789033306E+03  0.00000000000E+00 0.  1.
         21   -1    0    0  502  503 -0.00000000000E+00 -0.00000000000E+00 -0.96323285549E+02  0.96323285549E+02  0.00000000000E+00 0.  1.
          6    2    1    2  501    0  0.14937461989E+03  0.13281769798E+02  0.47745154194E+03  0.52929820018E+03  0.17235842695E+03 0.  0.
         24    2    3    3    0    0  0.88587815191E+02  0.58418606704E+02  0.39741538524E+03  0.41902469452E+03  0.79888494696E+02 0.  0.
         -6    2    1    2    0  503 -0.14937461989E+03 -0.13281769798E+02  0.11411550558E+03  0.25491541843E+03  0.17166927350E+03 0.  0.
        -24    2    5    5    0    0 -0.12614023390E+02 -0.22545185561E+02  0.80385798702E+02  0.11367429569E+03  0.76108934365E+02 0.  0.
          5    1    3    3  501    0  0.60786804699E+02 -0.45136836906E+02  0.80036156697E+02  0.11027350566E+03  0.47000000000E+01 0. -1.
        -13    1    4    4    0    0  0.64294883746E+02  0.15849498241E+02  0.11771520381E+03  0.13506260726E+03  0.00000000000E+00 0.  1.
         14    1    4    4    0    0  0.24292931444E+02  0.42569108463E+02  0.27970018143E+03  0.28396208727E+03  0.00000000000E+00 0. -1.
         -5    1    5    5    0  503 -0.13676059650E+03  0.92634157634E+01  0.33729706874E+02  0.14124112274E+03  0.47000000000E+01 0.  1.
         11    1    6    6    0    0 -0.22178384203E+02  0.21013916330E+02  0.53473722029E+02  0.61586559840E+02  0.00000000000E+00 0. -1.
        -12    1    6    6    0    0  0.95643608127E+01 -0.43559101891E+02  0.26912076674E+02  0.52087735852E+02  0.00000000000E+00 0.  1.
</event>
<event>
12    1  0.9028446E-003  0.1981867E+03  0.7818608E-02  0.1151401E+00
         21   -1    0    0  503  502  0.00000000000E+00  0.00000000000E+00  0.43611245824E+02  0.43611245824E+02  0.00000000000E+00 0. -1.
         21   -1    0    0  501  503 -0.00000000000E+00 -0.00000000000E+00 -0.90593978115E+03  0.90593978115E+03  0.00000000000E+00 0. -1.
          6    2    1    2  501    0  0.88089899744E+02  0.43785581713E+02 -0.38739716148E+03  0.43514884853E+03  0.17204927217E+03 0.  0.
         24    2    3    3    0    0  0.89246621786E+02  0.88678759194E+02 -0.25970471555E+03  0.29970813775E+03  0.80929269864E+02 0.  0.
         -6    2    1    2    0  502 -0.88089899744E+02 -0.43785581713E+02 -0.47493137385E+03  0.51440217845E+03  0.17138489933E+03 0.  0.
        -24    2    5    5    0    0 -0.88135626429E+01 -0.12755706256E+02 -0.37229157327E+03  0.38096826425E+03  0.79343657009E+02 0.  0.
          5    1    3    3  501    0 -0.11567220422E+01 -0.44893177481E+02 -0.12769244593E+03  0.13544071078E+03  0.47000000000E+01 0. -1.
        -13    1    4    4    0    0  0.14111294150E+02  0.10172464668E+02 -0.12701079636E+03  0.12819652902E+03  0.00000000000E+00 0.  1.
         14    1    4    4    0    0  0.75135327637E+02  0.78506294526E+02 -0.13269391919E+03  0.17151160873E+03  0.00000000000E+00 0. -1.
         -5    1    5    5    0  502 -0.79276337101E+02 -0.31029875457E+02 -0.10263980058E+03  0.13343391420E+03  0.47000000000E+01 0.  1.
         11    1    6    6    0    0 -0.12679252186E+02 -0.43981878867E+02 -0.16224859135E+03  0.16858165529E+03  0.00000000000E+00 0. -1.
        -12    1    6    6    0    0  0.38656895434E+01  0.31226172611E+02 -0.21004298192E+03  0.21238660896E+03  0.00000000000E+00 0.  1.
</event>
<event>
12    1  0.9028446E-003  0.2064133E+03  0.7818608E-02  0.1146684E+00
         21   -1    0    0  503  502  0.00000000000E+00  0.00000000000E+00  0.43137145117E+03  0.43137145117E+03  0.00000000000E+00 0. -1.
         21   -1    0    0  501  503 -0.00000000000E+00 -0.00000000000E+00 -0.10945210991E+03  0.10945210991E+03  0.00000000000E+00 0. -1.
          6    2    1    2  501    0 -0.87111670701E+02 -0.71741344537E+02  0.62030396780E+02  0.21553240079E+03  0.17283281511E+03 0.  0.
         24    2    3    3    0    0 -0.66246019340E+02  0.26692216689E+02  0.21637292711E+02  0.10700482716E+03  0.76686707382E+02 0.  0.
         -6    2    1    2    0  502  0.87111670701E+02  0.71741344537E+02  0.25988894447E+03  0.32529116029E+03  0.15980241492E+03 0.  0.
        -24    2    5    5    0    0  0.23969475318E+02  0.70886239833E+02  0.23092742513E+03  0.25565979060E+03  0.80218813928E+02 0.  0.
          5    1    3    3  501    0 -0.20865651361E+02 -0.98433561226E+02  0.40393104069E+02  0.10852757363E+03  0.47000000000E+01 0. -1.
        -13    1    4    4    0    0 -0.16624181502E+02  0.31562669002E+01  0.44429469111E+02  0.47542645665E+02  0.00000000000E+00 0.  1.
         14    1    4    4    0    0 -0.49621837838E+02  0.23535949789E+02 -0.22792176400E+02  0.59462181493E+02  0.00000000000E+00 0. -1.
         -5    1    5    5    0  502  0.63142195383E+02  0.85510470380E+00  0.28961519344E+02  0.69631369687E+02  0.47000000000E+01 0.  1.
         11    1    6    6    0    0 -0.76338798813E+01 -0.13293488325E+02  0.66590713819E+02  0.68332394373E+02  0.00000000000E+00 0. -1.
        -12    1    6    6    0    0  0.31603355199E+02  0.84179728158E+02  0.16433671131E+03  0.18732739623E+03  0.00000000000E+00 0.  1.
</event>
<event>
12    1  0.9028446E-003  0.1730537E+03  0.7818608E-02  0.1174844E+00
         21   -1    0    0  501  502  0.00000000000E+00  0.00000000000E+00  0.11827271123E+03  0.11827271123E+03  0.00000000000E+00 0.  1.
         21   -1    0    0  502  503 -0.00000000000E+00 -0.00000000000E+00 -0.60164841710E+03  0.60164841710E+03  0.00000000000E+00 0.  1.
          6    2    1    2  501    0  0.12739554956E+02 -0.61233556893E+01  0.32734480144E+02  0.17557078443E+03  0.17191207756E+03 0.  0.
         24    2    3    3    0    0 -0.36399279440E+02 -0.19456366475E+02 -0.30523863814E+02  0.94231357933E+02  0.79021419979E+02 0.  0.
         -6    2    1    2    0  503 -0.12739554956E+02  0.61233556893E+01 -0.51611018601E+03  0.54435034391E+03  0.17247545059E+03 0.  0.
        -24    2    5    5    0    0 -0.97149572289E+01  0.36520839870E+02 -0.12854175532E+03  0.15555150941E+03  0.79026179710E+02 0.  0.
          5    1    3    3  501    0  0.49138834396E+02  0.13333010786E+02  0.63258343959E+02  0.81339426497E+02  0.47000000000E+01 0. -1.
        -13    1    4    4    0    0 -0.56581181059E+02 -0.20811150986E+02 -0.33827628270E+01  0.60381927261E+02  0.00000000000E+00 0.  1.
         14    1    4    4    0    0  0.20181901619E+02  0.13547845110E+01 -0.27141100987E+02  0.33849430672E+02  0.00000000000E+00 0. -1.
         -5    1    5    5    0  503 -0.30245977274E+01 -0.30397484181E+02 -0.38756843069E+03  0.38879883450E+03  0.47000000000E+01 0.  1.
         13    1    6    6    0    0 -0.10486864070E+02  0.61486125314E+02 -0.96900256140E+02  0.11523965274E+03  0.00000000000E+00 0. -1.
        -14    1    6    6    0    0  0.77190684099E+00 -0.24965285444E+02 -0.31641499181E+02  0.40311856667E+02  0.00000000000E+00 0.  1.
</event>
<event>
12    1  0.9028446E-003  0.2146594E+03  0.7818608E-02  0.1137985E+00
         21   -1    0    0  503  502  0.00000000000E+00  0.00000000000E+00  0.83235358716E+03  0.83235358716E+03  0.00000000000E+00 0.  1.
         21   -1    0    0  501  503 -0.00000000000E+00 -0.00000000000E+00 -0.83313618477E+02  0.83313618477E+02  0.00000000000E+00 0.  1.
          6    2    1    2  501    0  0.12665034598E+03  0.29966940656E+02  0.10879075353E+03  0.24039117008E+03  0.17033543063E+03 0.  0.
         24    2    3    3    0    0  0.13018600713E+03  0.63604042319E+02  0.12004722914E+03  0.20443628514E+03  0.79931137886E+02 0.  0.
         -6    2    1    2    0  502 -0.12665034598E+03 -0.29966940656E+02  0.64024921515E+03  0.67527603556E+03  0.17070541594E+03 0.  0.
        -24    2    5    5    0    0 -0.14565769755E+03 -0.22073683609E+02  0.62873787899E+03  0.65123058316E+03  0.84181587071E+02 0.  0.
          5    1    3    3  501    0 -0.35356611538E+01 -0.33637101663E+02 -0.11256475610E+02  0.35954884943E+02  0.47000000000E+01 0. -1.
        -13    1    4    4    0    0  0.41494306012E+02  0.51870683672E+02  0.18196445507E+02  0.68872751398E+02  0.00000000000E+00 0.  1.
         14    1    4    4    0    0  0.88691701118E+02  0.11733358646E+02  0.10185078364E+03  0.13556353374E+03  0.00000000000E+00 0. -1.
         -5    1    5    5    0  502  0.19007351579E+02 -0.78932570463E+01  0.11511336160E+02  0.24045452398E+02  0.47000000000E+01 0.  1.
         13    1    6    6    0    0  0.33891233847E+01  0.11444321298E+02  0.10472182695E+03  0.10539980876E+03  0.00000000000E+00 0. -1.
        -14    1    6    6    0    0 -0.14904682094E+03 -0.33518004907E+02  0.52401605204E+03  0.54583077440E+03  0.00000000000E+00 0.  1.
</event>
<event>
12    1  0.9028446E-003  0.1920995E+03  0.7818608E-02  0.1156688E+00
         21   -1    0    0  501  502  0.00000000000E+00  0.00000000000E+00  0.52745123640E+03  0.52745123640E+03  0.00000000000E+00 0.  1.
         21   -1    0    0  502  503 -0.00000000000E+00 -0.00000000000E+00 -0.81901079941E+02  0.81901079941E+02  0.00000000000E+00 0.  1.
          6    2    1    2  501    0 -0.37303431175E+02 -0.79313446428E+02  0.34018008758E+03  0.39067212613E+03  0.17093872993E+03 0.  0.
         24    2    3    3    0    0 -0.59612071803E+02 -0.22607752087E+02  0.10288547169E+03  0.14563328034E+03  0.80987174902E+02 0.  0.
         -6    2    1    2    0  503  0.37303431175E+02  0.79313446428E+02  0.10537006888E+03  0.21868019021E+03  0.17039954640E+03 0.  0.
        -24    2    5    5    0    0  0.83342161141E+02  0.85340216161E+02  0.69410852909E+02  0.15976464198E+03  0.80486060946E+02 0.  0.
          5    1    3    3  501    0  0.22308640628E+02 -0.56705694340E+02  0.23729461589E+03  0.24503884579E+03  0.47000000000E+01 0. -1.
        -13    1    4    4    0    0 -0.23717838553E+02 -0.33340145222E+02  0.54921780614E+01  0.41282746625E+02  0.00000000000E+00 0.  1.
         14    1    4    4    0    0 -0.35894233250E+02  0.10732393134E+02  0.97393293625E+02  0.10435053371E+03  0.00000000000E+00 0. -1.
         -5    1    5    5    0  503 -0.46038729965E+02 -0.60267697337E+01  0.35959215976E+02  0.58915548235E+02  0.47000000000E+01 0.  1.
         11    1    6    6    0    0  0.43577943875E+02 -0.21549000576E+01  0.40171802792E+02  0.59308132041E+02  0.00000000000E+00 0. -1.
        -12    1    6    6    0    0  0.39764217266E+02  0.87495116219E+02  0.29239050118E+02  0.10045650994E+03  0.00000000000E+00 0.  1.
</event>
<event>
12    1  0.9028446E-003  0.1866665E+03  0.7818608E-02  0.1163302E+00
         21   -1    0    0  501  502  0.00000000000E+00  0.00000000000E+00  0.89830066506E+02  0.89830066506E+02  0.00000000000E+00 0.  1.
         21   -1    0    0  502  503 -0.00000000000E+00 -0.00000000000E+00 -0.37714536205E+03  0.37714536205E+03  0.00000000000E+00 0.  1.
          6    2    1    2  501    0 -0.11075303760E+02 -0.66348217874E+02 -0.11989890195E+03  0.22185611423E+03  0.17412535820E+03 0.  0.
         24    2    3    3    0    0 -0.33030852130E+02  0.94414498866E+01 -0.11257927769E+03  0.14247232028E+03  0.80275090229E+02 0.  0.
         -6    2    1    2    0  503  0.11075303760E+02  0.66348217874E+02 -0.16741639360E+03  0.24511931432E+03  0.16592311786E+03 0.  0.
        -24    2    5    5    0    0 -0.13839717549E+02  0.83475985089E+01 -0.18411002314E+02  0.83225748158E+02  0.79538292460E+02 0.  0.
          5    1    3    3  501    0  0.21955548370E+02 -0.75789667761E+02 -0.73196242529E+01  0.79383793955E+02  0.47000000000E+01 0. -1.
        -11    1    4    4    0    0 -0.35101116239E+02 -0.74195103038E+01 -0.83076878609E+01  0.36826012164E+02  0.00000000000E+00 0.  1.
         12    1    4    4    0    0  0.20702641082E+01  0.16860960190E+02 -0.10427158983E+03  0.10564630811E+03  0.00000000000E+00 0. -1.
         -5    1    5    5    0  503  0.24915021309E+02  0.58000619365E+02 -0.14900539129E+03  0.16189356617E+03  0.47000000000E+01 0.  1.
         13    1    6    6    0    0 -0.33356956904E+01 -0.33174903411E+02  0.60733570390E+01  0.33890806243E+02  0.00000000000E+00 0. -1.
        -14    1    6    6    0    0 -0.10504021858E+02  0.41522501920E+02 -0.24484359353E+02  0.49334941915E+02  0.00000000000E+00 0.  1.
</event>
<event>
12    1  0.9028446E-003  0.1795543E+03  0.7818608E-02  0.1168803E+00
         21   -1    0    0  501  502  0.00000000000E+00  0.00000000000E+00  0.36492384717E+03  0.36492384717E+03  0.00000000000E+00 0.  1.
         21   -1    0    0  502  503 -0.00000000000E+00 -0.00000000000E+00 -0.91415869116E+02  0.91415869116E+02  0.00000000000E+00 0.  1.
          6    2    1    2  501    0  0.48420452030E+02 -0.13085096897E+02  0.18485919973E+03  0.25609402860E+03  0.16998666954E+03 0.  0.
         24    2    3    3    0    0 -0.37545000242E+02 -0.16713006535E+02  0.10889618362E+03  0.14122153176E+03  0.79976187674E+02 0.  0.
         -6    2    1    2    0  503 -0.48420452030E+02  0.13085096897E+02  0.88648778324E+02  0.20024568769E+03  0.17240640825E+03 0.  0.
        -24    2    5    5    0    0  0.29925076190E+02 -0.28218110175E+02  0.54337478219E+02  0.10514925232E+03  0.80075163419E+02 0.  0.
          5    1    3    3  501    0  0.85965452272E+02  0.36279096378E+01  0.75963016112E+02  0.11487249684E+03  0.47000000000E+01 0. -1.
        -11    1    4    4    0    0 -0.19222081860E+01  0.13869782118E+02  0.89225364184E+02  0.90317392312E+02  0.00000000000E+00 0.  1.
         12    1    4    4    0    0 -0.35622792056E+02 -0.30582788653E+02  0.19670819437E+02  0.50904139448E+02  0.00000000000E+00 0. -1.
         -5    1    5    5    0  503 -0.78345528220E+02  0.41303207073E+02  0.34311300105E+02  0.95096435377E+02  0.47000000000E+01 0.  1.
         11    1    6    6    0    0  0.52367772877E+02 -0.26842111240E+02  0.16467118382E+02  0.61106861806E+02  0.00000000000E+00 0. -1.
        -12    1    6    6    0    0 -0.22442696687E+02 -0.13759989354E+01  0.37870359837E+02  0.44042390510E+02  0.00000000000E+00 0.  1.
</event>
<event>
12    1  0.9028446E-003  0.1726141E+03  0.7818608E-02  0.1175493E+00
         21   -1    0    0  503  502  0.00000000000E+00  0.00000000000E+00  0.20962226273E+03  0.20962226273E+03  0.00000000000E+00 0.  1.
         21   -1    0    0  501  503 -0.00000000000E+00 -0.00000000000E+00 -0.19686315800E+03  0.19686315800E+03  0.00000000000E+00 0.  1.
          6    2    1    2  501    0  0.38891134783E+01 -0.27784534644E+02 -0.10183107960E+03  0.20041253967E+03  0.17031885309E+03 0.  0.
         24    2    3    3    0    0  0.37221748053E+02  0.31228437460E+02 -0.24257265298E+02  0.97294248038E+02  0.80728445713E+02 0.  0.
         -6    2    1    2    0  502 -0.38891134783E+01  0.27784534644E+02  0.11459018433E+03  0.20607288106E+03  0.16896158261E+03 0.  0.
        -24    2    5    5    0    0  0.33164203170E+02  0.40651436065E+02  0.13226389421E+03  0.16279522577E+03  0.79095791254E+02 0.  0.
          5    1    3    3  501    0 -0.33332634575E+02 -0.59012972104E+02 -0.77573814301E+02  0.10311829163E+03  0.47000000000E+01 0. -1.
        -11    1    4    4    0    0 -0.17060002546E+02 -0.61854689036E+01 -0.25569708734E+02  0.31354644268E+02  0.00000000000E+00 0.  1.
         12    1    4    4    0    0  0.54281750599E+02  0.37413906364E+02  0.13124434367E+01  0.65939603770E+02  0.00000000000E+00 0. -1.
         -5    1    5    5    0  502 -0.37053316648E+02 -0.12866901421E+02 -0.17673709888E+02  0.43277655297E+02  0.47000000000E+01 0.  1.
         11    1    6    6    0    0  0.16245306902E+02  0.36794100791E+02  0.12991295972E+02  0.42266885625E+02  0.00000000000E+00 0. -1.
        -12    1    6    6    0    0  0.16918896268E+02  0.38573352736E+01  0.11927259824E+03  0.12052834014E+03  0.00000000000E+00 0.  1.
</event>
<event>
12    1  0.9028446E-003  0.2464292E+03  0.7818608E-02  0.1115934E+00
         21   -1    0    0  501  502  0.00000000000E+00  0.00000000000E+00  0.14594948243E+03  0.14594948243E+03  0.00000000000E+00 0. -1.
         21   -1    0    0  502  503 -0.00000000000E+00 -0.00000000000E+00 -0.47653720653E+03  0.47653720653E+03  0.00000000000E+00 0.  1.
          6    2    1    2  501    0 -0.94672937021E+02  0.14677867589E+03 -0.28008859157E+03  0.37306430464E+03  0.17384018974E+03 0.  0.
         24    2    3    3    0    0 -0.73188679771E+02  0.18428660784E+02 -0.86668378275E+02  0.13989319023E+03  0.79765271226E+02 0.  0.
         -6    2    1    2    0  503  0.94672937021E+02 -0.14677867589E+03 -0.50499132533E+02  0.24942238432E+03  0.17074665066E+03 0.  0.
        -24    2    5    5    0    0  0.10136591177E+03 -0.10352258321E+03 -0.91959024631E+02  0.18895009216E+03  0.79080350365E+02 0.  0.
          5    1    3    3  501    0 -0.21484257251E+02  0.12835001511E+03 -0.19342021329E+03  0.23317111441E+03  0.47000000000E+01 0. -1.
        -11    1    4    4    0    0 -0.58051285794E+02  0.26205100576E+02 -0.99803869735E+02  0.11839540317E+03  0.00000000000E+00 0.  1.
         12    1    4    4    0    0 -0.15137393977E+02 -0.77764397915E+01  0.13135491460E+02  0.21497787052E+02  0.00000000000E+00 0. -1.
         -5    1    5    5    0  503 -0.66929747518E+01 -0.43256092683E+02  0.41459892098E+02  0.60472292151E+02  0.47000000000E+01 0.  1.
         13    1    6    6    0    0  0.10769071269E+03 -0.64979194523E+02 -0.74324026394E+02  0.14609464816E+03  0.00000000000E+00 0. -1.
        -14    1    6    6    0    0 -0.63248009202E+01 -0.38543388686E+02 -0.17634998237E+02  0.42855444005E+02  0.00000000000E+00 0.  1.
</event>
<event>
12    1  0.9028446E-003  0.2305731E+03  0.7818608E-02  0.1129217E+00
         21   -1    0    0  503  502  0.00000000000E+00  0.00000000000E+00  0.57130948717E+03  0.57130948717E+03  0.00000000000E+00 0.  1.
         21   -1    0    0  501  503 -0.00000000000E+00 -0.00000000000E+00 -0.87165112552E+02  0.87165112552E+02  0.00000000000E+00 0.  1.
          6    2    1    2  501    0  0.18085405497E+02  0.13270045571E+03  0.22394059395E+03  0.32142393681E+03  0.18768980978E+03 0.  0.
         24    2    3    3    0    0  0.70192621485E+02  0.11996964541E+03  0.11004347538E+03  0.19544029061E+03  0.82265550454E+02 0.  0.
         -6    2    1    2    0  502 -0.18085405497E+02 -0.13270045571E+03  0.26020378067E+03  0.33705066291E+03  0.16721438054E+03 0.  0.
        -24    2    5    5    0    0 -0.36233040586E+02 -0.14104223372E+03  0.26939285389E+03  0.31456842578E+03  0.71937749816E+02 0.  0.
          5    1    3    3  501    0 -0.52107215987E+02  0.12730810298E+02  0.11389711857E+03  0.12598364619E+03  0.47000000000E+01 0. -1.
        -11    1    4    4    0    0  0.52158244021E+02  0.11086720837E+03  0.12121843889E+03  0.17235408391E+03  0.00000000000E+00 0.  1.
         12    1    4    4    0    0  0.18034377463E+02  0.91024370423E+01 -0.11174963518E+02  0.23086206709E+02  0.00000000000E+00 0. -1.
         -5    1    5    5    0  502  0.18147635088E+02  0.83417780069E+01 -0.91890732266E+01  0.22482237130E+02  0.47000000000E+01 0.  1.
         11    1    6    6    0    0 -0.10323447156E+02 -0.75842214062E+01 -0.61969401076E-02  0.12809918576E+02  0.00000000000E+00 0. -1.
        -12    1    6    6    0    0 -0.25909593430E+02 -0.13345801231E+03  0.26939905083E+03  0.30175850721E+03  0.00000000000E+00 0.  1.
</event>
<event>
12    1  0.9028446E-003  0.1906909E+03  0.7818608E-02  0.1158062E+00
         21   -1    0    0  501  502  0.00000000000E+00  0.00000000000E+00  0.36419922591E+03  0.36419922591E+03  0.00000000000E+00 0. -1.
         21   -1    0    0  502  503 -0.00000000000E+00 -0.00000000000E+00 -0.10822059503E+03  0.10822059503E+03  0.00000000000E+00 0. -1.
          6    2    1    2  501    0 -0.71325709396E+02 -0.43687573242E+02  0.19600492644E+03  0.27346108922E+03  0.17136824458E+03 0.  0.
         24    2    3    3    0    0 -0.60571631271E+02 -0.60707917879E+02  0.53280905247E+02  0.12924743329E+03  0.80694921409E+02 0.  0.
         -6    2    1    2    0  503  0.71325709396E+02  0.43687573242E+02  0.59973704434E+02  0.19895873173E+03  0.17026970027E+03 0.  0.
        -24    2    5    5    0    0  0.86511702850E+02 -0.37427504320E+02  0.31020039055E+02  0.11137634226E+03  0.50570287558E+02 0.  0.
          5    1    3    3  501    0 -0.10754078125E+02  0.17020344637E+02  0.14272402120E+03  0.14421365592E+03  0.47000000000E+01 0. -1.
        -13    1    4    4    0    0  0.16557902877E+02  0.28013448487E+01  0.14100030398E+02  0.21927666038E+02  0.00000000000E+00 0.  1.
         14    1    4    4    0    0 -0.77129534148E+02 -0.63509262728E+02  0.39180874849E+02  0.10731976726E+03  0.00000000000E+00 0. -1.
         -5    1    5    5    0  503 -0.15185993454E+02  0.81115077562E+02  0.28953665378E+02  0.87582389462E+02  0.47000000000E+01 0.  1.
         13    1    6    6    0    0  0.44380545845E+02 -0.70713513350E+01  0.38164524872E+02  0.58959035083E+02  0.00000000000E+00 0. -1.
        -14    1    6    6    0    0  0.42131157005E+02 -0.30356152985E+02 -0.71444858171E+01  0.52417307182E+02  0.00000000000E+00 0.  1.
</event>
<event>
12    1  0.9028446E-003  0.2611369E+03  0.7818608E-02  0.1106519E+00
         21   -1    0    0  501  502  0.00000000000E+00  0.00000000000E+00  0.85750487128E+02  0.85750487128E+02  0.00000000000E+00 0.  1.
         21   -1    0    0  502  503 -0.00000000000E+00 -0.00000000000E+00 -0.86234258966E+03  0.86234258966E+03  0.00000000000E+00 0.  1.
          6    2    1    2  501    0  0.16818337245E+03  0.10102203514E+03 -0.25518125707E+03  0.36511636465E+03  0.17234090467E+03 0.  0.
         24    2    3    3    0    0  0.86200668344E+02 -0.15842665116E+02 -0.11871413549E+03  0.16757171853E+03  0.79408372512E+02 0.  0.
         -6    2    1    2    0  503 -0.16818337245E+03 -0.10102203514E+03 -0.52141084547E+03  0.58297671214E+03  0.17175994521E+03 0.  0.
        -24    2    5    5    0    0 -0.11593599571E+03 -0.34730702093E+00 -0.22684167500E+03  0.26728972247E+03  0.80903488790E+02 0.  0.
          5    1    3    3  501    0  0.81982704104E+02  0.11686470026E+03 -0.13646712157E+03  0.19754464611E+03  0.47000000000E+01 0. -1.
        -11    1    4    4    0    0 -0.27174549027E+01  0.17807734069E+01 -0.58852067522E+02  0.58941679368E+02  0.00000000000E+00 0.  1.
         12    1    4    4    0    0  0.88918123247E+02 -0.17623438523E+02 -0.59862067971E+02  0.10863003916E+03  0.00000000000E+00 0. -1.
         -5    1    5    5    0  503 -0.52247376741E+02 -0.10067472812E+03 -0.29456917047E+03  0.31568698967E+03  0.47000000000E+01 0.  1.
         11    1    6    6    0    0 -0.83848610494E+02  0.10799236583E+02 -0.21548101150E+03  0.23147198386E+03  0.00000000000E+00 0. -1.
        -12    1    6    6    0    0 -0.32087385214E+02 -0.11146543604E+02 -0.11360663495E+02  0.35817738611E+02  0.00000000000E+00 0.  1.
</event>
<event>
12    1  0.9028446E-003  0.2025047E+03  0.7818608E-02  0.1149657E+00
         21   -1    0    0  501  502  0.00000000000E+00  0.00000000000E+00  0.17005211799E+03  0.17005211799E+03  0.00000000000E+00 0.  1.
         21   -1    0    0  502  503 -0.00000000000E+00 -0.00000000000E+00 -0.28125281959E+03  0.28125281959E+03  0.00000000000E+00 0.  1.
          6    2    1    2  501    0  0.62398437231E+01  0.10688715302E+03  0.41773829929E+02  0.19751496459E+03  0.16063408493E+03 0.  0.
         24    2    3    3    0    0 -0.43901151673E+02  0.10109633987E+03  0.61287922427E+01  0.13554471651E+03  0.78657657128E+02 0.  0.
         -6    2    1    2    0  503 -0.62398437231E+01 -0.10688715302E+03 -0.15297453153E+03  0.25378997298E+03  0.17188468216E+03 0.  0.
        -24    2    5    5    0    0  0.14252905764E+02 -0.53089371669E+02 -0.59714227382E+01  0.95846444930E+02  0.78289567691E+02 0.  0.
          5    1    3    3  501    0  0.50140995396E+02  0.57908131467E+01  0.35645037686E+02  0.61970248086E+02  0.47000000000E+01 0. -1.
        -11    1    4    4    0    0 -0.29996228024E+02  0.59485839303E+02  0.42102354057E+02  0.78809561542E+02  0.00000000000E+00 0.  1.
         12    1    4    4    0    0 -0.13904923649E+02  0.41610500568E+02 -0.35973561815E+02  0.56735154965E+02  0.00000000000E+00 0. -1.
         -5    1    5    5    0  503 -0.20492749487E+02 -0.53797781348E+02 -0.14700310879E+03  0.15794352805E+03  0.47000000000E+01 0.  1.
         13    1    6    6    0    0  0.30278298808E+01  0.20451314216E+02  0.30910966560E+01  0.20904039932E+02  0.00000000000E+00 0. -1.
        -14    1    6    6    0    0  0.11225075883E+02 -0.73540685886E+02 -0.90625193942E+01  0.74942404998E+02  0.00000000000E+00 0.  1.
</event>
<event>
12    1  0.9028446E-003  0.2322426E+03  0.7818608E-02  0.1125114E+00
         21   -1    0    0  503  502  0.00000000000E+00  0.00000000000E+00  0.27678921989E+03  0.27678921989E+03  0.00000000000E+00 0.  1.
         21   -1    0    0  501  503 -0.00000000000E+00 -0.00000000000E+00 -0.30184634383E+03  0.30184634383E+03  0.00000000000E+00 0.  1.
          6    2    1    2  501    0  0.14598555187E+03 -0.56271841070E+02 -0.18494109575E+03  0.29688355817E+03  0.17163431115E+03 0.  0.
         24    2    3    3    0    0  0.15698086728E+03 -0.83582328379E+02 -0.12888177840E+03  0.23338948963E+03  0.78937587738E+02 0.  0.
         -6    2    1    2    0  502 -0.14598555187E+03  0.56271841070E+02  0.15988397181E+03  0.28175200555E+03  0.17129800564E+03 0.  0.
        -24    2    5    5    0    0 -0.16554548092E+03  0.70460391883E+02  0.10686666373E+03  0.22329834223E+03  0.77921067437E+02 0.  0.
          5    1    3    3  501    0 -0.10995315414E+02  0.27310487309E+02 -0.56059317351E+02  0.63494068542E+02  0.47000000000E+01 0. -1.
        -13    1    4    4    0    0  0.11675605700E+03 -0.67863369930E+02 -0.13357700126E+03  0.18994796416E+03  0.00000000000E+00 0.  1.
         14    1    4    4    0    0  0.40224810285E+02 -0.15718958449E+02  0.46952228651E+01  0.43441525468E+02  0.00000000000E+00 0. -1.
         -5    1    5    5    0  502  0.19559929049E+02 -0.14188550813E+02  0.53017308082E+02  0.58453663314E+02  0.47000000000E+01 0.  1.
         13    1    6    6    0    0 -0.10539560300E+03  0.78410603031E+02  0.51300399224E+02  0.14102548266E+03  0.00000000000E+00 0. -1.
        -14    1    6    6    0    0 -0.60149877920E+02 -0.79502111488E+01  0.55566264505E+02  0.82272859572E+02  0.00000000000E+00 0.  1.
</event>
<event>
12    1  0.9028446E-003  0.2193092E+03  0.7818608E-02  0.1134459E+00
         21   -1    0    0  503  502  0.00000000000E+00  0.00000000000E+00  0.16286363630E+03  0.16286363630E+03  0.00000000000E+00 0. -1.
         21   -1    0    0  501  503 -0.00000000000E+00 -0.00000000000E+00 -0.30707937178E+03  0.30707937178E+03  0.00000000000E+00 0.  1.
          6    2    1    2  501    0 -0.13004612262E+03 -0.37505509486E+02 -0.11887950588E+03  0.24917516569E+03  0.17215478219E+03 0.  0.
         24    2    3    3    0    0 -0.10703742003E+03 -0.52498446806E+02 -0.14989273288E+03  0.20748465342E+03  0.79805725546E+02 0.  0.
         -6    2    1    2    0  502  0.13004612262E+03  0.37505509486E+02 -0.25336229603E+02  0.22076784239E+03  0.17256262183E+03 0.  0.
        -24    2    5    5    0    0  0.10170506627E+03  0.76129977176E+02 -0.61422916962E+02  0.16060635982E+03  0.76693768711E+02 0.  0.
          5    1    3    3  501    0 -0.23008702587E+02  0.14992937320E+02  0.31013227005E+02  0.41690512272E+02  0.47000000000E+01 0. -1.
        -11    1    4    4    0    0 -0.10197279830E+03 -0.12742859545E+02 -0.11623092006E+03  0.15514657212E+03  0.00000000000E+00 0.  1.
         12    1    4    4    0    0 -0.50646217326E+01 -0.39755587261E+02 -0.33661812821E+02  0.52338081300E+02  0.00000000000E+00 0. -1.
         -5    1    5    5    0  502  0.28341056354E+02 -0.38624467690E+02  0.36086687359E+02  0.60161482563E+02  0.47000000000E+01 0.  1.
         11    1    6    6    0    0  0.10670101379E+03  0.44439830548E+02 -0.41332363789E+02  0.12275328582E+03  0.00000000000E+00 0. -1.
        -12    1    6    6    0    0 -0.49959475232E+01  0.31690146628E+02 -0.20090553173E+02  0.37853074007E+02  0.00000000000E+00 0.  1.
</event>
<event>
12    1  0.9028446E-003  0.1959276E+03  0.7818608E-02  0.1154190E+00
         21   -1    0    0  503  502  0.00000000000E+00  0.00000000000E+00  0.44612419721E+03  0.44612419721E+03  0.00000000000E+00 0. -1.
         21   -1    0    0  501  503 -0.00000000000E+00 -0.00000000000E+00 -0.16036989481E+03  0.16036989481E+03  0.00000000000E+00 0. -1.
          6    2    1    2  501    0  0.40809008544E+02 -0.75308296742E+02 -0.65364340932E+02  0.20654328588E+03  0.17621270425E+03 0.  0.
         24    2    3    3    0    0  0.62115871155E+02 -0.10869312560E+03 -0.29138750362E+02  0.15266460174E+03  0.82370121095E+02 0.  0.
         -6    2    1    2    0  502 -0.40809008544E+02  0.75308296742E+02  0.35111864333E+03  0.39995080614E+03  0.17128815168E+03 0.  0.
        -24    2    5    5    0    0  0.22499671085E+02  0.19892594259E+02  0.25995138096E+03  0.27580392247E+03  0.87127106468E+02 0.  0.
          5    1    3    3  501    0 -0.21306862611E+02  0.33384828860E+02 -0.36225590571E+02  0.53878684138E+02  0.47000000000E+01 0. -1.
        -11    1    4    4    0    0  0.74672501249E+02 -0.52342540651E+02 -0.26099454776E+02  0.94852019189E+02  0.00000000000E+00 0.  1.
         12    1    4    4    0    0 -0.12556630094E+02 -0.56350584950E+02 -0.30392955855E+01  0.57812582551E+02  0.00000000000E+00 0. -1.
         -5    1    5    5    0  502 -0.63308679629E+02  0.55415702483E+02  0.91167262371E+02  0.12414688368E+03  0.47000000000E+01 0.  1.
         13    1    6    6    0    0 -0.81600829598E+01  0.41391235918E+02  0.20507041626E+03  0.20936498510E+03  0.00000000000E+00 0. -1.
        -14    1    6    6    0    0  0.30659754045E+02 -0.21498641659E+02  0.54880964701E+02  0.66438937362E+02  0.00000000000E+00 0.  1.
</event>
<event>
12    1  0.9028446E-003  0.2435472E+03  0.7818608E-02  0.1117552E+00
         21   -1    0    0  501  502  0.00000000000E+00  0.00000000000E+00  0.21185886901E+04  0.21185886901E+04  0.00000000000E+00 0. -1.
         21   -1    0    0  502  503 -0.00000000000E+00 -0.00000000000E+00 -0.31995405389E+02  0.31995405389E+02  0.00000000000E+00 0. -1.
          6    2    1    2  501    0  0.14882591679E+03 -0.87085082654E+02  0.14278440438E+04  0.14484660390E+04  0.17199502204E+03 0.  0.
         24    2    3    3    0    0  0.53376697006E+02  0.21990259105E+02  0.59823063392E+03  0.60627337483E+03  0.79717440937E+02 0.  0.
         -6    2    1    2    0  503 -0.14882591679E+03  0.87085082654E+02  0.65874924088E+03  0.70211805646E+03  0.17113222288E+03 0.  0.
        -24    2    5    5    0    0 -0.95030011265E+02  0.10166230895E+03  0.59918273310E+03  0.62040665072E+03  0.80737454222E+02 0.  0.
          5    1    3    3  501    0  0.95449219782E+02 -0.10907534176E+03  0.82961340988E+03  0.84219266418E+03  0.47000000000E+01 0. -1.
        -11    1    4    4    0    0  0.42414799392E+02  0.45279286912E+02  0.52495073383E+03  0.52860429622E+03  0.00000000000E+00 0.  1.
         12    1    4    4    0    0  0.10961897613E+02 -0.23289027807E+02  0.73279900092E+02  0.77669078616E+02  0.00000000000E+00 0. -1.
         -5    1    5    5    0  503 -0.53795905523E+02 -0.14577226296E+02  0.59566507789E+02  0.81711405738E+02  0.47000000000E+01 0.  1.
         13    1    6    6    0    0 -0.56148211452E+02  0.34591123499E+02  0.14036821713E+03  0.15508837434E+03  0.00000000000E+00 0. -1.
        -14    1    6    6    0    0 -0.38881799813E+02  0.67071185451E+02  0.45881451597E+03  0.46531827638E+03  0.00000000000E+00 0.  1.
</event>
<event>
12    1  0.9028446E-003  0.2679499E+03  0.7818608E-02  0.1102595E+00
         21   -1    0    0  501  502  0.00000000000E+00  0.00000000000E+00  0.23408377752E+03  0.23408377752E+03  0.00000000000E+00 0.  1.
         21   -1    0    0  502  503 -0.00000000000E+00 -0.00000000000E+00 -0.32616769225E+03  0.32616769225E+03  0.00000000000E+00 0. -1.
          6    2    1    2  501    0 -0.14548935202E+03 -0.14113028639E+03 -0.11639698106E+03  0.29213933058E+03  0.17524902847E+03 0.  0.
         24    2    3    3    0    0 -0.39115303721E+02 -0.17262445542E+01 -0.20783688700E+02  0.92357157426E+02  0.81024045236E+02 0.  0.
         -6    2    1    2    0  503  0.14548935202E+03  0.14113028639E+03  0.24313066333E+02  0.26811213920E+03  0.17380473153E+03 0.  0.
        -24    2    5    5    0    0  0.10335221490E+03  0.21856757687E+02  0.39194868756E+02  0.14065520130E+03  0.84191743863E+02 0.  0.
          5    1    3    3  501    0 -0.10637404830E+03 -0.13940404184E+03 -0.95613292356E+02  0.19978217315E+03  0.47000000000E+01 0. -1.
        -13    1    4    4    0    0 -0.20041549186E+02  0.10300344805E+02  0.29574692832E+02  0.37180952825E+02  0.00000000000E+00 0.  1.
         14    1    4    4    0    0 -0.19073754535E+02 -0.12026589359E+02 -0.50358381532E+02  0.55176204601E+02  0.00000000000E+00 0. -1.
         -5    1    5    5    0  503  0.42137137127E+02  0.11927352870E+03 -0.14881802423E+02  0.12745693790E+03  0.47000000000E+01 0.  1.
         11    1    6    6    0    0 -0.58944651295E+01 -0.17881616026E+02  0.49999982485E+01  0.19480680003E+02  0.00000000000E+00 0. -1.
        -12    1    6    6    0    0  0.10924668003E+03  0.39738373713E+02  0.34194870507E+02  0.12117452130E+03  0.00000000000E+00 0.  1.
</event>
<event>
12    1  0.9028446E-003  0.3105956E+03  0.7818608E-02  0.1080142E+00
         21   -1    0    0  503  502  0.00000000000E+00  0.00000000000E+00  0.71229735317E+03  0.71229735317E+03  0.00000000000E+00 0.  1.
         21   -1    0    0  501  503 -0.00000000000E+00 -0.00000000000E+00 -0.13562698704E+03  0.13562698704E+03  0.00000000000E+00 0. -1.
          6    2    1    2  501    0 -0.14075189863E+03  0.21749279449E+03  0.31343593565E+03  0.44078554678E+03  0.17010467329E+03 0.  0.
         24    2    3    3    0    0 -0.63527081709E+02  0.32005930309E+02  0.13617302314E+03  0.17280554887E+03  0.79111287453E+02 0.  0.
         -6    2    1    2    0  502  0.14075189863E+03 -0.21749279449E+03  0.26323443048E+03  0.40713879343E+03  0.17133423214E+03 0.  0.
        -24    2    5    5    0    0  0.20215418420E+02 -0.99905153100E+02  0.58855060743E+02  0.14228239226E+03  0.79941592512E+02 0.  0.
          5    1    3    3  501    0 -0.77224816921E+02  0.18548686418E+03  0.17726291251E+03  0.26797999792E+03  0.47000000000E+01 0. -1.
        -11    1    4    4    0    0 -0.60123574657E+02 -0.12351883959E+02  0.70405085688E+02  0.93403904403E+02  0.00000000000E+00 0.  1.
         12    1    4    4    0    0 -0.34035070516E+01  0.44357814268E+02  0.65767937452E+02  0.79401644464E+02  0.00000000000E+00 0. -1.
         -5    1    5    5    0  502  0.12053648021E+03 -0.11758764139E+03  0.20437936974E+03  0.26485640118E+03  0.47000000000E+01 0.  1.
         13    1    6    6    0    0  0.50988649697E+02 -0.60731096901E+02  0.41715105386E+02  0.89600549921E+02  0.00000000000E+00 0. -1.
        -14    1    6    6    0    0 -0.30773231277E+02 -0.39174056198E+02  0.17139955358E+02  0.52681842336E+02  0.00000000000E+00 0.  1.
</event>
<event>
12    1  0.9028446E-003  0.2476068E+03  0.7818608E-02  0.1114957E+00
         21   -1    0    0  501  502  0.00000000000E+00  0.00000000000E+00  0.16027478726E+04  0.16027478726E+04  0.00000000000E+00 0. -1.
         21   -1    0    0  502  503 -0.00000000000E+00 -0.00000000000E+00 -0.49977162592E+02  0.49977162592E+02  0.00000000000E+00 0. -1.
          6    2    1    2  501    0 -0.16408211231E+03 -0.76832885418E+02  0.11777976978E+04  0.12033767415E+04  0.16757664882E+03 0.  0.
         24    2    3    3    0    0 -0.55244671389E+02 -0.29355609005E+02  0.28156617802E+03  0.29930113220E+03  0.79924524611E+02 0.  0.
         -6    2    1    2    0  503  0.16408211231E+03  0.76832885418E+02  0.37497301220E+03  0.44934829366E+03  0.16876876867E+03 0.  0.
        -24    2    5    5    0    0  0.59805864394E+02  0.96517288854E+02  0.24048367828E+03  0.27797010790E+03  0.80886667024E+02 0.  0.
          5    1    3    3  501    0 -0.10883744092E+03 -0.47477276413E+02  0.89623151980E+03  0.90407560934E+03  0.47000000000E+01 0. -1.
        -11    1    4    4    0    0 -0.30663945637E+02 -0.45081706391E+02  0.25173177676E+03  0.25756848651E+03  0.00000000000E+00 0.  1.
         12    1    4    4    0    0 -0.24580725752E+02  0.15726097386E+02  0.29834401255E+02  0.41732645684E+02  0.00000000000E+00 0. -1.
         -5    1    5    5    0  503  0.10427624791E+03 -0.19684403436E+02  0.13448933391E+03  0.17137818576E+03  0.47000000000E+01 0.  1.
         11    1    6    6    0    0  0.39891908767E+02  0.14616998845E+02  0.14261773703E+03  0.14881142415E+03  0.00000000000E+00 0. -1.
        -12    1    6    6    0    0  0.19913955626E+02  0.81900290009E+02  0.97865941250E+02  0.12915868375E+03  0.00000000000E+00 0.  1.
</event>
<event>
12    1  0.9028446E-003  0.1788095E+03  0.7818608E-02  0.1169081E+00
         21   -1    0    0  503  502  0.00000000000E+00  0.00000000000E+00  0.92842850724E+02  0.92842850724E+02  0.00000000000E+00 0. -1.
         21   -1    0    0  501  503 -0.00000000000E+00 -0.00000000000E+00 -0.35276660797E+03  0.35276660797E+03  0.00000000000E+00 0. -1.
          6    2    1    2  501    0  0.17265694222E+02  0.41570274481E+02 -0.16604056121E+03  0.24365178094E+03  0.17254138771E+03 0.  0.
         24    2    3    3    0    0 -0.16041651289E+02 -0.16180669096E+02 -0.15165605282E+03  0.17528837823E+03  0.84895868897E+02 0.  0.
         -6    2    1    2    0  502 -0.17265694222E+02 -0.41570274481E+02 -0.93883196037E+02  0.20195767775E+03  0.17305102481E+03 0.  0.
        -24    2    5    5    0    0 -0.45516906353E+02 -0.29115297158E+02  0.16559993238E+02  0.87183789150E+02  0.66387426686E+02 0.  0.
          5    1    3    3  501    0  0.33307345511E+02  0.57750943577E+02 -0.14384508384E+02  0.68363402713E+02  0.47000000000E+01 0. -1.
        -13    1    4    4    0    0  0.22402870636E+02 -0.33192582129E+02 -0.10555999967E+03  0.11290061848E+03  0.00000000000E+00 0.  1.
         14    1    4    4    0    0 -0.38444521925E+02  0.17011913033E+02 -0.46096053148E+02  0.62387759752E+02  0.00000000000E+00 0. -1.
         -5    1    5    5    0  502  0.28251212131E+02 -0.12454977323E+02 -0.11044318928E+03  0.11477388860E+03  0.47000000000E+01 0.  1.
         13    1    6    6    0    0 -0.19197293072E+02 -0.41471623298E+02  0.30496453162E+02  0.54940561116E+02  0.00000000000E+00 0. -1.
        -14    1    6    6    0    0 -0.26319613280E+02  0.12356326139E+02 -0.13936459923E+02  0.32243228035E+02  0.00000000000E+00 0.  1.
</event>
<event>
12    1  0.9028446E-003  0.3253261E+03  0.7818608E-02  0.1073356E+00
         21   -1    0    0  501  502  0.00000000000E+00  0.00000000000E+00  0.11903233610E+04  0.11903233610E+04  0.00000000000E+00 0.  1.
         21   -1    0    0  502  503 -0.00000000000E+00 -0.00000000000E+00 -0.99965330655E+02  0.99965330655E+02  0.00000000000E+00 0.  1.
          6    2    1    2  501    0 -0.14639447231E+03 -0.23230639709E+03  0.76188151674E+03  0.82797507381E+03  0.17228370105E+03 0.  0.
         24    2    3    3    0    0 -0.21597294089E+02 -0.31858035187E+02  0.19282726146E+03  0.21185924303E+03  0.78870834774E+02 0.  0.
         -6    2    1    2    0  503  0.14639447231E+03  0.23230639709E+03  0.32847651360E+03  0.46231361784E+03  0.17446907348E+03 0.  0.
        -24    2    5    5    0    0  0.14257836373E+03  0.24506735417E+03  0.33559438206E+03  0.44649720985E+03  0.79684197001E+02 0.  0.
          5    1    3    3  501    0 -0.12479717823E+03 -0.20044836191E+03  0.56905425528E+03  0.61611583078E+03  0.47000000000E+01 0. -1.
        -11    1    4    4    0    0 -0.35130361508E+01 -0.52942920313E+02  0.16148762261E+03  0.16998101803E+03  0.00000000000E+00 0.  1.
         12    1    4    4    0    0 -0.18084257938E+02  0.21084885126E+02  0.31339638845E+02  0.41878224997E+02  0.00000000000E+00 0. -1.
         -5    1    5    5    0  503  0.38161085850E+01 -0.12760957081E+02 -0.71178684566E+01  0.15816407990E+02  0.47000000000E+01 0.  1.
         11    1    6    6    0    0  0.85083548756E+02  0.18927176878E+03  0.28192883245E+03  0.35006696401E+03  0.00000000000E+00 0. -1.
        -12    1    6    6    0    0  0.57494814973E+02  0.55795585392E+02  0.53665549611E+02  0.96430245842E+02  0.00000000000E+00 0.  1.
</event>
<event>
12    1  0.9028446E-003  0.1790135E+03  0.7818608E-02  0.1169504E+00
         21   -1    0    0  501  502  0.00000000000E+00  0.00000000000E+00  0.21568699414E+03  0.21568699414E+03  0.00000000000E+00 0.  1.
         21   -1    0    0  502  503 -0.00000000000E+00 -0.00000000000E+00 -0.15596703067E+03  0.15596703067E+03  0.00000000000E+00 0.  1.
          6    2    1    2  501    0 -0.28477205408E+02 -0.25263436810E+02  0.76410339925E+02  0.19186410213E+03  0.17182578727E+03 0.  0.
         24    2    3    3    0    0  0.53975759871E+01 -0.36107971183E+02  0.11198503055E+03  0.14133932253E+03  0.78123220728E+02 0.  0.
         -6    2    1    2    0  503  0.28477205408E+02  0.25263436810E+02 -0.16690376455E+02  0.17978992268E+03  0.17491899600E+03 0.  0.
        -24    2    5    5    0    0  0.67449230136E+02  0.53876230912E+02  0.19305247638E+02  0.11933096427E+03  0.80094566259E+02 0.  0.
          5    1    3    3  501    0 -0.33874781395E+02  0.10844534373E+02 -0.35574690624E+02  0.50524779597E+02  0.47000000000E+01 0. -1.
        -13    1    4    4    0    0  0.20169914271E+02  0.18860338134E+02  0.24206145620E+02  0.36721591496E+02  0.00000000000E+00 0.  1.
         14    1    4    4    0    0 -0.14772338284E+02 -0.54968309317E+02  0.87778884929E+02  0.10461773104E+03  0.00000000000E+00 0. -1.
         -5    1    5    5    0  503 -0.38972024728E+02 -0.28612794101E+02 -0.35995624093E+02  0.60458958406E+02  0.47000000000E+01 0.  1.
         13    1    6    6    0    0  0.36281018705E+02  0.60041562640E+02  0.40627579177E+02  0.81067266836E+02  0.00000000000E+00 0. -1.
        -14    1    6    6    0    0  0.31168211431E+02 -0.61653317285E+01 -0.21322331539E+02  0.38263697434E+02  0.00000000000E+00 0.  1.
</event>
<event>
12    1  0.9028446E-003  0.1892857E+03  0.7818608E-02  0.1162461E+00
         21   -1    0    0  501  502  0.00000000000E+00  0.00000000000E+00  0.15183168619E+03  0.15183168619E+03  0.00000000000E+00 0.  1.
         21   -1    0    0  502  503 -0.00000000000E+00 -0.00000000000E+00 -0.24055883573E+03  0.24055883573E+03  0.00000000000E+00 0.  1.
          6    2    1    2  501    0  0.59762139437E+02  0.12033525869E+02  0.16430004117E+02  0.17585619519E+03  0.16413146346E+03 0.  0.
         24    2    3    3    0    0  0.44607134271E+02 -0.22980303927E+02  0.64226327152E+02  0.11451924912E+03  0.80447166030E+02 0.  0.
         -6    2    1    2    0  503 -0.59762139437E+02 -0.12033525869E+02 -0.10515715365E+03  0.21653432673E+03  0.17920035890E+03 0.  0.
        -24    2    5    5    0    0 -0.69180656549E+02  0.25772482586E+01  0.19800025980E+01  0.10789435510E+03  0.82732496654E+02 0.  0.
          5    1    3    3  501    0  0.15155005166E+02  0.35013829797E+02 -0.47796323034E+02  0.61336946078E+02  0.47000000000E+01 0. -1.
        -11    1    4    4    0    0  0.67331493805E+02 -0.25101042246E+02  0.46108470502E+02  0.85379057338E+02  0.00000000000E+00 0.  1.
         12    1    4    4    0    0 -0.22724359535E+02  0.21207383185E+01  0.18117856650E+02  0.29140191778E+02  0.00000000000E+00 0. -1.
         -5    1    5    5    0  503  0.94185171128E+01 -0.14610774128E+02 -0.10713715625E+03  0.10863997163E+03  0.47000000000E+01 0.  1.
         11    1    6    6    0    0 -0.13433491843E+02 -0.31141966270E+02  0.21163545494E+02  0.39977198803E+02  0.00000000000E+00 0. -1.
        -12    1    6    6    0    0 -0.55747164707E+02  0.33719214528E+02 -0.19183542896E+02  0.67917156296E+02  0.00000000000E+00 0.  1.
</event>
<event>
12    1  0.9028446E-003  0.1828534E+03  0.7818608E-02  0.1165223E+00
         21   -1    0    0  501  502  0.00000000000E+00  0.00000000000E+00  0.19411754415E+03  0.19411754415E+03  0.00000000000E+00 0.  1.
         21   -1    0    0  502  503 -0.00000000000E+00 -0.00000000000E+00 -0.25467592318E+03  0.25467592318E+03  0.00000000000E+00 0.  1.
          6    2    1    2  501    0 -0.10892999947E+02  0.59535784407E+02  0.97818084803E+02  0.20737343947E+03  0.17254622166E+03 0.  0.
         24    2    3    3    0    0  0.20715924249E+02  0.44006611240E+02 -0.13639196042E+02  0.90390129715E+02  0.74957431458E+02 0.  0.
         -6    2    1    2    0  503  0.10892999947E+02 -0.59535784407E+02 -0.15837646383E+03  0.24142002786E+03  0.17186436072E+03 0.  0.
        -24    2    5    5    0    0 -0.38736970424E+02  0.10556876161E+02 -0.87308396592E+02  0.12984550028E+03  0.87321803206E+02 0.  0.
          5    1    3    3  501    0 -0.31608924196E+02  0.15529173167E+02  0.11145728084E+03  0.11698330976E+03  0.47000000000E+01 0. -1.
        -13    1    4    4    0    0 -0.86678600889E+01  0.14813212904E+02 -0.38450451198E+02  0.42107009777E+02  0.00000000000E+00 0.  1.
         14    1    4    4    0    0  0.29383784338E+02  0.29193398336E+02  0.24811255157E+02  0.48283119937E+02  0.00000000000E+00 0. -1.
         -5    1    5    5    0  503  0.49629970371E+02 -0.70092660568E+02 -0.71068067238E+02  0.11157452758E+03  0.47000000000E+01 0.  1.
         11    1    6    6    0    0 -0.40995272162E+02 -0.11304130473E+02 -0.96934689518E+02  0.10585239599E+03  0.00000000000E+00 0. -1.
        -12    1    6    6    0    0  0.22583017383E+01  0.21861006634E+02  0.96262929258E+01  0.23993104286E+02  0.00000000000E+00 0.  1.
</event>
<event>
12    1  0.9028446E-003  0.1864237E+03  0.7818608E-02  0.1162953E+00
         21   -1    0    0  503  502  0.00000000000E+00  0.00000000000E+00  0.10717073342E+03  0.10717073342E+03  0.00000000000E+00 0. -1.
         21   -1    0    0  501  503 -0.00000000000E+00 -0.00000000000E+00 -0.33123390667E+03  0.33123390667E+03  0.00000000000E+00 0.  1.
          6    2    1    2  501    0 -0.92074269502E+01  0.57926550468E+02 -0.65415639718E+02  0.19756773476E+03  0.17695632777E+03 0.  0.
         24    2    3    3    0    0  0.25563728071E+02 -0.32597519664E+02 -0.31164290995E+02  0.94616846546E+02  0.79151955982E+02 0.  0.
         -6    2    1    2    0  502  0.92074269502E+01 -0.57926550468E+02 -0.15864753353E+03  0.24083690532E+03  0.17144419824E+03 0.  0.
        -24    2    5    5    0    0 -0.60165848470E+02 -0.22585162630E+02 -0.73644871966E+02  0.12547136667E+03  0.78673234285E+02 0.  0.
          5    1    3    3  501    0 -0.34771155022E+02  0.90524070132E+02 -0.34251348722E+02  0.10295088821E+03  0.47000000000E+01 0. -1.
        -11    1    4    4    0    0  0.30846869358E+02  0.54503408005E+01 -0.44092425808E+02  0.54086759727E+02  0.00000000000E+00 0.  1.
         12    1    4    4    0    0 -0.52831412870E+01 -0.38047860465E+02  0.12928134813E+02  0.40530086819E+02  0.00000000000E+00 0. -1.
         -5    1    5    5    0  502  0.69373275420E+02 -0.35341387838E+02 -0.85002661564E+02  0.11536553866E+03  0.47000000000E+01 0.  1.
         13    1    6    6    0    0 -0.19872536576E+02 -0.15140858802E+02  0.14059272335E+02  0.28667515654E+02  0.00000000000E+00 0. -1.
        -14    1    6    6    0    0 -0.40293311894E+02 -0.74443038280E+01 -0.87704144301E+02  0.96803851011E+02  0.00000000000E+00 0.  1.
</event>
<event>
12    1  0.9028446E-003  0.2762524E+03  0.7818608E-02  0.1097763E+00
         21   -1    0    0  503  502  0.00000000000E+00  0.00000000000E+00  0.13361347402E+03  0.13361347402E+03  0.00000000000E+00 0.  1.
         21   -1    0    0  501  503 -0.00000000000E+00 -0.00000000000E+00 -0.57116350161E+03  0.57116350161E+03  0.00000000000E+00 0.  1.
          6    2    1    2  501    0 -0.19147215971E+03  0.10054394032E+03 -0.22424732720E+03  0.35575917391E+03  0.17177617467E+03 0.  0.
         24    2    3    3    0    0 -0.12868453382E+03  0.12941882850E+03 -0.11899419429E+03  0.22975775678E+03  0.72938783307E+02 0.  0.
         -6    2    1    2    0  502  0.19147215971E+03 -0.10054394032E+03 -0.21330270039E+03  0.34901780172E+03  0.17188575288E+03 0.  0.
        -24    2    5    5    0    0  0.15162615656E+03 -0.37029801813E+01 -0.12322102613E+03  0.21080537982E+03  0.79065058447E+02 0.  0.
          5    1    3    3  501    0 -0.62787625886E+02 -0.28874888176E+02 -0.10525313291E+03  0.12600141713E+03  0.47000000000E+01 0. -1.
        -11    1    4    4    0    0 -0.85647305270E+02  0.44669059231E+02 -0.85432489893E+02  0.12895540346E+03  0.00000000000E+00 0.  1.
         12    1    4    4    0    0 -0.43037228550E+02  0.84749769266E+02 -0.33561704399E+02  0.10080235332E+03  0.00000000000E+00 0. -1.
         -5    1    5    5    0  502  0.39846003150E+02 -0.96840960141E+02 -0.90081674261E+02  0.13821242189E+03  0.47000000000E+01 0.  1.
         13    1    6    6    0    0  0.11807665841E+03 -0.29371377064E+02 -0.11569210234E+03  0.16789710419E+03  0.00000000000E+00 0. -1.
        -14    1    6    6    0    0  0.33549498148E+02  0.25668396883E+02 -0.75289237942E+01  0.42908275635E+02  0.00000000000E+00 0.  1.
</event>
<event>
12    1  0.9028446E-003  0.1879387E+03  0.7818608E-02  0.1160600E+00
         21   -1    0    0  503  502  0.00000000000E+00  0.00000000000E+00  0.14727487890E+03  0.14727487890E+03  0.00000000000E+00 0.  1.
         21   -1    0    0  501  503 -0.00000000000E+00 -0.00000000000E+00 -0.24806934611E+03  0.24806934611E+03  0.00000000000E+00 0.  1.
          6    2    1    2  501    0 -0.48394275979E+02 -0.55590080317E+02 -0.89374597854E+02  0.20705887225E+03  0.17161962259E+03 0.  0.
         24    2    3    3    0    0 -0.18624212138E+02 -0.27475709399E+02 -0.12613740743E+03  0.15182963433E+03  0.77716255849E+02 0.  0.
         -6    2    1    2    0  502  0.48394275979E+02  0.55590080317E+02 -0.11419869353E+02  0.18828535276E+03  0.17288348004E+03 0.  0.
        -24    2    5    5    0    0  0.11932450177E+02  0.70020515228E+02 -0.62500695877E+02  0.12371722571E+03  0.79714233559E+02 0.  0.
          5    1    3    3  501    0 -0.29770063841E+02 -0.28114370918E+02  0.36762809574E+02  0.55229237918E+02  0.47000000000E+01 0. -1.
        -13    1    4    4    0    0 -0.26879753550E+02 -0.47590243550E+00 -0.11995010444E+03  0.12292589308E+03  0.00000000000E+00 0.  1.
         14    1    4    4    0    0  0.82555414114E+01 -0.26999806964E+02 -0.61873029887E+01  0.28903741252E+02  0.00000000000E+00 0. -1.
         -5    1    5    5    0  502  0.36461825802E+02 -0.14430434911E+02  0.51080826525E+02  0.64568127052E+02  0.47000000000E+01 0.  1.
         13    1    6    6    0    0  0.28782219660E+02 -0.55756935859E+01 -0.17013357990E+02  0.33896295928E+02  0.00000000000E+00 0. -1.
        -14    1    6    6    0    0 -0.16849769483E+02  0.75596208814E+02 -0.45487337888E+02  0.89820929781E+02  0.00000000000E+00 0.  1.
</event>
<event>
12    1  0.9028446E-003  0.1948580E+03  0.7818608E-02  0.1154316E+00
         21   -1    0    0  503  502  0.00000000000E+00  0.00000000000E+00  0.90021321741E+02  0.90021321741E+02  0.00000000000E+00 0.  1.
         21   -1    0    0  501  503 -0.00000000000E+00 -0.00000000000E+00 -0.45386466473E+03  0.45386466473E+03  0.00000000000E+00 0.  1.
          6    2    1    2  501    0 -0.79321100313E+02  0.44142902997E+02 -0.10813922187E+03  0.22285358983E+03  0.17242157160E+03 0.  0.
         24    2    3    3    0    0 -0.28054685434E+02  0.66536640488E+02 -0.12387939388E+03  0.16454777718E+03  0.80719742587E+02 0.  0.
         -6    2    1    2    0  502  0.79321100313E+02 -0.44142902997E+02 -0.25570412112E+03  0.32103239665E+03  0.17157146995E+03 0.  0.
        -24    2    5    5    0    0  0.68228955261E+01  0.22315419195E+02 -0.69365171390E+02  0.11027900409E+03  0.82494859869E+02 0.  0.
          5    1    3    3  501    0 -0.51266414878E+02 -0.22393737491E+02  0.15740172013E+02  0.58305812646E+02  0.47000000000E+01 0. -1.
        -11    1    4    4    0    0 -0.58309183134E+01  0.23952891387E+02  0.65892263204E+01  0.25517807854E+02  0.00000000000E+00 0.  1.
         12    1    4    4    0    0 -0.22223767121E+02  0.42583749102E+02 -0.13046862020E+03  0.13902996933E+03  0.00000000000E+00 0. -1.
         -5    1    5    5    0  502  0.72498204787E+02 -0.66458322193E+02 -0.18633894973E+03  0.21075339255E+03  0.47000000000E+01 0.  1.
         11    1    6    6    0    0  0.38551284357E+02  0.40449237843E+01 -0.91847006562E+01  0.39836185311E+02  0.00000000000E+00 0. -1.
        -12    1    6    6    0    0 -0.31728388831E+02  0.18270495411E+02 -0.60180470734E+02  0.70442818783E+02  0.00000000000E+00 0.  1.
</event>
<event>
12    1  0.9028446E-003  0.1795006E+03  0.7818608E-02  0.1168305E+00
         21   -1    0    0  503  502  0.00000000000E+00  0.00000000000E+00  0.24935762514E+03  0.24935762514E+03  0.00000000000E+00 0. -1.
         21   -1    0    0  501  503 -0.00000000000E+00 -0.00000000000E+00 -0.13931665628E+03  0.13931665628E+03  0.00000000000E+00 0. -1.
          6    2    1    2  501    0 -0.13426277493E+02 -0.49541697703E+02  0.25379016020E+01  0.17944382739E+03  0.17192731459E+03 0.  0.
         24    2    3    3    0    0 -0.26483863013E+02 -0.39111998040E+02  0.64467222263E+02  0.11512734480E+03  0.82868204901E+02 0.  0.
         -6    2    1    2    0  502  0.13426277493E+02  0.49541697703E+02  0.10750306725E+03  0.20923045403E+03  0.17200531587E+03 0.  0.
        -24    2    5    5    0    0 -0.48922486028E+02  0.27077717261E+02  0.10422121677E+03  0.14271083833E+03  0.79860559367E+02 0.  0.
          5    1    3    3  501    0  0.13057585520E+02 -0.10429699663E+02 -0.61929320661E+02  0.64316482586E+02  0.47000000000E+01 0. -1.
        -13    1    4    4    0    0 -0.15194904976E+02  0.12273181153E+02  0.59099496953E+02  0.62243607326E+02  0.00000000000E+00 0.  1.
         14    1    4    4    0    0 -0.11288958037E+02 -0.51385179193E+02  0.53677253100E+01  0.52883737474E+02  0.00000000000E+00 0. -1.
         -5    1    5    5    0  502  0.62348763521E+02  0.22463980442E+02  0.32818504865E+01  0.66519615697E+02  0.47000000000E+01 0.  1.
         13    1    6    6    0    0 -0.17200193223E+02  0.27808311100E+02  0.10600171929E+03  0.11093021818E+03  0.00000000000E+00 0. -1.
        -14    1    6    6    0    0 -0.31722292805E+02 -0.73059383962E+00 -0.17805025222E+01  0.31780620154E+02  0.00000000000E+00 0.  1.
</event>
<event>
12    1  0.9028446E-003  0.1881807E+03  0.7818608E-02  0.1160196E+00
         21   -1    0    0  501  502  0.00000000000E+00  0.00000000000E+00  0.23167468502E+03  0.23167468502E+03  0.00000000000E+00 0. -1.
         21   -1    0    0  502  503 -0.00000000000E+00 -0.00000000000E+00 -0.15872629323E+03  0.15872629323E+03  0.00000000000E+00 0. -1.
          6    2    1    2  501    0 -0.40715093313E+02  0.64117433734E+02  0.74992832861E+02  0.20257323358E+03  0.17217208209E+03 0.  0.
         24    2    3    3    0    0 -0.88731045814E+02  0.54529014496E+02  0.26991303099E+02  0.13384400881E+03  0.79618316608E+02 0.  0.
         -6    2    1    2    0  503  0.40715093313E+02 -0.64117433734E+02 -0.20444410724E+01  0.18782774467E+03  0.17177403121E+03 0.  0.
        -24    2    5    5    0    0  0.69151535297E+01  0.21672368875E+02  0.41697824512E+02  0.85662183158E+02  0.71286675708E+02 0.  0.
          5    1    3    3  501    0  0.48015952500E+02  0.95884192378E+01  0.48001529762E+02  0.68729224770E+02  0.47000000000E+01 0. -1.
        -13    1    4    4    0    0 -0.42502357651E+01 -0.16185534172E+02  0.15956121986E+02  0.23122150621E+02  0.00000000000E+00 0.  1.
         14    1    4    4    0    0 -0.84480810049E+02  0.70714548668E+02  0.11035181113E+02  0.11072185819E+03  0.00000000000E+00 0. -1.
         -5    1    5    5    0  503  0.33799939784E+02 -0.85789802609E+02 -0.43742265584E+02  0.10216556151E+03  0.47000000000E+01 0.  1.
         11    1    6    6    0    0  0.21178330458E+02  0.57585300011E+01 -0.13981667989E+02  0.26022478523E+02  0.00000000000E+00 0. -1.
        -12    1    6    6    0    0 -0.14263176928E+02  0.15913838874E+02  0.55679492501E+02  0.59639704635E+02  0.00000000000E+00 0.  1.
</event>
<event>
12    1  0.9028446E-003  0.5058644E+03  0.7818608E-02  0.1012261E+00
         21   -1    0    0  501  502  0.00000000000E+00  0.00000000000E+00  0.16463935977E+03  0.16463935977E+03  0.00000000000E+00 0.  1.
         21   -1    0    0  502  503 -0.00000000000E+00 -0.00000000000E+00 -0.15549783957E+04  0.15549783957E+04  0.00000000000E+00 0. -1.
          6    2    1    2  501    0 -0.22796652036E+03  0.41715756405E+03 -0.67599331274E+03  0.84431380416E+03  0.17294413370E+03 0.  0.
         24    2    3    3    0    0 -0.11097117582E+03  0.12189329272E+03 -0.19195062781E+03  0.26535930560E+03  0.79987129474E+02 0.  0.
         -6    2    1    2    0  503  0.22796652036E+03 -0.41715756405E+03 -0.71434572322E+03  0.87530395134E+03  0.17285261728E+03 0.  0.
        -24    2    5    5    0    0  0.23160947583E+03 -0.37791554447E+03 -0.70123507287E+03  0.83350459276E+03  0.80846587298E+02 0.  0.
          5    1    3    3  501    0 -0.11699534454E+03  0.29526427133E+03 -0.48404268493E+03  0.57895449856E+03  0.47000000000E+01 0. -1.
        -13    1    4    4    0    0 -0.11703403630E+03  0.10946520914E+03 -0.19372935520E+03  0.25141730397E+03  0.00000000000E+00 0.  1.
         14    1    4    4    0    0  0.60628604850E+01  0.12428083572E+02  0.17787273908E+01  0.13942001638E+02  0.00000000000E+00 0. -1.
         -5    1    5    5    0  503 -0.36429554738E+01 -0.39242019580E+02 -0.13110650349E+02  0.41799358582E+02  0.47000000000E+01 0.  1.
         11    1    6    6    0    0  0.25169466597E+02 -0.63543719364E+02 -0.16435066184E+03  0.17799563581E+03  0.00000000000E+00 0. -1.
        -12    1    6    6    0    0  0.20644000924E+03 -0.31437182511E+03 -0.53688441102E+03  0.65550895694E+03  0.00000000000E+00 0.  1.
</event>
<event>
12    1  0.9028446E-003  0.4500477E+03  0.7818608E-02  0.1027728E+00
         21   -1    0    0  503  502  0.00000000000E+00  0.00000000000E+00  0.12822920408E+03  0.12822920408E+03  0.00000000000E+00 0. -1.
         21   -1    0    0  501  503 -0.00000000000E+00 -0.00000000000E+00 -0.15871821785E+04  0.15871821785E+04  0.00000000000E+00 0. -1.
          6    2    1    2  501    0  0.25013304680E+03  0.33226000543E+03 -0.79282021950E+03  0.91165061420E+03  0.17198746934E+03 0.  0.
         24    2    3    3    0    0  0.20008392903E+03  0.25751492648E+03 -0.72465874931E+03  0.79869125410E+03  0.80186659758E+02 0.  0.
         -6    2    1    2    0  502 -0.25013304680E+03 -0.33226000543E+03 -0.66613275495E+03  0.80376076841E+03  0.17127543113E+03 0.  0.
        -24    2    5    5    0    0 -0.13566766360E+03 -0.12210165229E+03 -0.39256985243E+03  0.44026715226E+03  0.80059652050E+02 0.  0.
          5    1    3    3  501    0  0.50049117765E+02  0.74745078945E+02 -0.68161470193E+02  0.11295936010E+03  0.47000000000E+01 0. -1.
        -11    1    4    4    0    0  0.12437271744E+03  0.18682596740E+03 -0.56955052759E+03  0.61217670522E+03  0.00000000000E+00 0.  1.
         12    1    4    4    0    0  0.75711211598E+02  0.70688959084E+02 -0.15510822172E+03  0.18651454888E+03  0.00000000000E+00 0. -1.
         -5    1    5    5    0  502 -0.11446538320E+03 -0.21015835314E+03 -0.27356290253E+03  0.36349361615E+03  0.47000000000E+01 0.  1.
         11    1    6    6    0    0 -0.27584166441E+02 -0.67865502728E+02 -0.10239045017E+03  0.12589843917E+03  0.00000000000E+00 0. -1.
        -12    1    6    6    0    0 -0.10808349716E+03 -0.54236149558E+02 -0.29017940225E+03  0.31436871309E+03  0.00000000000E+00 0.  1.
</event>
<event>
12    1  0.9028446E-003  0.2376016E+03  0.7818608E-02  0.1121519E+00
         21   -1    0    0  501  502  0.00000000000E+00  0.00000000000E+00  0.19131262005E+03  0.19131262005E+03  0.00000000000E+00 0.  1.
         21   -1    0    0  502  503 -0.00000000000E+00 -0.00000000000E+00 -0.29472570533E+03  0.29472570533E+03  0.00000000000E+00 0. -1.
          6    2    1    2  501    0 -0.15209381030E+03 -0.63027994824E+02 -0.61650331319E+02  0.24479437791E+03  0.17034808142E+03 0.  0.
         24    2    3    3    0    0 -0.17361950133E+03 -0.80174995304E+02 -0.65192894889E+02  0.21665162118E+03  0.78205180801E+02 0.  0.
         -6    2    1    2    0  503  0.15209381030E+03  0.63027994824E+02 -0.41762753959E+02  0.24124394746E+03  0.17131683895E+03 0.  0.
        -24    2    5    5    0    0  0.48006312115E+02 -0.25534784029E+02 -0.30940992957E+02  0.10406970211E+03  0.83165657903E+02 0.  0.
          5    1    3    3  501    0  0.21525691029E+02  0.17147000480E+02  0.35425635692E+01  0.28142756730E+02  0.47000000000E+01 0. -1.
        -13    1    4    4    0    0 -0.85437700323E+02  0.20127328447E+01 -0.18914919821E+02  0.87529571699E+02  0.00000000000E+00 0.  1.
         14    1    4    4    0    0 -0.88181801006E+02 -0.82187728149E+02 -0.46277975067E+02  0.12912204949E+03  0.00000000000E+00 0. -1.
         -5    1    5    5    0  503  0.10408749818E+03  0.88562778853E+02 -0.10821761001E+02  0.13717424535E+03  0.47000000000E+01 0.  1.
         13    1    6    6    0    0  0.14563533844E+02  0.23519583713E+02 -0.34940244434E+02  0.44565547423E+02  0.00000000000E+00 0. -1.
        -14    1    6    6    0    0  0.33442778271E+02 -0.49054367741E+02  0.39992514765E+01  0.59504154690E+02  0.00000000000E+00 0.  1.
</event>
<event>
12    1  0.9028446E-003  0.1847591E+03  0.7818608E-02  0.1163502E+00
         21   -1    0    0  503  502  0.00000000000E+00  0.00000000000E+00  0.20664989223E+03  0.20664989223E+03  0.00000000000E+00 0.  1.
         21   -1    0    0  501  503 -0.00000000000E+00 -0.00000000000E+00 -0.16546364671E+03  0.16546364671E+03  0.00000000000E+00 0.  1.
          6    2    1    2  501    0  0.50254961612E+02 -0.41553854471E+02  0.50945226782E+01  0.18386226187E+03  0.17183449360E+03 0.  0.
         24    2    3    3    0    0  0.83645318612E+02 -0.13707990335E+02  0.45258645699E+02  0.12448587878E+03  0.79145061006E+02 0.  0.
         -6    2    1    2    0  502 -0.50254961612E+02  0.41553854471E+02  0.36091722843E+02  0.18825127708E+03  0.17286887191E+03 0.  0.
        -24    2    5    5    0    0  0.98114015099E+01  0.32378999001E+02 -0.36469001800E+02  0.93492136559E+02  0.79158880299E+02 0.  0.
          5    1    3    3  501    0 -0.33390357000E+02 -0.27845864135E+02 -0.40164123021E+02  0.59376383083E+02  0.47000000000E+01 0. -1.
        -11    1    4    4    0    0  0.25609920914E+02 -0.41694779738E+02  0.66736574461E+01  0.49384819635E+02  0.00000000000E+00 0.  1.
         12    1    4    4    0    0  0.58035397697E+02  0.27986789403E+02  0.38584988253E+02  0.75101059150E+02  0.00000000000E+00 0. -1.
         -5    1    5    5    0  502 -0.60066363122E+02  0.91748554694E+01  0.72560724643E+02  0.94759140521E+02  0.47000000000E+01 0.  1.
         13    1    6    6    0    0 -0.32061355012E+01 -0.26015750425E+02 -0.97223292652E+01  0.27957508140E+02  0.00000000000E+00 0. -1.
        -14    1    6    6    0    0  0.13017537011E+02  0.58394749426E+02 -0.26746672535E+02  0.65534628420E+02  0.00000000000E+00 0.  1.
</event>
<event>
12    1  0.9028446E-003  0.1888509E+03  0.7818608E-02  0.1159735E+00
         21   -1    0    0  503  502  0.00000000000E+00  0.00000000000E+00  0.11848635277E+03  0.11848635277E+03  0.00000000000E+00 0. -1.
         21   -1    0    0  501  503 -0.00000000000E+00 -0.00000000000E+00 -0.45153555277E+03  0.45153555277E+03  0.00000000000E+00 0. -1.
          6    2    1    2  501    0  0.71672825224E+02 -0.28676265589E+02 -0.33227628638E+03  0.38219390749E+03  0.17235234362E+03 0.  0.
         24    2    3    3    0    0  0.64562528692E+02  0.20606168215E+02 -0.99496541125E+02  0.14410187823E+03  0.79201359416E+02 0.  0.
         -6    2    1    2    0  502 -0.71672825224E+02  0.28676265589E+02 -0.77291361995E+00  0.18782799805E+03  0.17122919545E+03 0.  0.
        -24    2    5    5    0    0 -0.26414482614E+02 -0.40173648611E+02  0.32632683724E+02  0.98796249810E+02  0.79900938636E+02 0.  0.
          5    1    3    3  501    0  0.71102965319E+01 -0.49282433804E+02 -0.23277974526E+03  0.23809202927E+03  0.47000000000E+01 0. -1.
        -13    1    4    4    0    0  0.34072218341E+02  0.46981754194E+02 -0.81252154930E+02  0.99850458040E+02  0.00000000000E+00 0.  1.
         14    1    4    4    0    0  0.30490310351E+02 -0.26375585979E+02 -0.18244386194E+02  0.44251420188E+02  0.00000000000E+00 0. -1.
         -5    1    5    5    0  502 -0.45258342610E+02  0.68849914200E+02 -0.33405597344E+02  0.89031748242E+02  0.47000000000E+01 0.  1.
         11    1    6    6    0    0 -0.32611503668E+02 -0.30328700285E+00 -0.15399242456E+02  0.36065756927E+02  0.00000000000E+00 0. -1.
        -12    1    6    6    0    0  0.61970210540E+01 -0.39870361608E+02  0.48031926180E+02  0.62730492883E+02  0.00000000000E+00 0.  1.
</event>
<event>
12    1  0.9028446E-003  0.1770928E+03  0.7818608E-02  0.1170845E+00
         21   -1    0    0  503  502  0.00000000000E+00  0.00000000000E+00  0.94463488084E+02  0.94463488084E+02  0.00000000000E+00 0.  1.
         21   -1    0    0  501  503 -0.00000000000E+00 -0.00000000000E+00 -0.33220733400E+03  0.33220733400E+03  0.00000000000E+00 0.  1.
          6    2    1    2  501    0  0.11498547045E+01  0.38594793679E+02 -0.13443970918E+03  0.22234183533E+03  0.17283221941E+03 0.  0.
         24    2    3    3    0    0 -0.62646717414E+02  0.16843257920E+02 -0.11710864285E+03  0.15258806997E+03  0.73214604595E+02 0.  0.
         -6    2    1    2    0  502 -0.11498547045E+01 -0.38594793679E+02 -0.10330413673E+03  0.20432898675E+03  0.17201078425E+03 0.  0.
        -24    2    5    5    0    0  0.20893214362E+02  0.36922639402E+02 -0.83352910303E+02  0.12303371611E+03  0.79936099084E+02 0.  0.
          5    1    3    3  501    0  0.63796572119E+02  0.21751535759E+02 -0.17331066335E+02  0.69753765363E+02  0.47000000000E+01 0. -1.
        -11    1    4    4    0    0 -0.13709409632E+02 -0.13282499396E+01 -0.94839414525E+02  0.95834371224E+02  0.00000000000E+00 0.  1.
         12    1    4    4    0    0 -0.48937307782E+02  0.18171507860E+02 -0.22269228325E+02  0.56753698743E+02  0.00000000000E+00 0. -1.
         -5    1    5    5    0  502 -0.22043069067E+02 -0.75517433082E+02 -0.19951226426E+02  0.81295270644E+02  0.47000000000E+01 0.  1.
         13    1    6    6    0    0  0.17599786677E+02 -0.95680698199E+01 -0.72449617258E+02  0.75168128166E+02  0.00000000000E+00 0. -1.
        -14    1    6    6    0    0  0.32934276857E+01  0.46490709222E+02 -0.10903293045E+02  0.47865587943E+02  0.00000000000E+00 0.  1.
</event>
<event>
12    1  0.9028446E-003  0.2078785E+03  0.7818608E-02  0.1143312E+00
         21   -1    0    0  501  502  0.00000000000E+00  0.00000000000E+00  0.75776077894E+03  0.75776077894E+03  0.00000000000E+00 0.  1.
         21   -1    0    0  502  503 -0.00000000000E+00 -0.00000000000E+00 -0.62358066796E+02  0.62358066796E+02  0.00000000000E+00 0. -1.
          6    2    1    2  501    0  0.24568915387E+02 -0.11473396094E+03  0.46822028955E+03  0.51218166190E+03  0.17126675638E+03 0.  0.
         24    2    3    3    0    0  0.84098662401E+02 -0.84415425555E+02  0.31011308365E+03  0.34047556729E+03  0.74531457668E+02 0.  0.
         -6    2    1    2    0  503 -0.24568915387E+02  0.11473396094E+03  0.22718242260E+03  0.30793718384E+03  0.17159820121E+03 0.  0.
        -24    2    5    5    0    0 -0.74418118956E+02  0.70675810315E+02  0.19237270372E+03  0.23270507460E+03  0.81309704297E+02 0.  0.
          5    1    3    3  501    0 -0.59529747014E+02 -0.30318535387E+02  0.15810720590E+03  0.17170609461E+03  0.47000000000E+01 0. -1.
        -13    1    4    4    0    0  0.64539166049E+02 -0.92108839728E+02  0.21042592678E+03  0.23859675809E+03  0.00000000000E+00 0.  1.
         14    1    4    4    0    0  0.19559496352E+02  0.76934141731E+01  0.99687156873E+02  0.10187880920E+03  0.00000000000E+00 0. -1.
         -5    1    5    5    0  503  0.49849203569E+02  0.44058150627E+02  0.34809718874E+02  0.75232109244E+02  0.47000000000E+01 0.  1.
         11    1    6    6    0    0 -0.28200924194E+02  0.17979977015E+02  0.65202155836E+01  0.34074696038E+02  0.00000000000E+00 0. -1.
        -12    1    6    6    0    0 -0.46217194762E+02  0.52695833300E+02  0.18585248814E+03  0.19863037856E+03  0.00000000000E+00 0.  1.
</event>
<event>
12    1  0.9028446E-003  0.2017732E+03  0.7818608E-02  0.1148443E+00
         21   -1    0    0  503  502  0.00000000000E+00  0.00000000000E+00  0.51660738002E+03  0.51660738002E+03  0.00000000000E+00 0.  1.
         21   -1    0    0  501  503 -0.00000000000E+00 -0.00000000000E+00 -0.90015541849E+02  0.90015541849E+02  0.00000000000E+00 0.  1.
          6    2    1    2  501    0 -0.94395421807E+02  0.37715314159E+02  0.32159490089E+03  0.37916568288E+03  0.17323508367E+03 0.  0.
         24    2    3    3    0    0 -0.12332491458E+03 -0.91020453648E+01  0.22799224598E+03  0.27048114989E+03  0.76731391441E+02 0.  0.
         -6    2    1    2    0  502  0.94395421807E+02 -0.37715314159E+02  0.10499693728E+03  0.22745723899E+03  0.17429715474E+03 0.  0.
        -24    2    5    5    0    0  0.24389806159E+02 -0.69362604902E+02  0.10456446641E+03  0.15048572306E+03  0.79411533207E+02 0.  0.
          5    1    3    3  501    0  0.28929492772E+02  0.46817359524E+02  0.93602654912E+02  0.10868453299E+03  0.47000000000E+01 0. -1.
        -11    1    4    4    0    0 -0.31244484219E+02 -0.29785004907E+02  0.11745717966E+03  0.12513813713E+03  0.00000000000E+00 0.  1.
         12    1    4    4    0    0 -0.92080430360E+02  0.20682959542E+02  0.11053506632E+03  0.14534301276E+03  0.00000000000E+00 0. -1.
         -5    1    5    5    0  502  0.70005615648E+02  0.31647290743E+02  0.43247087196E+00  0.76971515931E+02  0.47000000000E+01 0.  1.
         13    1    6    6    0    0 -0.15422065394E+02 -0.62000725477E+02  0.43775545651E+02  0.77448230824E+02  0.00000000000E+00 0. -1.
        -14    1    6    6    0    0  0.39811871552E+02 -0.73618794245E+01  0.60788920761E+02  0.73037492238E+02  0.00000000000E+00 0.  1.
</event>
<event>
12    1  0.9028446E-003  0.2511685E+03  0.7818608E-02  0.1112597E+00
         21   -1    0    0  501  502  0.00000000000E+00  0.00000000000E+00  0.16919187378E+03  0.16919187378E+03  0.00000000000E+00 0. -1.
         21   -1    0    0  502  503 -0.00000000000E+00 -0.00000000000E+00 -0.57987557173E+03  0.57987557173E+03  0.00000000000E+00 0. -1.
          6    2    1    2  501    0 -0.18344624078E+03 -0.37854757136E+01  0.18534976616E+02  0.25185142932E+03  0.17151893192E+03 0.  0.
         24    2    3    3    0    0 -0.15358078575E+03  0.14146273954E+02 -0.44796883770E+02  0.17941864951E+03  0.79981974088E+02 0.  0.
         -6    2    1    2    0  503  0.18344624078E+03  0.37854757136E+01 -0.42921867457E+03  0.49721601620E+03  0.17125490673E+03 0.  0.
        -24    2    5    5    0    0  0.14863990353E+03 -0.19235593481E+02 -0.19407454898E+03  0.25835140907E+03  0.81343045349E+02 0.  0.
          5    1    3    3  501    0 -0.29865455032E+02 -0.17931749668E+02  0.63331860386E+02  0.72432779806E+02  0.47000000000E+01 0. -1.
        -11    1    4    4    0    0 -0.12284378740E+02  0.11748071075E+02 -0.33605185986E+02  0.37659416620E+02  0.00000000000E+00 0.  1.
         12    1    4    4    0    0 -0.14129640701E+03  0.23982028789E+01 -0.11191697784E+02  0.14175923289E+03  0.00000000000E+00 0. -1.
         -5    1    5    5    0  503  0.34806337252E+02  0.23021069195E+02 -0.23514412559E+03  0.23886460713E+03  0.47000000000E+01 0.  1.
         13    1    6    6    0    0  0.67163418570E+02 -0.16403858642E+02 -0.15115942299E+03  0.16622028315E+03  0.00000000000E+00 0. -1.
        -14    1    6    6    0    0  0.81476484959E+02 -0.28317348397E+01 -0.42915125992E+02  0.92131125915E+02  0.00000000000E+00 0.  1.
</event>
<event>
12    1  0.9028446E-003  0.3983143E+03  0.7818608E-02  0.1044472E+00
         21   -1    0    0  503  502  0.00000000000E+00  0.00000000000E+00  0.16566679157E+03  0.16566679157E+03  0.00000000000E+00 0. -1.
         21   -1    0    0  501  503 -0.00000000000E+00 -0.00000000000E+00 -0.10396547405E+04  0.10396547405E+04  0.00000000000E+00 0.  1.
          6    2    1    2  501    0  0.31578093350E+03 -0.16903406245E+03 -0.60987492427E+03  0.72842411533E+03  0.17425313858E+03 0.  0.
         24    2    3    3    0    0  0.29080107088E+03 -0.19466010211E+03 -0.52546011903E+03  0.63661650786E+03  0.81941584163E+02 0.  0.
         -6    2    1    2    0  502 -0.31578093350E+03  0.16903406245E+03 -0.26411302463E+03  0.47689741670E+03  0.17142153904E+03 0.  0.
        -24    2    5    5    0    0 -0.65780535037E+02  0.23751399399E+02 -0.86512596706E+02  0.13752851209E+03  0.80860710405E+02 0.  0.
          5    1    3    3  501    0  0.24979862627E+02  0.25626039654E+02 -0.84414805244E+02  0.91807607471E+02  0.47000000000E+01 0. -1.
        -11    1    4    4    0    0  0.18936290575E+03 -0.10240528931E+03 -0.25768800215E+03  0.33578007654E+03  0.00000000000E+00 0.  1.
         12    1    4    4    0    0  0.10143816513E+03 -0.92254812803E+02 -0.26777211688E+03  0.30083643132E+03  0.00000000000E+00 0. -1.
         -5    1    5    5    0  502 -0.25000039846E+03  0.14528266306E+03 -0.17760042792E+03  0.33936890461E+03  0.47000000000E+01 0.  1.
         13    1    6    6    0    0 -0.76026605824E+02  0.32921423581E+02 -0.46034966465E+02  0.94779127772E+02  0.00000000000E+00 0. -1.
        -14    1    6    6    0    0  0.10246070787E+02 -0.91700241825E+01 -0.40477630241E+02  0.42749384323E+02  0.00000000000E+00 0.  1.
</event>
<event>
12    1  0.9028446E-003  0.1985115E+03  0.7818608E-02  0.1151054E+00
         21   -1    0    0  501  502  0.00000000000E+00  0.00000000000E+00  0.27743183832E+03  0.27743183832E+03  0.00000000000E+00 0.  1.
         21   -1    0    0  502  503 -0.00000000000E+00 -0.00000000000E+00 -0.15643498910E+03  0.15643498910E+03  0.00000000000E+00 0.  1.
          6    2    1    2  501    0  0.33758741743E+01 -0.98474139458E+02  0.12674124677E+03  0.23552105499E+03  0.17233186311E+03 0.  0.
         24    2    3    3    0    0 -0.17304627717E+02 -0.90718160852E+02  0.16535103591E+02  0.12302517792E+03  0.79577320282E+02 0.  0.
         -6    2    1    2    0  503 -0.33758741743E+01  0.98474139458E+02 -0.57443975530E+01  0.19834577243E+03  0.17204503675E+03 0.  0.
        -24    2    5    5    0    0  0.21813327764E+02  0.10339248954E+03 -0.54190506069E+02  0.14332031021E+03  0.80238844778E+02 0.  0.
          5    1    3    3  501    0  0.20680501891E+02 -0.77559786059E+01  0.11020614318E+03  0.11249587707E+03  0.47000000000E+01 0. -1.
        -11    1    4    4    0    0 -0.35503768800E+02 -0.49528145470E+02 -0.20943942420E+02  0.64437593971E+02  0.00000000000E+00 0.  1.
         12    1    4    4    0    0  0.18199141083E+02 -0.41190015383E+02  0.37479046011E+02  0.58587583952E+02  0.00000000000E+00 0. -1.
         -5    1    5    5    0  503 -0.25189201938E+02 -0.49183500789E+01  0.48446108516E+02  0.55025462216E+02  0.47000000000E+01 0.  1.
         13    1    6    6    0    0 -0.24433734201E+02  0.75528088312E+01 -0.48785722994E+01  0.26035605542E+02  0.00000000000E+00 0. -1.
        -14    1    6    6    0    0  0.46247061965E+02  0.95839680706E+02 -0.49311933769E+02  0.11728470467E+03  0.00000000000E+00 0.  1.
</event>
<event>
12    1  0.9028446E-003  0.2878266E+03  0.7818608E-02  0.1091708E+00
         21   -1    0    0  503  502  0.00000000000E+00  0.00000000000E+00  0.36245745545E+03  0.36245745545E+03  0.00000000000E+00 0. -1.
         21   -1    0    0  501  503 -0.00000000000E+00 -0.00000000000E+00 -0.28961914893E+03  0.28961914893E+03  0.00000000000E+00 0. -1.
          6    2    1    2  501    0 -0.18643794200E+03  0.13034695312E+03  0.18780307679E+03  0.34367739697E+03  0.17633695906E+03 0.  0.
         24    2    3    3    0    0 -0.44820626662E+02  0.83250152145E+02  0.13701164522E+03  0.18595792390E+03  0.82877512790E+02 0.  0.
         -6    2    1    2    0  502  0.18643794200E+03 -0.13034695312E+03 -0.11496477028E+03  0.30839920741E+03  0.17361952173E+03 0.  0.
        -24    2    5    5    0    0  0.44561593152E+02 -0.10247659789E+03 -0.23041949021E+02  0.13700040307E+03  0.75835284189E+02 0.  0.
          5    1    3    3  501    0 -0.14161731533E+03  0.47096800978E+02  0.50791431569E+02  0.15771947307E+03  0.47000000000E+01 0. -1.
        -13    1    4    4    0    0  0.19884208061E+02  0.47620670987E+02  0.50528448610E+02  0.72223501399E+02  0.00000000000E+00 0.  1.
         14    1    4    4    0    0 -0.64704834723E+02  0.35629481158E+02  0.86483196614E+02  0.11373442250E+03  0.00000000000E+00 0. -1.
         -5    1    5    5    0  502  0.14187634884E+03 -0.27870355236E+02 -0.91922821259E+02  0.17139880434E+03  0.47000000000E+01 0.  1.
         13    1    6    6    0    0 -0.59054850782E+01 -0.22995198418E+02 -0.34791511784E+02  0.42120104422E+02  0.00000000000E+00 0. -1.
        -14    1    6    6    0    0  0.50467078230E+02 -0.79481399469E+02  0.11749562762E+02  0.94880298649E+02  0.00000000000E+00 0.  1.
</event>
<event>
12    1  0.9028446E-003  0.2896256E+03  0.7818608E-02  0.1090608E+00
         21   -1    0    0  501  502  0.00000000000E+00  0.00000000000E+00  0.23007855310E+04  0.23007855310E+04  0.00000000000E+00 0. -1.
         21   -1    0    0  502  503 -0.00000000000E+00 -0.00000000000E+00 -0.36604832969E+02  0.36604832969E+02  0.00000000000E+00 0.  1.
          6    2    1    2  501    0  0.12477039718E+03  0.19644380817E+03  0.10431797297E+04  0.10825093582E+04  0.17159469774E+03 0.  0.
         24    2    3    3    0    0  0.13436372363E+01  0.76525506641E+02  0.29962359107E+03  0.31928436815E+03  0.79437100189E+02 0.  0.
         -6    2    1    2    0  503 -0.12477039718E+03 -0.19644380817E+03  0.12210009683E+04  0.12548810058E+04  0.17240983808E+03 0.  0.
        -24    2    5    5    0    0 -0.36559318171E+02 -0.68032432668E+02  0.76154151365E+03  0.76970500029E+03  0.80841294078E+02 0.  0.
          5    1    3    3  501    0  0.12342675994E+03  0.11991830153E+03  0.74355613866E+03  0.76322499006E+03  0.47000000000E+01 0. -1.
        -11    1    4    4    0    0 -0.28303727616E+02  0.66489448071E-01  0.76986680186E+02  0.82024717884E+02  0.00000000000E+00 0.  1.
         12    1    4    4    0    0  0.29647364852E+02  0.76459017193E+02  0.22263691089E+03  0.23725965026E+03  0.00000000000E+00 0. -1.
         -5    1    5    5    0  503 -0.88211079006E+02 -0.12841137550E+03  0.45945945464E+03  0.48517600546E+03  0.47000000000E+01 0.  1.
         11    1    6    6    0    0  0.11742729354E+02 -0.29656690774E+02  0.92894262321E+02  0.98217895378E+02  0.00000000000E+00 0. -1.
        -12    1    6    6    0    0 -0.48302047524E+02 -0.38375741894E+02  0.66864725133E+03  0.67148710492E+03  0.00000000000E+00 0.  1.
</event>
<event>
12    1  0.9028446E-003  0.2133198E+03  0.7818608E-02  0.1140054E+00
         21   -1    0    0  503  502  0.00000000000E+00  0.00000000000E+00  0.54687447565E+02  0.54687447565E+02  0.00000000000E+00 0.  1.
         21   -1    0    0  501  503 -0.00000000000E+00 -0.00000000000E+00 -0.85518707258E+03  0.85518707258E+03  0.00000000000E+00 0.  1.
          6    2    1    2  501    0  0.12045816549E+03  0.42795608402E+02 -0.50907691236E+03  0.55196436195E+03  0.17077388688E+03 0.  0.
         24    2    3    3    0    0  0.74885867620E+02  0.93516308614E+02 -0.33843977269E+03  0.36814774900E+03  0.81474488104E+02 0.  0.
         -6    2    1    2    0  502 -0.12045816549E+03 -0.42795608402E+02 -0.29142271266E+03  0.35791015819E+03  0.16380125198E+03 0.  0.
        -24    2    5    5    0    0 -0.82881228942E+02  0.18403098245E+02 -0.24927576223E+03  0.27450893946E+03  0.77516321326E+02 0.  0.
          5    1    3    3  501    0  0.45572297870E+02 -0.50720700212E+02 -0.17063713967E+03  0.18381661295E+03  0.47000000000E+01 0. -1.
        -13    1    4    4    0    0  0.71112562334E+02  0.28887450759E+02 -0.14348448862E+03  0.16272455195E+03  0.00000000000E+00 0.  1.
         14    1    4    4    0    0  0.37733052855E+01  0.64628857855E+02 -0.19495528407E+03  0.20542319705E+03  0.00000000000E+00 0. -1.
         -5    1    5    5    0  502 -0.37576936548E+02 -0.61198706647E+02 -0.42146950430E+02  0.83401218733E+02  0.47000000000E+01 0.  1.
         11    1    6    6    0    0 -0.79301596849E+02 -0.11393240922E+02 -0.14121516248E+03  0.16235846549E+03  0.00000000000E+00 0. -1.
        -12    1    6    6    0    0 -0.35796320927E+01  0.29796339167E+02 -0.10806059975E+03  0.11215047397E+03  0.00000000000E+00 0.  1.
</event>
<event>
12    1  0.9028446E-003  0.1903373E+03  0.7818608E-02  0.1158461E+00
         21   -1    0    0  501  502  0.00000000000E+00  0.00000000000E+00  0.30155808518E+03  0.30155808518E+03  0.00000000000E+00 0. -1.
         21   -1    0    0  502  503 -0.00000000000E+00 -0.00000000000E+00 -0.12704747485E+03  0.12704747485E+03  0.00000000000E+00 0. -1.
          6    2    1    2  501    0 -0.73300570660E+02 -0.27684432435E+02  0.14050008840E+03  0.23657672119E+03  0.17346143292E+03 0.  0.
         24    2    3    3    0    0  0.43508386988E+01  0.25476409285E+02  0.23026440568E+02  0.85984674912E+02  0.78709403040E+02 0.  0.
         -6    2    1    2    0  503  0.73300570660E+02  0.27684432435E+02  0.34010521942E+02  0.19202883884E+03  0.17198534207E+03 0.  0.
        -24    2    5    5    0    0 -0.18282747957E+01  0.36558945945E+02  0.65696275059E+02  0.10987546180E+03  0.80104415801E+02 0.  0.
          5    1    3    3  501    0 -0.77651409358E+02 -0.53160841720E+02  0.11747364783E+03  0.15059204628E+03  0.47000000000E+01 0. -1.
        -13    1    4    4    0    0  0.28767735181E+02 -0.17118737903E+02  0.12762153283E+02  0.35826056597E+02  0.00000000000E+00 0.  1.
         14    1    4    4    0    0 -0.24416896483E+02  0.42595147188E+02  0.10264287286E+02  0.50158618315E+02  0.00000000000E+00 0. -1.
         -5    1    5    5    0  503  0.75128845455E+02 -0.88745135101E+01 -0.31685753117E+02  0.82153377046E+02  0.47000000000E+01 0.  1.
         11    1    6    6    0    0  0.11616430381E+02  0.46181605034E+02  0.76510350240E+02  0.90119452906E+02  0.00000000000E+00 0. -1.
        -12    1    6    6    0    0 -0.13444705176E+02 -0.96226590887E+01 -0.10814075181E+02  0.19756008889E+02  0.00000000000E+00 0.  1.
</event>
<event>
12    1  0.9028446E-003  0.1777666E+03  0.7818608E-02  0.1170223E+00
         21   -1    0    0  503  502  0.00000000000E+00  0.00000000000E+00  0.24787391039E+03  0.24787391039E+03  0.00000000000E+00 0. -1.
         21   -1    0    0  501  503 -0.00000000000E+00 -0.00000000000E+00 -0.14574561753E+03  0.14574561753E+03  0.00000000000E+00 0. -1.
          6    2    1    2  501    0  0.33166502827E+02  0.32580547692E+02 -0.19792120060E+02  0.17886504464E+03  0.17157933203E+03 0.  0.
         24    2    3    3    0    0  0.18427044800E+02 -0.48350199197E+02 -0.11129710129E+02  0.96014789596E+02  0.80110371558E+02 0.  0.
         -6    2    1    2    0  502 -0.33166502827E+02 -0.32580547692E+02  0.12192041293E+03  0.21475448328E+03  0.17056785161E+03 0.  0.
        -24    2    5    5    0    0 -0.83692910345E+02 -0.21750061659E+02  0.11125103144E+03  0.16178144310E+03  0.79491351171E+02 0.  0.
          5    1    3    3  501    0  0.14739458027E+02  0.80930746889E+02 -0.86624099307E+01  0.82850255043E+02  0.47000000000E+01 0. -1.
        -11    1    4    4    0    0 -0.12983083057E+02 -0.35917377014E+02  0.25703885756E+02  0.46035944219E+02  0.00000000000E+00 0.  1.
         12    1    4    4    0    0  0.31410127857E+02 -0.12432822183E+02 -0.36833595885E+02  0.49978845377E+02  0.00000000000E+00 0. -1.
         -5    1    5    5    0  502  0.50526407518E+02 -0.10830486033E+02  0.10669381484E+02  0.52973040177E+02  0.47000000000E+01 0.  1.
         11    1    6    6    0    0 -0.15573244061E+02  0.15239661112E+02  0.71343950883E+02  0.74597134858E+02  0.00000000000E+00 0. -1.
        -12    1    6    6    0    0 -0.68119666284E+02 -0.36989722772E+02  0.39907080562E+02  0.87184308246E+02  0.00000000000E+00 0.  1.
</event>
<event>
12    1  0.9028446E-003  0.2037517E+03  0.7818608E-02  0.1146697E+00
         21   -1    0    0  501  502  0.00000000000E+00  0.00000000000E+00  0.46012223659E+03  0.46012223659E+03  0.00000000000E+00 0. -1.
         21   -1    0    0  502  503 -0.00000000000E+00 -0.00000000000E+00 -0.94726226753E+02  0.94726226753E+02  0.00000000000E+00 0.  1.
          6    2    1    2  501    0 -0.19648241482E+02  0.10749847900E+03  0.24456577838E+03  0.31831928506E+03  0.17196735419E+03 0.  0.
         24    2    3    3    0    0 -0.39498918151E+02  0.92883648332E+02  0.78943042836E+02  0.15080623133E+03  0.79517160000E+02 0.  0.
         -6    2    1    2    0  503  0.19648241482E+02 -0.10749847900E+03  0.12083023145E+03  0.23652917828E+03  0.17147632770E+03 0.  0.
        -24    2    5    5    0    0  0.55102585500E+02 -0.12913770899E+03  0.92399767564E+02  0.18597576038E+03  0.79601655696E+02 0.  0.
          5    1    3    3  501    0  0.19850676669E+02  0.14614830672E+02  0.16562273555E+03  0.16751305373E+03  0.47000000000E+01 0. -1.
        -13    1    4    4    0    0  0.14128646104E+02  0.47993745973E+02  0.70776047249E+01  0.50528316634E+02  0.00000000000E+00 0.  1.
         14    1    4    4    0    0 -0.53627564255E+02  0.44889902360E+02  0.71865438111E+02  0.10027791470E+03  0.00000000000E+00 0. -1.
         -5    1    5    5    0  503 -0.35454344018E+02  0.21639229990E+02  0.28430463889E+02  0.50553417899E+02  0.47000000000E+01 0.  1.
         13    1    6    6    0    0  0.21085465502E+01 -0.92484624812E+02  0.75379485279E+02  0.11933113004E+03  0.00000000000E+00 0. -1.
        -14    1    6    6    0    0  0.52994038950E+02 -0.36653084183E+02  0.17020282285E+02  0.66644630341E+02  0.00000000000E+00 0.  1.
</event>
<event>
12    1  0.9028446E-003  0.2622090E+03  0.7818608E-02  0.1106404E+00
         21   -1    0    0  503  502  0.00000000000E+00  0.00000000000E+00  0.46229305275E+03  0.46229305275E+03  0.00000000000E+00 0.  1.
         21   -1    0    0  501  503 -0.00000000000E+00 -0.00000000000E+00 -0.15311512255E+03  0.15311512255E+03  0.00000000000E+00 0. -1.
          6    2    1    2  501    0  0.12121701469E+03 -0.15681700116E+03  0.91890140575E+02  0.27784408947E+03  0.17166363509E+03 0.  0.
         24    2    3    3    0    0  0.68057856007E+02 -0.64901369935E+01  0.40453878801E+02  0.11023788055E+03  0.76432194499E+02 0.  0.
         -6    2    1    2    0  502 -0.12121701469E+03  0.15681700116E+03  0.21728778961E+03  0.33756408583E+03  0.16568159833E+03 0.  0.
        -24    2    5    5    0    0 -0.13527981731E+03  0.91025234631E+02  0.10527690270E+03  0.20681681914E+03  0.71440521607E+02 0.  0.
          5    1    3    3  501    0  0.53159158687E+02 -0.15032686416E+03  0.51436261775E+02  0.16760620892E+03  0.47000000000E+01 0. -1.
        -11    1    4    4    0    0  0.83639164039E+00 -0.17697196747E+02 -0.14339522129E+02  0.22792810677E+02  0.00000000000E+00 0.  1.
         12    1    4    4    0    0  0.67221464366E+02  0.11207059753E+02  0.54793400930E+02  0.87445069874E+02  0.00000000000E+00 0. -1.
         -5    1    5    5    0  502  0.14062802613E+02  0.65791766526E+02  0.11201088691E+03  0.13074726669E+03  0.47000000000E+01 0.  1.
         13    1    6    6    0    0 -0.54472647020E+02 -0.10403729718E+01  0.22350102259E+02  0.58888697730E+02  0.00000000000E+00 0. -1.
        -14    1    6    6    0    0 -0.80807170286E+02  0.92065607603E+02  0.82926800442E+02  0.14792812141E+03  0.00000000000E+00 0.  1.
</event>
<event>
12    1  0.9028446E-003  0.2742280E+03  0.7818608E-02  0.1098953E+00
         21   -1    0    0  501  502  0.00000000000E+00  0.00000000000E+00  0.89295298128E+03  0.89295298128E+03  0.00000000000E+00 0.  1.
         21   -1    0    0  502  503 -0.00000000000E+00 -0.00000000000E+00 -0.84233572300E+02  0.84233572300E+02  0.00000000000E+00 0.  1.
          6    2    1    2  501    0 -0.10703388930E+03 -0.18498263418E+03  0.42661827626E+03  0.50715298258E+03  0.17183179477E+03 0.  0.
         24    2    3    3    0    0 -0.58236708315E+02 -0.17134836986E+03  0.22921356190E+03  0.30329575487E+03  0.81839354322E+02 0.  0.
         -6    2    1    2    0  503  0.10703388930E+03  0.18498263418E+03  0.38210113272E+03  0.47003357100E+03  0.17104225745E+03 0.  0.
        -24    2    5    5    0    0  0.12278107472E+03  0.20080034041E+03  0.32954896568E+03  0.41274488155E+03  0.79748651660E+02 0.  0.
          5    1    3    3  501    0 -0.48797180989E+02 -0.13634264316E+02  0.19740471437E+03  0.20385722771E+03  0.47000000000E+01 0. -1.
        -13    1    4    4    0    0 -0.48412472344E+02 -0.11274251244E+03  0.20544401283E+03  0.23929455488E+03  0.00000000000E+00 0.  1.
         14    1    4    4    0    0 -0.98242359705E+01 -0.58605857426E+02  0.23769549065E+02  0.64001199987E+02  0.00000000000E+00 0. -1.
         -5    1    5    5    0  503 -0.15747185417E+02 -0.15817706232E+02  0.52552167037E+02  0.57288689453E+02  0.47000000000E+01 0.  1.
         11    1    6    6    0    0  0.91892529774E+02  0.88323013610E+02  0.13315303608E+03  0.18432287644E+03  0.00000000000E+00 0. -1.
        -12    1    6    6    0    0  0.30888544948E+02  0.11247732680E+03  0.19639592960E+03  0.22842200511E+03  0.00000000000E+00 0.  1.
</event>
<event>
12    1  0.9028446E-003  0.3297700E+03  0.7818608E-02  0.1071645E+00
         21   -1    0    0  503  502  0.00000000000E+00  0.00000000000E+00  0.49433442951E+03  0.49433442951E+03  0.00000000000E+00 0.  1.
         21   -1    0    0  501  503 -0.00000000000E+00 -0.00000000000E+00 -0.29300005121E+03  0.29300005121E+03  0.00000000000E+00 0. -1.
          6    2    1    2  501    0 -0.10098218940E+03 -0.26239237145E+03  0.30083279698E+03  0.44637275791E+03  0.17234009427E+03 0.  0.
         24    2    3    3    0    0 -0.36055223865E+01 -0.15948075527E+03  0.19628006849E+03  0.27022969373E+03  0.95137327026E+02 0.  0.
         -6    2    1    2    0  502  0.10098218940E+03  0.26239237145E+03 -0.99498418670E+02  0.34096172281E+03  0.16525072446E+03 0.  0.
        -24    2    5    5    0    0  0.10387745193E+03  0.19466935132E+03 -0.12803133923E+03  0.26726635283E+03  0.79703187943E+02 0.  0.
          5    1    3    3  501    0 -0.97376667014E+02 -0.10291161618E+03  0.10455272848E+03  0.17614306418E+03  0.47000000000E+01 0. -1.
        -13    1    4    4    0    0 -0.19401641268E+02 -0.11392197415E+03  0.70127905199E+02  0.13517604435E+03  0.00000000000E+00 0.  1.
         14    1    4    4    0    0  0.15796118881E+02 -0.45558781126E+02  0.12615216329E+03  0.13505364939E+03  0.00000000000E+00 0. -1.
         -5    1    5    5    0  502 -0.28952625337E+01  0.67723020133E+02  0.28532920558E+02  0.73695369981E+02  0.47000000000E+01 0.  1.
         13    1    6    6    0    0  0.15599806723E+02  0.11381305439E+03 -0.64281837703E+02  0.13163935574E+03  0.00000000000E+00 0. -1.
        -14    1    6    6    0    0  0.88277645212E+02  0.80856296927E+02 -0.63749501525E+02  0.13562699710E+03  0.00000000000E+00 0.  1.
</event>
<event>
12    1  0.9028446E-003  0.2567185E+03  0.7818608E-02  0.1109618E+00
         21   -1    0    0  501  502  0.00000000000E+00  0.00000000000E+00  0.17387729904E+03  0.17387729904E+03  0.00000000000E+00 0. -1.
         21   -1    0    0  502  503 -0.00000000000E+00 -0.00000000000E+00 -0.44123511730E+03  0.44123511730E+03  0.00000000000E+00 0.  1.
          6    2    1    2  501    0  0.12955166266E+03 -0.13799637087E+03 -0.14655550923E+02  0.25713646303E+03  0.17342936250E+03 0.  0.
         24    2    3    3    0    0  0.82973652426E+02 -0.89773257464E+02 -0.77305916892E+02  0.16525535475E+03  0.79932863917E+02 0.  0.
         -6    2    1    2    0  503 -0.12955166266E+03  0.13799637087E+03 -0.25270226734E+03  0.35797595331E+03  0.16870600334E+03 0.  0.
        -24    2    5    5    0    0 -0.61040580300E+02  0.58913664296E+02 -0.43290359330E+02  0.12383223655E+03  0.79142879111E+02 0.  0.
          5    1    3    3  501    0  0.46578010234E+02 -0.48223113405E+02  0.62650365968E+02  0.91881108286E+02  0.47000000000E+01 0. -1.
        -11    1    4    4    0    0  0.53805947286E+01 -0.30927408519E+02 -0.58038499183E+02  0.65984261645E+02  0.00000000000E+00 0.  1.
         12    1    4    4    0    0  0.77593057697E+02 -0.58845848945E+02 -0.19267417708E+02  0.99271093104E+02  0.00000000000E+00 0. -1.
         -5    1    5    5    0  503 -0.68511082360E+02  0.79082706573E+02 -0.20941190801E+03  0.23414371676E+03  0.47000000000E+01 0.  1.
         13    1    6    6    0    0 -0.41452301710E+02 -0.38947994530E+01  0.53986846504E+01  0.41983432158E+02  0.00000000000E+00 0. -1.
        -14    1    6    6    0    0 -0.19588278590E+02  0.62808463749E+02 -0.48689043980E+02  0.81848804392E+02  0.00000000000E+00 0.  1.
</event>
<event>
12    1  0.9028446E-003  0.2007761E+03  0.7818608E-02  0.1151891E+00
         21   -1    0    0  503  502  0.00000000000E+00  0.00000000000E+00  0.24622440866E+03  0.24622440866E+03  0.00000000000E+00 0. -1.
         21   -1    0    0  501  503 -0.00000000000E+00 -0.00000000000E+00 -0.16635098332E+03  0.16635098332E+03  0.00000000000E+00 0.  1.
          6    2    1    2  501    0 -0.80696513178E+02 -0.45992685574E+02 -0.18888089473E+02  0.18882352485E+03  0.16331046889E+03 0.  0.
         24    2    3    3    0    0 -0.29182448771E+02 -0.71576194050E+02 -0.47981773068E+02  0.12419576640E+03  0.84543308271E+02 0.  0.
         -6    2    1    2    0  502  0.80696513178E+02  0.45992685574E+02  0.98761514813E+02  0.22375186712E+03  0.17799945749E+03 0.  0.
        -24    2    5    5    0    0  0.16796723707E+02 -0.25610398839E+02 -0.12471181997E+01  0.85065164551E+02  0.79350516447E+02 0.  0.
          5    1    3    3  501    0 -0.51514064407E+02  0.25583508476E+02  0.29093683595E+02  0.64627758454E+02  0.47000000000E+01 0. -1.
        -13    1    4    4    0    0  0.18129039673E+02 -0.64070433685E+02 -0.29944385941E+02  0.73009237782E+02  0.00000000000E+00 0.  1.
         14    1    4    4    0    0 -0.47311488444E+02 -0.75057603650E+01 -0.18037387128E+02  0.51186528617E+02  0.00000000000E+00 0. -1.
         -5    1    5    5    0  502  0.63899789472E+02  0.71603084413E+02  0.10000863301E+03  0.13868670257E+03  0.47000000000E+01 0.  1.
         11    1    6    6    0    0 -0.62089765690E+01  0.25112531079E+02 -0.11708235174E+02  0.28394953391E+02  0.00000000000E+00 0. -1.
        -12    1    6    6    0    0  0.23005700275E+02 -0.50722929918E+02  0.10461116974E+02  0.56670211160E+02  0.00000000000E+00 0.  1.
</event>
<event>
12    1  0.9028446E-003  0.1770269E+03  0.7818608E-02  0.1171645E+00
         21   -1    0    0  501  502  0.00000000000E+00  0.00000000000E+00  0.56622917258E+02  0.56622917258E+02  0.00000000000E+00 0.  1.
         21   -1    0    0  502  503 -0.00000000000E+00 -0.00000000000E+00 -0.54681920978E+03  0.54681920978E+03  0.00000000000E+00 0.  1.
          6    2    1    2  501    0  0.19642521069E+02  0.16390197482E+02 -0.21378726348E+03  0.27520369937E+03  0.17139899332E+03 0.  0.
         24    2    3    3    0    0 -0.31654941939E+02  0.35097875695E+02 -0.57516372403E+02  0.10960150030E+03  0.80439166746E+02 0.  0.
         -6    2    1    2    0  503 -0.19642521069E+02 -0.16390197482E+02 -0.27640902904E+03  0.32823842767E+03  0.17516862407E+03 0.  0.
        -24    2    5    5    0    0  0.55159213263E+02 -0.26402495537E+02 -0.16099234251E+03  0.19025782360E+03  0.80869490635E+02 0.  0.
          5    1    3    3  501    0  0.51297463008E+02 -0.18707678214E+02 -0.15627089108E+03  0.16560219906E+03  0.47000000000E+01 0. -1.
        -11    1    4    4    0    0  0.11787235904E+02  0.34799117060E+02  0.95995578356E+00  0.36753761624E+02  0.00000000000E+00 0.  1.
         12    1    4    4    0    0 -0.43442177843E+02  0.29875863519E+00 -0.58476328187E+02  0.72847738679E+02  0.00000000000E+00 0. -1.
         -5    1    5    5    0  503 -0.74801734332E+02  0.10012298056E+02 -0.11541668653E+03  0.13798060408E+03  0.47000000000E+01 0.  1.
         11    1    6    6    0    0 -0.10542170296E+02  0.99957288590E+01 -0.23275456889E+01  0.14712899745E+02  0.00000000000E+00 0. -1.
        -12    1    6    6    0    0  0.65701383559E+02 -0.36398224396E+02 -0.15866479682E+03  0.17554492385E+03  0.00000000000E+00 0.  1.
</event>
<event>
12    1  0.9028446E-003  0.2037993E+03  0.7818608E-02  0.1148966E+00
         21   -1    0    0  503  502  0.00000000000E+00  0.00000000000E+00  0.37802804086E+02  0.37802804086E+02  0.00000000000E+00 0. -1.
         21   -1    0    0  501  503 -0.00000000000E+00 -0.00000000000E+00 -0.11713109605E+04  0.11713109605E+04  0.00000000000E+00 0.  1.
          6    2    1    2  501    0 -0.92041079419E+02 -0.12245877547E+02 -0.78437318869E+03  0.81041683406E+03  0.18141836724E+03 0.  0.
         24    2    3    3    0    0  0.21981887983E+02 -0.43122893026E+02 -0.40635765615E+03  0.41434555257E+03  0.64906894226E+02 0.  0.
         -6    2    1    2    0  502  0.92041079419E+02  0.12245877547E+02 -0.34913496774E+03  0.39869693055E+03  0.16864902878E+03 0.  0.
        -24    2    5    5    0    0  0.77415915804E+02 -0.48455739088E+02 -0.17139741067E+03  0.21025248020E+03  0.80547193464E+02 0.  0.
          5    1    3    3  501    0 -0.11402296740E+03  0.30877015479E+02 -0.37801553253E+03  0.39607128149E+03  0.47000000000E+01 0. -1.
        -11    1    4    4    0    0 -0.15902064407E+02  0.21625989499E+01 -0.16878215209E+03  0.16954340846E+03  0.00000000000E+00 0.  1.
         12    1    4    4    0    0  0.37883952390E+02 -0.45285491976E+02 -0.23757550406E+03  0.24480214412E+03  0.00000000000E+00 0. -1.
         -5    1    5    5    0  502  0.14625163615E+02  0.60701616636E+02 -0.17773755707E+03  0.18844445035E+03  0.47000000000E+01 0.  1.
         13    1    6    6    0    0  0.73283476147E+02 -0.62982173129E+02 -0.16939480987E+03  0.19501749567E+03  0.00000000000E+00 0. -1.
        -14    1    6    6    0    0  0.41324396564E+01  0.14526434041E+02 -0.20026007988E+01  0.15234984523E+02  0.00000000000E+00 0.  1.
</event>
<event>
12    1  0.9028446E-003  0.1766093E+03  0.7818608E-02  0.1171341E+00
         21   -1    0    0  501  502  0.00000000000E+00  0.00000000000E+00  0.10952923452E+04  0.10952923452E+04  0.00000000000E+00 0.  1.
         21   -1    0    0  502  503 -0.00000000000E+00 -0.00000000000E+00 -0.28660718956E+02  0.28660718956E+02  0.00000000000E+00 0.  1.
          6    2    1    2  501    0  0.92699354495E+01  0.39497386431E+02  0.59166499365E+03  0.61721432197E+03  0.17099730787E+03 0.  0.
         24    2    3    3    0    0  0.65573817627E+02 -0.40888840353E+01  0.36539647255E+03  0.37996039942E+03  0.80862095267E+02 0.  0.
         -6    2    1    2    0  503 -0.92699354495E+01 -0.39497386431E+02  0.47496663259E+03  0.50673874218E+03  0.17188622840E+03 0.  0.
        -24    2    5    5    0    0 -0.89727915771E+01 -0.61771681112E+02  0.14514671785E+03  0.17613399531E+03  0.77841910455E+02 0.  0.
          5    1    3    3  501    0 -0.56303882177E+02  0.43586270466E+02  0.22626852111E+03  0.23725392255E+03  0.47000000000E+01 0. -1.
        -13    1    4    4    0    0  0.27889003378E+02 -0.12668485223E+02  0.31876722040E+02  0.44208737092E+02  0.00000000000E+00 0.  1.
         14    1    4    4    0    0  0.37684814249E+02  0.85796011875E+01  0.33351975051E+03  0.33575166233E+03  0.00000000000E+00 0. -1.
         -5    1    5    5    0  503 -0.29714387233E+00  0.22274294681E+02  0.32981991474E+03  0.33060474688E+03  0.47000000000E+01 0.  1.
         11    1    6    6    0    0 -0.10485524065E+02 -0.57029598768E+02  0.15478309054E+03  0.16528801066E+03  0.00000000000E+00 0. -1.
        -12    1    6    6    0    0  0.15127324883E+01 -0.47420823440E+01 -0.96363726840E+01  0.10845984651E+02  0.00000000000E+00 0.  1.
</event>
<event>
12    1  0.9028446E-003  0.2016641E+03  0.7818608E-02  0.1148567E+00
         21   -1    0    0  501  502  0.00000000000E+00  0.00000000000E+00  0.35397647061E+03  0.35397647061E+03  0.00000000000E+00 0.  1.
         21   -1    0    0  502  503 -0.00000000000E+00 -0.00000000000E+00 -0.12136923429E+03  0.12136923429E+03  0.00000000000E+00 0. -1.
          6    2    1    2  501    0 -0.91435452371E+02 -0.46846349608E+02  0.17403734444E+03  0.26637831734E+03  0.17353209579E+03 0.  0.
         24    2    3    3    0    0 -0.65877503523E+02 -0.99213113856E+02  0.12292742022E+03  0.18872652341E+03  0.79520202243E+02 0.  0.
         -6    2    1    2    0  503  0.91435452371E+02  0.46846349608E+02  0.58569891874E+02  0.20896738755E+03  0.17228439977E+03 0.  0.
        -24    2    5    5    0    0  0.66979905559E+02 -0.38295767646E+02  0.37229002066E+02  0.11772716902E+03  0.80751558267E+02 0.  0.
          5    1    3    3  501    0 -0.25557948848E+02  0.52366764248E+02  0.51109924219E+02  0.77651793932E+02  0.47000000000E+01 0. -1.
        -13    1    4    4    0    0  0.46105769142E+01 -0.44113242365E+02  0.11489428202E+02  0.45817491549E+02  0.00000000000E+00 0.  1.
         14    1    4    4    0    0 -0.70488080437E+02 -0.55099871491E+02  0.11143799202E+03  0.14290903186E+03  0.00000000000E+00 0. -1.
         -5    1    5    5    0  503  0.24455546812E+02  0.85142117254E+02  0.21340889808E+02  0.91240218534E+02  0.47000000000E+01 0.  1.
         11    1    6    6    0    0  0.25430205530E+02  0.22390518170E+02 -0.27896976422E+01  0.33997250920E+02  0.00000000000E+00 0. -1.
        -12    1    6    6    0    0  0.41549700029E+02 -0.60686285816E+02  0.40018699709E+02  0.83729918100E+02  0.00000000000E+00 0.  1.
</event>
<event>
12    1  0.9028446E-003  0.2568600E+03  0.7818608E-02  0.1109090E+00
         21   -1    0    0  503  502  0.00000000000E+00  0.00000000000E+00  0.34409387961E+03  0.34409387961E+03  0.00000000000E+00 0. -1.
         21   -1    0    0  501  503 -0.00000000000E+00 -0.00000000000E+00 -0.22204298797E+03  0.22204298797E+03  0.00000000000E+00 0. -1.
          6    2    1    2  501    0  0.16380322307E+03 -0.98563289510E+02 -0.43959332612E+02  0.26029956355E+03  0.17110587931E+03 0.  0.
         24    2    3    3    0    0  0.73241423254E+01 -0.38040050482E+02 -0.33456348276E+02  0.92129507203E+02  0.76601764706E+02 0.  0.
         -6    2    1    2    0  502 -0.16380322307E+03  0.98563289510E+02  0.16601022425E+03  0.30583730403E+03  0.17155420150E+03 0.  0.
        -24    2    5    5    0    0 -0.16322944241E+03  0.10503119445E+03  0.88414113920E+02  0.22782827021E+03  0.80082847665E+02 0.  0.
          5    1    3    3  501    0  0.15647908074E+03 -0.60523239028E+02 -0.10502984336E+02  0.16817005635E+03  0.47000000000E+01 0. -1.
        -11    1    4    4    0    0  0.31453154757E+02 -0.46637321578E+02 -0.35361643764E+02  0.66443860197E+02  0.00000000000E+00 0.  1.
         12    1    4    4    0    0 -0.24129012431E+02  0.85972710961E+01  0.19052954885E+01  0.25685647006E+02  0.00000000000E+00 0. -1.
         -5    1    5    5    0  502 -0.57378065524E+00 -0.64679049350E+01  0.77596110331E+02  0.78009033816E+02  0.47000000000E+01 0.  1.
         13    1    6    6    0    0 -0.82620509455E+02  0.63998045469E+02  0.89160326072E+02  0.13737344049E+03  0.00000000000E+00 0. -1.
        -14    1    6    6    0    0 -0.80608932958E+02  0.41033148976E+02 -0.74621215213E+00  0.90454829722E+02  0.00000000000E+00 0.  1.
</event>
<event>
12    1  0.9028446E-003  0.1821831E+03  0.7818608E-02  0.1167586E+00
         21   -1    0    0  501  502  0.00000000000E+00  0.00000000000E+00  0.12179572315E+03  0.12179572315E+03  0.00000000000E+00 0.  1.
         21   -1    0    0  502  503 -0.00000000000E+00 -0.00000000000E+00 -0.26310422452E+03  0.26310422452E+03  0.00000000000E+00 0. -1.
          6    2    1    2  501    0 -0.44166825530E+02 -0.35067641122E+02 -0.88955154804E+02  0.20274049180E+03  0.17323463717E+03 0.  0.
         24    2    3    3    0    0  0.37391762594E+01 -0.63502006543E+02 -0.30374923152E+01  0.10023472185E+03  0.77403403228E+02 0.  0.
         -6    2    1    2    0  503  0.44166825530E+02  0.35067641122E+02 -0.52353346566E+02  0.18215945588E+03  0.16510828731E+03 0.  0.
        -24    2    5    5    0    0 -0.83414336719E+00  0.32474781020E+02  0.27637052794E+02  0.90222716132E+02  0.79504871684E+02 0.  0.
          5    1    3    3  501    0 -0.47906001789E+02  0.28434365422E+02 -0.85917662489E+02  0.10250576994E+03  0.47000000000E+01 0. -1.
        -13    1    4    4    0    0 -0.20531572064E+02 -0.70559234736E+02  0.51495231196E+01  0.73665925952E+02  0.00000000000E+00 0.  1.
         14    1    4    4    0    0  0.24270748323E+02  0.70572281928E+01 -0.81870154348E+01  0.26568795902E+02  0.00000000000E+00 0. -1.
         -5    1    5    5    0  503  0.45000968897E+02  0.25928601018E+01 -0.79990399360E+02  0.91936739745E+02  0.47000000000E+01 0.  1.
         13    1    6    6    0    0 -0.33042236154E+02 -0.71524571606E+01  0.17840576030E+02  0.38226079665E+02  0.00000000000E+00 0. -1.
        -14    1    6    6    0    0  0.32208092787E+02  0.39627238180E+02  0.97964767643E+01  0.51996636466E+02  0.00000000000E+00 0.  1.
</event>
<event>
12    1  0.9028446E-003  0.2032437E+03  0.7818608E-02  0.1147336E+00
         21   -1    0    0  501  502  0.00000000000E+00  0.00000000000E+00  0.43780846990E+02  0.43780846990E+02  0.00000000000E+00 0.  1.
         21   -1    0    0  502  503 -0.00000000000E+00 -0.00000000000E+00 -0.95973670002E+03  0.95973670002E+03  0.00000000000E+00 0.  1.
          6    2    1    2  501    0 -0.94647813029E+02 -0.53831439659E+02 -0.53409017872E+03  0.57093301255E+03  0.16987099048E+03 0.  0.
         24    2    3    3    0    0 -0.88183692758E+02 -0.96679057889E+02 -0.46257153729E+03  0.48717915108E+03  0.79043622358E+02 0.  0.
         -6    2    1    2    0  503  0.94647813029E+02  0.53831439659E+02 -0.38186567431E+03  0.43258453446E+03  0.17161571557E+03 0.  0.
        -24    2    5    5    0    0  0.64214483133E+02 -0.25021207856E+02 -0.14021531786E+03  0.17653588212E+03  0.82188938604E+02 0.  0.
          5    1    3    3  501    0 -0.64641202707E+01  0.42847618230E+02 -0.71518641424E+02  0.83753861463E+02  0.47000000000E+01 0. -1.
        -13    1    4    4    0    0 -0.24538957941E+02 -0.84559158953E+02 -0.27196218779E+03  0.28585983175E+03  0.00000000000E+00 0.  1.
         14    1    4    4    0    0 -0.63644734817E+02 -0.12119898936E+02 -0.19060934950E+03  0.20131931934E+03  0.00000000000E+00 0. -1.
         -5    1    5    5    0  503  0.30433329896E+02  0.78852647516E+02 -0.24165035645E+03  0.25604865233E+03  0.47000000000E+01 0.  1.
         13    1    6    6    0    0 -0.19843393591E+01 -0.30097810369E+02 -0.84966906785E+02  0.90162026599E+02  0.00000000000E+00 0. -1.
        -14    1    6    6    0    0  0.66198822492E+02  0.50766025123E+01 -0.55248411073E+02  0.86373855526E+02  0.00000000000E+00 0.  1.
</event>
<event>
12    1  0.9028446E-003  0.2789646E+03  0.7818608E-02  0.1096350E+00
         21   -1    0    0  501  502  0.00000000000E+00  0.00000000000E+00  0.65594112228E+03  0.65594112228E+03  0.00000000000E+00 0. -1.
         21   -1    0    0  502  503 -0.00000000000E+00 -0.00000000000E+00 -0.13903693358E+03  0.13903693358E+03  0.00000000000E+00 0. -1.
          6    2    1    2  501    0 -0.21892804132E+03  0.12602144023E+02  0.41150955176E+03  0.49676796128E+03  0.17131840197E+03 0.  0.
         24    2    3    3    0    0 -0.12658419987E+03 -0.35617436804E+02  0.33257000774E+03  0.36597784453E+03  0.77748383761E+02 0.  0.
         -6    2    1    2    0  503  0.21892804132E+03 -0.12602144023E+02  0.10539463695E+03  0.29821009458E+03  0.17243239168E+03 0.  0.
        -24    2    5    5    0    0  0.66026159938E+02  0.48189929923E+02  0.42013601324E+02  0.12181874767E+03  0.79955871870E+02 0.  0.
          5    1    3    3  501    0 -0.92343841455E+02  0.48219580827E+02  0.78939544018E+02  0.13079011675E+03  0.47000000000E+01 0. -1.
        -13    1    4    4    0    0 -0.10120421500E+03 -0.57121139445E+02  0.22291951060E+03  0.25139257330E+03  0.00000000000E+00 0.  1.
         14    1    4    4    0    0 -0.25379984868E+02  0.21503702641E+02  0.10965049714E+03  0.11458527123E+03  0.00000000000E+00 0. -1.
         -5    1    5    5    0  503  0.15290188139E+03 -0.60792073946E+02  0.63381035626E+02  0.17639134690E+03  0.47000000000E+01 0.  1.
         13    1    6    6    0    0  0.83559340750E+02  0.38961974000E+02  0.43512734416E+02  0.10194879549E+03  0.00000000000E+00 0. -1.
        -14    1    6    6    0    0 -0.17533180813E+02  0.92279559232E+01 -0.14991330922E+01  0.19869952188E+02  0.00000000000E+00 0.  1.
</event>
<event>
12    1  0.9028446E-003  0.3261688E+03  0.7818608E-02  0.1073257E+00
         21   -1    0    0  501  502  0.00000000000E+00  0.00000000000E+00  0.38972857463E+03  0.38972857463E+03  0.00000000000E+00 0.  1.
         21   -1    0    0  502  503 -0.00000000000E+00 -0.00000000000E+00 -0.27326170404E+03  0.27326170404E+03  0.00000000000E+00 0. -1.
          6    2    1    2  501    0 -0.20990412620E+03  0.17447929395E+03  0.94516272522E+02  0.33608365115E+03  0.17180258609E+03 0.  0.
         24    2    3    3    0    0 -0.14380496319E+03  0.18150688669E+03  0.10805877801E+03  0.26808382861E+03  0.81040868103E+02 0.  0.
         -6    2    1    2    0  503  0.20990412620E+03 -0.17447929395E+03  0.21950598059E+02  0.32690662752E+03  0.17855908869E+03 0.  0.
        -24    2    5    5    0    0  0.14209539527E+02 -0.35929305579E+02  0.31145493253E+02  0.86908488725E+02  0.71345761259E+02 0.  0.
          5    1    3    3  501    0 -0.66099163002E+02 -0.70275927443E+01 -0.13542505493E+02  0.67999822532E+02  0.47000000000E+01 0. -1.
        -11    1    4    4    0    0 -0.15909797597E+02  0.57067687200E+02  0.57631726976E+02  0.82651427913E+02  0.00000000000E+00 0.  1.
         12    1    4    4    0    0 -0.12789516560E+03  0.12443919949E+03  0.50427051039E+02  0.18543240070E+03  0.00000000000E+00 0. -1.
         -5    1    5    5    0  503  0.19569458667E+03 -0.13854998837E+03 -0.91948951948E+01  0.23999813880E+03  0.47000000000E+01 0.  1.
         13    1    6    6    0    0 -0.13558184964E+02 -0.71502041645E+01 -0.17938677521E+02  0.23595464613E+02  0.00000000000E+00 0. -1.
        -14    1    6    6    0    0  0.27767724491E+02 -0.28779101415E+02  0.49084170774E+02  0.63313024112E+02  0.00000000000E+00 0.  1.
</event>
<event>
12    1  0.9028446E-003  0.3784384E+03  0.7818608E-02  0.1051738E+00
         21   -1    0    0  503  502  0.00000000000E+00  0.00000000000E+00  0.41206137609E+03  0.41206137609E+03  0.00000000000E+00 0. -1.
         21   -1    0    0  501  503 -0.00000000000E+00 -0.00000000000E+00 -0.35885799154E+03  0.35885799154E+03  0.00000000000E+00 0.  1.
          6    2    1    2  501    0  0.22899688807E+03 -0.24363598624E+03 -0.48139348620E+02  0.38148792236E+03  0.17725001970E+03 0.  0.
         24    2    3    3    0    0  0.22181216278E+03 -0.15531162894E+03 -0.68803026004E+02  0.29037321480E+03  0.79122751758E+02 0.  0.
         -6    2    1    2    0  502 -0.22899688807E+03  0.24363598624E+03  0.10134273317E+03  0.38943144528E+03  0.17201288459E+03 0.  0.
        -24    2    5    5    0    0 -0.13207089450E+03  0.18677634630E+03  0.12656921926E+03  0.27416595832E+03  0.82577725360E+02 0.  0.
          5    1    3    3  501    0  0.71847252918E+01 -0.88324357307E+02  0.20663677384E+02  0.91114707563E+02  0.47000000000E+01 0. -1.
        -13    1    4    4    0    0  0.14507664240E+03 -0.63828698643E+02 -0.63823537226E+02  0.17086479697E+03  0.00000000000E+00 0.  1.
         14    1    4    4    0    0  0.76735520380E+02 -0.91482930294E+02 -0.49794887780E+01  0.11950841783E+03  0.00000000000E+00 0. -1.
         -5    1    5    5    0  502 -0.96925993566E+02  0.56859639946E+02 -0.25226486086E+02  0.11526548696E+03  0.47000000000E+01 0.  1.
         11    1    6    6    0    0 -0.12450220008E+03  0.12833062051E+03  0.11892458576E+03  0.21473845273E+03  0.00000000000E+00 0. -1.
        -12    1    6    6    0    0 -0.75686944211E+01  0.58445725793E+02  0.76446334999E+01  0.59427505585E+02  0.00000000000E+00 0.  1.
</event>
<event>
12    1  0.9028446E-003  0.1949142E+03  0.7818608E-02  0.1154152E+00
         21   -1    0    0  501  502  0.00000000000E+00  0.00000000000E+00  0.54463036107E+03  0.54463036107E+03  0.00000000000E+00 0. -1.
         21   -1    0    0  502  503 -0.00000000000E+00 -0.00000000000E+00 -0.91437946702E+02  0.91437946702E+02  0.00000000000E+00 0.  1.
          6    2    1    2  501    0  0.87131509346E+02 -0.29348613262E+02  0.38164997859E+03  0.42843917278E+03  0.17161054043E+03 0.  0.
         24    2    3    3    0    0  0.10083257492E+03  0.12934982813E+02  0.17973564105E+03  0.22163706592E+03  0.80520596000E+02 0.  0.
         -6    2    1    2    0  503 -0.87131509346E+02  0.29348613262E+02  0.71542435778E+02  0.20762913500E+03  0.17186708982E+03 0.  0.
        -24    2    5    5    0    0 -0.10683254141E+03 -0.10186058542E+02  0.14923984106E+02  0.13566483824E+03  0.81641137546E+02 0.  0.
          5    1    3    3  501    0 -0.13701065573E+02 -0.42283596075E+02  0.20191433755E+03  0.20680210686E+03  0.47000000000E+01 0. -1.
        -13    1    4    4    0    0  0.82141492637E+02 -0.22380156911E+02  0.14746570063E+03  0.17027691887E+03  0.00000000000E+00 0.  1.
         14    1    4    4    0    0  0.18691082282E+02  0.35315139724E+02  0.32269940417E+02  0.51360147051E+02  0.00000000000E+00 0. -1.
         -5    1    5    5    0  503  0.19701032061E+02  0.39534671804E+02  0.56618451672E+02  0.71964296764E+02  0.47000000000E+01 0.  1.
         13    1    6    6    0    0 -0.82538331924E+02 -0.36493259886E+02  0.32313815949E+02  0.95856752267E+02  0.00000000000E+00 0. -1.
        -14    1    6    6    0    0 -0.24294209483E+02  0.26307201344E+02 -0.17389831844E+02  0.39808085969E+02  0.00000000000E+00 0.  1.
</event>
<event>
12    1  0.9028446E-003  0.2106955E+03  0.7818608E-02  0.1141113E+00
         21   -1    0    0  503  502  0.00000000000E+00  0.00000000000E+00  0.24694943488E+03  0.24694943488E+03  0.00000000000E+00 0.  1.
         21   -1    0    0  501  503 -0.00000000000E+00 -0.00000000000E+00 -0.18118572949E+03  0.18118572949E+03  0.00000000000E+00 0.  1.
          6    2    1    2  501    0  0.11300294789E+03  0.42513205644E+02  0.11357253485E+02  0.21100142186E+03  0.17267186781E+03 0.  0.
         24    2    3    3    0    0  0.12814901516E+03  0.25384212635E+02  0.53629026243E+02  0.16271272207E+03  0.80825918667E+02 0.  0.
         -6    2    1    2    0  502 -0.11300294789E+03 -0.42513205644E+02  0.54406451903E+02  0.21713374251E+03  0.17207545218E+03 0.  0.
        -24    2    5    5    0    0 -0.52576578235E+02  0.41246083398E+02  0.52968711530E+02  0.11373586174E+03  0.75263708852E+02 0.  0.
          5    1    3    3  501    0 -0.15146067268E+02  0.17128993009E+02 -0.42271772758E+02  0.48288699789E+02  0.47000000000E+01 0. -1.
        -11    1    4    4    0    0  0.71388764299E+02 -0.78520619058E+01  0.63911196673E+02  0.96138710229E+02  0.00000000000E+00 0.  1.
         12    1    4    4    0    0  0.56760250864E+02  0.33236274541E+02 -0.10282170430E+02  0.66574011838E+02  0.00000000000E+00 0. -1.
         -5    1    5    5    0  502 -0.60426369660E+02 -0.83759289042E+02  0.14377403739E+01  0.10339788077E+03  0.47000000000E+01 0.  1.
         13    1    6    6    0    0 -0.56801187861E+02  0.59091407303E+02  0.46818094953E+02  0.94393343910E+02  0.00000000000E+00 0. -1.
        -14    1    6    6    0    0  0.42246096263E+01 -0.17845323905E+02  0.61506165769E+01  0.19342517831E+02  0.00000000000E+00 0.  1.
</event>
<event>
12    1  0.9028446E-003  0.2017249E+03  0.7818608E-02  0.1148464E+00
         21   -1    0    0  503  502  0.00000000000E+00  0.00000000000E+00  0.46839732369E+03  0.46839732369E+03  0.00000000000E+00 0. -1.
         21   -1    0    0  501  503 -0.00000000000E+00 -0.00000000000E+00 -0.11311357070E+03  0.11311357070E+03  0.00000000000E+00 0.  1.
          6    2    1    2  501    0 -0.78909846236E+02  0.68938170879E+02  0.36944836990E+02  0.20508015986E+03  0.17237666823E+03 0.  0.
         24    2    3    3    0    0 -0.21145221283E+02  0.10190982277E+03 -0.90641087649E+00  0.12840755269E+03  0.75199372657E+02 0.  0.
         -6    2    1    2    0  502  0.78909846236E+02 -0.68938170879E+02  0.31833891601E+03  0.37643073453E+03  0.17140944321E+03 0.  0.
        -24    2    5    5    0    0 -0.13030955741E+02 -0.75848509389E+02  0.15965097729E+03  0.19284202099E+03  0.76005317748E+02 0.  0.
          5    1    3    3  501    0 -0.57764624954E+02 -0.32971651892E+02  0.37851247866E+02  0.76672607166E+02  0.47000000000E+01 0. -1.
        -11    1    4    4    0    0  0.21762914912E+02  0.23137052087E+02  0.18321256463E+02  0.36669007119E+02  0.00000000000E+00 0.  1.
         12    1    4    4    0    0 -0.42908136195E+02  0.78772770684E+02 -0.19227667339E+02  0.91738545575E+02  0.00000000000E+00 0. -1.
         -5    1    5    5    0  502  0.91940801978E+02  0.69103385104E+01  0.15868793872E+03  0.18358871355E+03  0.47000000000E+01 0.  1.
         13    1    6    6    0    0 -0.29443270067E+02 -0.36138920382E+01  0.73280075151E+02  0.79056535353E+02  0.00000000000E+00 0. -1.
        -14    1    6    6    0    0  0.16412314326E+02 -0.72234617351E+02  0.86370902136E+02  0.11378548564E+03  0.00000000000E+00 0.  1.
</event>
<event>
12    1  0.9028446E-003  0.2771352E+03  0.7818608E-02  0.1097308E+00
         21   -1    0    0  501  502  0.00000000000E+00  0.00000000000E+00  0.24495080177E+03  0.24495080177E+03  0.00000000000E+00 0.  1.
         21   -1    0    0  502  503 -0.00000000000E+00 -0.00000000000E+00 -0.31730396557E+03  0.31730396557E+03  0.00000000000E+00 0. -1.
          6    2    1    2  501    0  0.16293264540E+03  0.14440870027E+03 -0.41343292780E+01  0.27684677922E+03  0.17095650568E+03 0.  0.
         24    2    3    3    0    0  0.10639454807E+03  0.31854982781E+02  0.57259950651E+02  0.13664605391E+03  0.55307344119E+02 0.  0.
         -6    2    1    2    0  503 -0.16293264540E+03 -0.14440870027E+03 -0.68218834520E+02  0.28540798812E+03  0.17147300268E+03 0.  0.
        -24    2    5    5    0    0 -0.49753601964E+02 -0.97070069983E+02 -0.87727310269E+02  0.16109743983E+03  0.79738853494E+02 0.  0.
          5    1    3    3  501    0  0.56538097338E+02  0.11255371749E+03 -0.61394279929E+02  0.14020072532E+03  0.47000000000E+01 0. -1.
        -13    1    4    4    0    0  0.65822759278E+02  0.43254966451E+02  0.51513614919E+02  0.94113124928E+02  0.00000000000E+00 0.  1.
         14    1    4    4    0    0  0.40571788788E+02 -0.11399983670E+02  0.57463357318E+01  0.42532928979E+02  0.00000000000E+00 0. -1.
         -5    1    5    5    0  503 -0.11317904344E+03 -0.47338630287E+02  0.19508475749E+02  0.12431054830E+03  0.47000000000E+01 0.  1.
         11    1    6    6    0    0 -0.35337422331E+02 -0.41827095068E+02  0.19470559153E+01  0.54790786868E+02  0.00000000000E+00 0. -1.
        -12    1    6    6    0    0 -0.14416179632E+02 -0.55242974915E+02 -0.89674366184E+02  0.10630665296E+03  0.00000000000E+00 0.  1.
</event>
<event>
12    1  0.9028446E-003  0.2955433E+03  0.7818608E-02  0.1087641E+00
         21   -1    0    0  501  502  0.00000000000E+00  0.00000000000E+00  0.53697021153E+03  0.53697021153E+03  0.00000000000E+00 0.  1.
         21   -1    0    0  502  503 -0.00000000000E+00 -0.00000000000E+00 -0.19767095241E+03  0.19767095241E+03  0.00000000000E+00 0. -1.
          6    2    1    2  501    0 -0.23669952771E+03 -0.33667484158E+02  0.32594145628E+03  0.43998145480E+03  0.17374027093E+03 0.  0.
         24    2    3    3    0    0 -0.24302553636E+03 -0.60549529455E+02  0.31417689593E+03  0.40959794571E+03  0.79597100136E+02 0.  0.
         -6    2    1    2    0  503  0.23669952771E+03  0.33667484158E+02  0.13357802836E+02  0.29465970914E+03  0.17171414439E+03 0.  0.
        -24    2    5    5    0    0  0.24086352405E+03  0.51005276956E+02 -0.17351328586E+02  0.25883962151E+03  0.77975031690E+02 0.  0.
          5    1    3    3  501    0  0.63260086509E+01  0.26882045297E+02  0.11764560346E+02  0.30383509095E+02  0.47000000000E+01 0. -1.
        -11    1    4    4    0    0 -0.34493668826E+02 -0.37338602563E+02  0.83629822836E+02  0.97866908085E+02  0.00000000000E+00 0.  1.
         12    1    4    4    0    0 -0.20853186754E+03 -0.23210926892E+02  0.23054707309E+03  0.31173103762E+03  0.00000000000E+00 0. -1.
         -5    1    5    5    0  503 -0.41639963368E+01 -0.17337792798E+02  0.30709131423E+02  0.35820087623E+02  0.47000000000E+01 0.  1.
         13    1    6    6    0    0  0.12865999508E+03 -0.17697970225E+01 -0.35606095398E+02  0.13350775463E+03  0.00000000000E+00 0. -1.
        -14    1    6    6    0    0  0.11220352897E+03  0.52775073978E+02  0.18254766812E+02  0.12533186689E+03  0.00000000000E+00 0.  1.
</event>
<event>
12    1  0.9028446E-003  0.2740533E+03  0.7818608E-02  0.1099183E+00
         21   -1    0    0  501  502  0.00000000000E+00  0.00000000000E+00  0.20607851782E+03  0.20607851782E+03  0.00000000000E+00 0. -1.
         21   -1    0    0  502  503 -0.00000000000E+00 -0.00000000000E+00 -0.42350811630E+03  0.42350811630E+03  0.00000000000E+00 0.  1.
          6    2    1    2  501    0 -0.77320598700E+02 -0.19776466018E+03  0.10957398855E+02  0.27284329724E+03  0.17097971945E+03 0.  0.
         24    2    3    3    0    0  0.11462451631E+02 -0.34206488564E+02  0.21190262047E+00  0.86372760113E+02  0.78477621839E+02 0.  0.
         -6    2    1    2    0  503  0.77320598700E+02  0.19776466018E+03 -0.22838699733E+03  0.35674333687E+03  0.17325083565E+03 0.  0.
        -24    2    5    5    0    0  0.10496310121E+03  0.17845059608E+03 -0.13978476734E+03  0.26182449693E+03  0.78424601696E+02 0.  0.
          5    1    3    3  501    0 -0.88783050331E+02 -0.16355817162E+03  0.10745496235E+02  0.18647053713E+03  0.47000000000E+01 0. -1.
        -13    1    4    4    0    0  0.33256222650E+02  0.31603036810E+01  0.19857973606E+02  0.38862616742E+02  0.00000000000E+00 0.  1.
         14    1    4    4    0    0 -0.21793771019E+02 -0.37366792245E+02 -0.19646070985E+02  0.47510143371E+02  0.00000000000E+00 0. -1.
         -5    1    5    5    0  503 -0.27642502514E+02  0.19314064100E+02 -0.88602229993E+02  0.94918839948E+02  0.47000000000E+01 0.  1.
         11    1    6    6    0    0  0.56392532094E+02  0.57914756983E+02 -0.94151065008E+02  0.12409133650E+03  0.00000000000E+00 0. -1.
        -12    1    6    6    0    0  0.48570569121E+02  0.12053583910E+03 -0.45633702332E+02  0.13773316042E+03  0.00000000000E+00 0.  1.
</event>
<event>
12    1  0.9028446E-003  0.1979480E+03  0.7818608E-02  0.1151563E+00
         21   -1    0    0  503  502  0.00000000000E+00  0.00000000000E+00  0.17520678130E+03  0.17520678130E+03  0.00000000000E+00 0. -1.
         21   -1    0    0  501  503 -0.00000000000E+00 -0.00000000000E+00 -0.23110408775E+03  0.23110408775E+03  0.00000000000E+00 0. -1.
          6    2    1    2  501    0 -0.69756406227E+02 -0.67367995076E+02  0.96124717771E+01  0.19780440951E+03  0.17213303529E+03 0.  0.
         24    2    3    3    0    0 -0.19921687900E+02 -0.86268390929E+02 -0.40257372081E+02  0.12466197696E+03  0.77979763847E+02 0.  0.
         -6    2    1    2    0  502  0.69756406227E+02  0.67367995076E+02 -0.65509778225E+02  0.20850645953E+03  0.17256595740E+03 0.  0.
        -24    2    5    5    0    0  0.55682723991E+02  0.10310468512E+03 -0.84038728002E+02  0.16560434388E+03  0.81431867614E+02 0.  0.
          5    1    3    3  501    0 -0.49834718327E+02  0.18900395853E+02  0.49869843858E+02  0.73142432558E+02  0.47000000000E+01 0. -1.
        -11    1    4    4    0    0 -0.25534240296E+02 -0.82676290816E+01 -0.37878472454E+02  0.46423375508E+02  0.00000000000E+00 0.  1.
         12    1    4    4    0    0  0.56125523955E+01 -0.78000761847E+02 -0.23788996266E+01  0.78238601448E+02  0.00000000000E+00 0. -1.
         -5    1    5    5    0  502  0.14073682236E+02 -0.35736690048E+02  0.18528949776E+02  0.42902115648E+02  0.47000000000E+01 0.  1.
         11    1    6    6    0    0  0.84061611769E+01  0.56408716130E+02 -0.81027669635E+02  0.99086275778E+02  0.00000000000E+00 0. -1.
        -12    1    6    6    0    0  0.47276562814E+02  0.46695968994E+02 -0.30110583668E+01  0.66518068104E+02  0.00000000000E+00 0.  1.
</event>
<event>
12    1  0.9028446E-003  0.2001930E+03  0.7818608E-02  0.1150184E+00
         21   -1    0    0  501  502  0.00000000000E+00  0.00000000000E+00  0.38556191666E+03  0.38556191666E+03  0.00000000000E+00 0. -1.
         21   -1    0    0  502  503 -0.00000000000E+00 -0.00000000000E+00 -0.26397379138E+03  0.26397379138E+03  0.00000000000E+00 0.  1.
          6    2    1    2  501    0 -0.62187672359E+01 -0.99612816553E+02  0.31499612555E+03  0.37322885828E+03  0.17353914617E+03 0.  0.
         24    2    3    3    0    0 -0.37513680840E+02 -0.33662461915E+02  0.27285577393E+03  0.28880895465E+03  0.80124286749E+02 0.  0.
         -6    2    1    2    0  503  0.62187672359E+01  0.99612816553E+02 -0.19340800027E+03  0.27630684976E+03  0.17022759579E+03 0.  0.
        -24    2    5    5    0    0  0.29831457011E+02  0.18319348766E+02 -0.16437405734E+03  0.18668962560E+03  0.81293734163E+02 0.  0.
          5    1    3    3  501    0  0.31294913604E+02 -0.65950354638E+02  0.42140351622E+02  0.84419903631E+02  0.47000000000E+01 0. -1.
        -13    1    4    4    0    0  0.20784383460E+01 -0.79736436444E+01  0.21022587068E+03  0.21038729905E+03  0.00000000000E+00 0.  1.
         14    1    4    4    0    0 -0.39592119186E+02 -0.25688818271E+02  0.62629903249E+02  0.78421655598E+02  0.00000000000E+00 0. -1.
         -5    1    5    5    0  503 -0.23612689775E+02  0.81293467787E+02 -0.29033942929E+02  0.89617224155E+02  0.47000000000E+01 0.  1.
         13    1    6    6    0    0 -0.26055505200E+02  0.19602517993E+02 -0.61333247453E+02  0.69461610304E+02  0.00000000000E+00 0. -1.
        -14    1    6    6    0    0  0.55886962211E+02 -0.12831692267E+01 -0.10304080989E+03  0.11722801530E+03  0.00000000000E+00 0.  1.
</event>
<event>
12    1  0.9028446E-003  0.2448080E+03  0.7818608E-02  0.1116716E+00
         21   -1    0    0  501  502  0.00000000000E+00  0.00000000000E+00  0.13268736161E+04  0.13268736161E+04  0.00000000000E+00 0.  1.
         21   -1    0    0  502  503 -0.00000000000E+00 -0.00000000000E+00 -0.81952401787E+02  0.81952401787E+02  0.00000000000E+00 0. -1.
          6    2    1    2  501    0 -0.44828119696E+02 -0.16785048664E+03  0.10953834552E+04  0.11224062931E+04  0.17247500299E+03 0.  0.
         24    2    3    3    0    0 -0.75852353400E+02 -0.12221593988E+03  0.98715941015E+03  0.10008351252E+04  0.80603543980E+02 0.  0.
         -6    2    1    2    0  503  0.44828119696E+02  0.16785048664E+03  0.14953775912E+03  0.28641972481E+03  0.17173051906E+03 0.  0.
        -24    2    5    5    0    0  0.52930427505E+02  0.19143185653E+03  0.15105695872E+03  0.26100070899E+03  0.76520451300E+02 0.  0.
          5    1    3    3  501    0  0.31024233704E+02 -0.45634546761E+02  0.10822404503E+03  0.12157116787E+03  0.47000000000E+01 0. -1.
        -13    1    4    4    0    0 -0.65260092895E+01 -0.74360990126E+02  0.33237558403E+03  0.34065477320E+03  0.00000000000E+00 0.  1.
         14    1    4    4    0    0 -0.69326344111E+02 -0.47854949751E+02  0.65478382612E+03  0.66018035199E+03  0.00000000000E+00 0. -1.
         -5    1    5    5    0  503 -0.81023078085E+01 -0.23581369889E+02 -0.15191995981E+01  0.25419015817E+02  0.47000000000E+01 0.  1.
         11    1    6    6    0    0  0.25807570138E+01  0.11107915184E+03  0.48229340552E+02  0.12112517315E+03  0.00000000000E+00 0. -1.
        -12    1    6    6    0    0  0.50349670491E+02  0.80352704687E+02  0.10282761817E+03  0.13987553584E+03  0.00000000000E+00 0.  1.
</event>
<event>
12    1  0.9028446E-003  0.1963340E+03  0.7818608E-02  0.1153196E+00
         21   -1    0    0  503  502  0.00000000000E+00  0.00000000000E+00  0.81544861370E+03  0.81544861370E+03  0.00000000000E+00 0.  1.
         21   -1    0    0  501  503 -0.00000000000E+00 -0.00000000000E+00 -0.86848772101E+02  0.86848772101E+02  0.00000000000E+00 0. -1.
          6    2    1    2  501    0  0.58579261235E+02 -0.76095838570E+02  0.59115976606E+02  0.20504077446E+03  0.17124518681E+03 0.  0.
         24    2    3    3    0    0  0.29702880496E+02  0.21111839215E+02  0.66846347566E+01  0.90785299344E+02  0.82881333063E+02 0.  0.
         -6    2    1    2    0  502 -0.58579261235E+02  0.76095838570E+02  0.66948386499E+03  0.69725661135E+03  0.16951704954E+03 0.  0.
        -24    2    5    5    0    0 -0.61976694876E+02  0.33069032664E+02  0.20574362273E+03  0.23148848140E+03  0.79509792457E+02 0.  0.
          5    1    3    3  501    0  0.28876380739E+02 -0.97207677785E+02  0.52431341849E+02  0.11425547511E+03  0.47000000000E+01 0. -1.
        -11    1    4    4    0    0 -0.21364838467E+02  0.24588539900E+02  0.19572541808E+02  0.38001802719E+02  0.00000000000E+00 0.  1.
         12    1    4    4    0    0  0.51067718963E+02 -0.34767006851E+01 -0.12887907051E+02  0.52783496624E+02  0.00000000000E+00 0. -1.
         -5    1    5    5    0  502  0.33974336411E+01  0.43026805906E+02  0.46374024226E+03  0.46576812995E+03  0.47000000000E+01 0.  1.
         11    1    6    6    0    0  0.25475465401E+01 -0.20387733421E+02  0.25714267152E+02  0.32914635082E+02  0.00000000000E+00 0. -1.
        -12    1    6    6    0    0 -0.64524241416E+02  0.53456766086E+02  0.18002935558E+03  0.19857384632E+03  0.00000000000E+00 0.  1.
</event>
<event>
12    1  0.9028446E-003  0.1894333E+03  0.7818608E-02  0.1159307E+00
         21   -1    0    0  503  502  0.00000000000E+00  0.00000000000E+00  0.27494977242E+02  0.27494977242E+02  0.00000000000E+00 0. -1.
         21   -1    0    0  501  503 -0.00000000000E+00 -0.00000000000E+00 -0.15053366835E+04  0.15053366835E+04  0.00000000000E+00 0. -1.
          6    2    1    2  501    0 -0.44916569433E+02 -0.66255103354E+02 -0.10278420826E+04  0.10451527672E+04  0.17169077731E+03 0.  0.
         24    2    3    3    0    0 -0.27802843031E+02 -0.11108774273E+03 -0.81865524552E+03  0.83048076621E+03  0.79927513169E+02 0.  0.
         -6    2    1    2    0  502  0.44916569433E+02  0.66255103354E+02 -0.44999962369E+03  0.48767889361E+03  0.17007000036E+03 0.  0.
        -24    2    5    5    0    0  0.31557427020E+02  0.10128990185E+03 -0.23763031319E+03  0.27197372948E+03  0.79031818672E+02 0.  0.
          5    1    3    3  501    0 -0.17113726403E+02  0.44832639379E+02 -0.20918683707E+03  0.21467200095E+03  0.47000000000E+01 0. -1.
        -13    1    4    4    0    0  0.10990160876E+02 -0.93870284725E+02 -0.48366549684E+03  0.49281307493E+03  0.00000000000E+00 0.  1.
         14    1    4    4    0    0 -0.38793003907E+02 -0.17217458007E+02 -0.33498974868E+03  0.33766769128E+03  0.00000000000E+00 0. -1.
         -5    1    5    5    0  502  0.13359142413E+02 -0.35034798497E+02 -0.21236931049E+03  0.21570516413E+03  0.47000000000E+01 0.  1.
         13    1    6    6    0    0  0.52253674649E+02  0.88782378047E+02 -0.21690258163E+03  0.24012389945E+03  0.00000000000E+00 0. -1.
        -14    1    6    6    0    0 -0.20696247629E+02  0.12507523803E+02 -0.20727731558E+02  0.31849830033E+02  0.00000000000E+00 0.  1.
</event>
<event>
12    1  0.9028446E-003  0.1801247E+03  0.7818608E-02  0.1167883E+00
         21   -1    0    0  503  502  0.00000000000E+00  0.00000000000E+00  0.35148297875E+02  0.35148297875E+02  0.00000000000E+00 0.  1.
         21   -1    0    0  501  503 -0.00000000000E+00 -0.00000000000E+00 -0.10713118621E+04  0.10713118621E+04  0.00000000000E+00 0. -1.
          6    2    1    2  501    0  0.71943254410E+01 -0.51512222565E+02 -0.72576071966E+03  0.74758021382E+03  0.17158754765E+03 0.  0.
         24    2    3    3    0    0 -0.11841666336E+02 -0.11905489572E+02 -0.16458987685E+03  0.18467181355E+03  0.82048067707E+02 0.  0.
         -6    2    1    2    0  502 -0.71943254410E+01  0.51512222565E+02 -0.31040284462E+03  0.35887994620E+03  0.17245179746E+03 0.  0.
        -24    2    5    5    0    0 -0.11284368647E+02 -0.20210993686E+02 -0.69389273946E+02  0.10734350858E+03  0.78561671664E+02 0.  0.
          5    1    3    3  501    0  0.19035991777E+02 -0.39606732993E+02 -0.56117084281E+03  0.56290840027E+03  0.47000000000E+01 0. -1.
        -13    1    4    4    0    0  0.19100766737E+02  0.25069993380E+02 -0.94361551637E+02  0.99485909984E+02  0.00000000000E+00 0.  1.
         14    1    4    4    0    0 -0.30942433073E+02 -0.36975482952E+02 -0.70228325216E+02  0.85185903568E+02  0.00000000000E+00 0. -1.
         -5    1    5    5    0  502  0.40900432063E+01  0.71723216251E+02 -0.24101357067E+03  0.25153643762E+03  0.47000000000E+01 0.  1.
         11    1    6    6    0    0  0.18952348403E+02 -0.30811354588E+02 -0.65818719484E+02  0.75104160444E+02  0.00000000000E+00 0. -1.
        -12    1    6    6    0    0 -0.30236717051E+02  0.10600360902E+02 -0.35705544625E+01  0.32239348139E+02  0.00000000000E+00 0.  1.
</event>
<event>
12    1  0.9028446E-003  0.1900319E+03  0.7818608E-02  0.1158753E+00
         21   -1    0    0  503  502  0.00000000000E+00  0.00000000000E+00  0.31326570104E+03  0.31326570104E+03  0.00000000000E+00 0. -1.
         21   -1    0    0  501  503 -0.00000000000E+00 -0.00000000000E+00 -0.11859607815E+03  0.11859607815E+03  0.00000000000E+00 0. -1.
          6    2    1    2  501    0  0.46898427434E+01  0.79591293158E+02  0.13820255470E+03  0.23497249037E+03  0.17249741023E+03 0.  0.
         24    2    3    3    0    0 -0.21518606546E+02  0.66555911304E+02  0.16483428511E+03  0.19512097774E+03  0.77518479411E+02 0.  0.
         -6    2    1    2    0  502 -0.46898427434E+01 -0.79591293158E+02  0.56467068191E+02  0.19688928882E+03  0.17093885951E+03 0.  0.
        -24    2    5    5    0    0 -0.17295863739E+02 -0.11490173522E+03  0.68453098957E+02  0.15724721499E+03  0.80865964455E+02 0.  0.
          5    1    3    3  501    0  0.26208449289E+02  0.13035381854E+02 -0.26631730412E+02  0.39851512631E+02  0.47000000000E+01 0. -1.
        -13    1    4    4    0    0 -0.16144404889E+02 -0.10237130405E+02  0.86225264863E+01  0.20971137574E+02  0.00000000000E+00 0.  1.
         14    1    4    4    0    0 -0.53742016572E+01  0.76793041709E+02  0.15621175862E+03  0.17414984017E+03  0.00000000000E+00 0. -1.
         -5    1    5    5    0  502  0.12606020995E+02  0.35310442062E+02 -0.11986030767E+02  0.39642073830E+02  0.47000000000E+01 0.  1.
         11    1    6    6    0    0  0.10758271144E+02 -0.11243369469E+03  0.59708786265E+02  0.12775842539E+03  0.00000000000E+00 0. -1.
        -12    1    6    6    0    0 -0.28054134883E+02 -0.24680405297E+01  0.87443126922E+01  0.29488789608E+02  0.00000000000E+00 0.  1.
</event>
<event>
12    1  0.9028446E-003  0.3734186E+03  0.7818608E-02  0.1053716E+00
         21   -1    0    0  501  502  0.00000000000E+00  0.00000000000E+00  0.20709279623E+03  0.20709279623E+03  0.00000000000E+00 0. -1.
         21   -1    0    0  502  503 -0.00000000000E+00 -0.00000000000E+00 -0.76396442473E+03  0.76396442473E+03  0.00000000000E+00 0.  1.
          6    2    1    2  501    0  0.14115085365E+03 -0.29998744584E+03 -0.10676246117E+03  0.38838079643E+03  0.17182953403E+03 0.  0.
         24    2    3    3    0    0  0.47026399500E+02 -0.79027054203E+02  0.81050412251E+01  0.12211111987E+03  0.79929195904E+02 0.  0.
         -6    2    1    2    0  503 -0.14115085365E+03  0.29998744584E+03 -0.45010916732E+03  0.58267642453E+03  0.16430922689E+03 0.  0.
        -24    2    5    5    0    0 -0.54625861018E+02  0.15328822690E+03 -0.13852734091E+03  0.22755312237E+03  0.78162229500E+02 0.  0.
          5    1    3    3  501    0  0.94124454154E+02 -0.22096039164E+03 -0.11486750240E+03  0.26626967655E+03  0.47000000000E+01 0. -1.
        -11    1    4    4    0    0 -0.16351978199E+02  0.34045083007E+01 -0.46862407367E+01  0.17347585423E+02  0.00000000000E+00 0.  1.
         12    1    4    4    0    0  0.63378377699E+02 -0.82431562503E+02  0.12791281962E+02  0.10476353445E+03  0.00000000000E+00 0. -1.
         -5    1    5    5    0  503 -0.86524992636E+02  0.14669921895E+03 -0.31158182641E+03  0.35512330216E+03  0.47000000000E+01 0.  1.
         13    1    6    6    0    0 -0.24977074401E+02  0.13567391112E+02  0.22088804415E+00  0.28424938677E+02  0.00000000000E+00 0. -1.
        -14    1    6    6    0    0 -0.29648786617E+02  0.13972083578E+03 -0.13874822896E+03  0.19912818369E+03  0.00000000000E+00 0.  1.
</event>
<event>
12    1  0.9028446E-003  0.2593033E+03  0.7818608E-02  0.1107684E+00
         21   -1    0    0  503  502  0.00000000000E+00  0.00000000000E+00  0.25557546996E+03  0.25557546996E+03  0.00000000000E+00 0. -1.
         21   -1    0    0  501  503 -0.00000000000E+00 -0.00000000000E+00 -0.28004362923E+03  0.28004362923E+03  0.00000000000E+00 0.  1.
          6    2    1    2  501    0 -0.18623557900E+03 -0.55232271594E+02  0.55252065568E+02  0.26433788150E+03  0.17055037419E+03 0.  0.
         24    2    3    3    0    0 -0.43611102503E+02  0.87769633057E+01 -0.91278757767E+01  0.95205417744E+02  0.83676699894E+02 0.  0.
         -6    2    1    2    0  502  0.18623557900E+03  0.55232271594E+02 -0.79720224830E+02  0.27128121769E+03  0.17176696457E+03 0.  0.
        -24    2    5    5    0    0  0.18326401329E+03  0.11304850862E+01 -0.37380323959E+02  0.20235668859E+03  0.77226706756E+02 0.  0.
          5    1    3    3  501    0 -0.14262447649E+03 -0.64009234900E+02  0.64379941344E+02  0.16913246375E+03  0.47000000000E+01 0. -1.
        -11    1    4    4    0    0 -0.65751090563E+02  0.10279321547E+02  0.81967465693E+01  0.67052643617E+02  0.00000000000E+00 0.  1.
         12    1    4    4    0    0  0.22139988060E+02 -0.15023582411E+01 -0.17324622346E+02  0.28152774126E+02  0.00000000000E+00 0. -1.
         -5    1    5    5    0  502  0.29715657097E+01  0.54101786508E+02 -0.42339900871E+02  0.68924529101E+02  0.47000000000E+01 0.  1.
         13    1    6    6    0    0  0.44427985030E+02 -0.33297243346E+02 -0.53866737064E+01  0.55781435280E+02  0.00000000000E+00 0. -1.
        -14    1    6    6    0    0  0.13883602826E+03  0.34427728432E+02 -0.31993650253E+02  0.14657525331E+03  0.00000000000E+00 0.  1.
</event>
<event>
12    1  0.9028446E-003  0.2028703E+03  0.7818608E-02  0.1147914E+00
         21   -1    0    0  503  502  0.00000000000E+00  0.00000000000E+00  0.26386118508E+03  0.26386118508E+03  0.00000000000E+00 0. -1.
         21   -1    0    0  501  503 -0.00000000000E+00 -0.00000000000E+00 -0.20811353095E+03  0.20811353095E+03  0.00000000000E+00 0.  1.
          6    2    1    2  501    0  0.90483077499E+02 -0.58271046361E+02 -0.92465324672E+02  0.22294886055E+03  0.17196992760E+03 0.  0.
         24    2    3    3    0    0 -0.12790166981E+02  0.24920283174E+02 -0.35270598181E+02  0.78451500462E+02  0.64234055950E+02 0.  0.
         -6    2    1    2    0  502 -0.90483077499E+02  0.58271046361E+02  0.14821297880E+03  0.24902585547E+03  0.16871303284E+03 0.  0.
        -24    2    5    5    0    0 -0.10165969803E+03  0.22177779735E+02  0.16225016916E+03  0.20844539890E+03  0.79358797942E+02 0.  0.
          5    1    3    3  501    0  0.10327324448E+03 -0.83191329535E+02 -0.57194726492E+02  0.14449736009E+03  0.47000000000E+01 0. -1.
        -11    1    4    4    0    0 -0.28668838499E+02  0.24796267260E+01  0.54822952410E+01  0.29293453376E+02  0.00000000000E+00 0.  1.
         12    1    4    4    0    0  0.15878671518E+02  0.22440656448E+02 -0.40752893422E+02  0.49158047085E+02  0.00000000000E+00 0. -1.
         -5    1    5    5    0  502  0.11176620536E+02  0.36093266626E+02 -0.14037190359E+02  0.40580456571E+02  0.47000000000E+01 0.  1.
         11    1    6    6    0    0 -0.31350687836E-01 -0.86791780963E+01  0.61309163199E+02  0.61920453869E+02  0.00000000000E+00 0. -1.
        -12    1    6    6    0    0 -0.10162834735E+03  0.30856957831E+02  0.10094100596E+03  0.14652494503E+03  0.00000000000E+00 0.  1.
</event>
<event>
12    1  0.9028446E-003  0.2529644E+03  0.7818608E-02  0.1113410E+00
         21   -1    0    0  503  502  0.00000000000E+00  0.00000000000E+00  0.12824985746E+03  0.12824985746E+03  0.00000000000E+00 0.  1.
         21   -1    0    0  501  503 -0.00000000000E+00 -0.00000000000E+00 -0.52976398987E+03  0.52976398987E+03  0.00000000000E+00 0.  1.
          6    2    1    2  501    0  0.40162993575E+02  0.17967243774E+03 -0.30202766114E+03  0.38618938059E+03  0.15500412463E+03 0.  0.
         24    2    3    3    0    0 -0.19752850118E+02  0.78623478782E+02 -0.10988059276E+03  0.16092645351E+03  0.85157220890E+02 0.  0.
         -6    2    1    2    0  502 -0.40162993575E+02 -0.17967243774E+03 -0.99486471264E+02  0.27182446674E+03  0.17348121459E+03 0.  0.
        -24    2    5    5    0    0 -0.83800994438E+02 -0.12528486494E+03 -0.29164050385E+02  0.17268004646E+03  0.79050316623E+02 0.  0.
          5    1    3    3  501    0  0.59915843693E+02  0.10104895896E+03 -0.19214706838E+03  0.22526292709E+03  0.47000000000E+01 0. -1.
        -13    1    4    4    0    0  0.26840450036E+02  0.42598951310E+02 -0.80895688425E+02  0.95284798455E+02  0.00000000000E+00 0.  1.
         14    1    4    4    0    0 -0.46593300154E+02  0.36024527472E+02 -0.28984904335E+02  0.65641655053E+02  0.00000000000E+00 0. -1.
         -5    1    5    5    0  502  0.43638000862E+02 -0.54387572806E+02 -0.70322420879E+02  0.99144420283E+02  0.47000000000E+01 0.  1.
         11    1    6    6    0    0 -0.46760693331E+02 -0.39069024949E+02  0.23225169101E+02  0.65210119085E+02  0.00000000000E+00 0. -1.
        -12    1    6    6    0    0 -0.37040301107E+02 -0.86215839987E+02 -0.52389219486E+02  0.10746992737E+03  0.00000000000E+00 0.  1.
</event>
<event>
12    1  0.9028446E-003  0.2150218E+03  0.7818608E-02  0.1138004E+00
         21   -1    0    0  501  502  0.00000000000E+00  0.00000000000E+00  0.14978709508E+04  0.14978709508E+04  0.00000000000E+00 0.  1.
         21   -1    0    0  502  503 -0.00000000000E+00 -0.00000000000E+00 -0.41079598534E+02  0.41079598534E+02  0.00000000000E+00 0. -1.
          6    2    1    2  501    0  0.56514652845E+02 -0.11219908321E+03  0.11193042283E+04  0.11397703035E+04  0.17450458174E+03 0.  0.
         24    2    3    3    0    0  0.17080156445E+02 -0.14234888846E+03  0.91675243258E+03  0.93117162134E+03  0.78042475261E+02 0.  0.
         -6    2    1    2    0  503 -0.56514652845E+02  0.11219908321E+03  0.33748712400E+03  0.39918024584E+03  0.17223463515E+03 0.  0.
        -24    2    5    5    0    0  0.16537112370E+01  0.90268448376E+01  0.70001134233E+02  0.10660732489E+03  0.79879560828E+02 0.  0.
          5    1    3    3  501    0  0.39434496399E+02  0.30149805248E+02  0.20255179567E+03  0.20859868214E+03  0.47000000000E+01 0. -1.
        -13    1    4    4    0    0  0.45793969250E+02 -0.84659473211E+02  0.62660661091E+03  0.63395595971E+03  0.00000000000E+00 0.  1.
         14    1    4    4    0    0 -0.28713812805E+02 -0.57689415252E+02  0.29014582167E+03  0.29721566162E+03  0.00000000000E+00 0. -1.
         -5    1    5    5    0  503 -0.58168364082E+02  0.10317223838E+03  0.26748598977E+03  0.29257292095E+03  0.47000000000E+01 0.  1.
         13    1    6    6    0    0  0.22562343649E+02 -0.16390093644E+02  0.68159665431E+02  0.73643971323E+02  0.00000000000E+00 0. -1.
        -14    1    6    6    0    0 -0.20908632412E+02  0.25416938482E+02  0.18414688016E+01  0.32963353568E+02  0.00000000000E+00 0.  1.
</event>
<event>
12    1  0.9028446E-003  0.1847888E+03  0.7818608E-02  0.1165016E+00
         21   -1    0    0  503  502  0.00000000000E+00  0.00000000000E+00  0.64098379919E+02  0.64098379919E+02  0.00000000000E+00 0. -1.
         21   -1    0    0  501  503 -0.00000000000E+00 -0.00000000000E+00 -0.56476578372E+03  0.56476578372E+03  0.00000000000E+00 0. -1.
          6    2    1    2  501    0  0.12705025288E+02 -0.41070169130E+02 -0.34215436402E+03  0.38540314005E+03  0.17209821347E+03 0.  0.
         24    2    3    3    0    0 -0.17168099777E+02 -0.22295484481E+02 -0.70608969930E+02  0.11153477123E+03  0.81624422088E+02 0.  0.
         -6    2    1    2    0  502 -0.12705025288E+02  0.41070169130E+02 -0.15851303978E+03  0.24346102359E+03  0.17971841800E+03 0.  0.
        -24    2    5    5    0    0  0.56364273030E+02  0.42999110776E+02 -0.54644189920E+02  0.11862065850E+03  0.77839696354E+02 0.  0.
          5    1    3    3  501    0  0.29873125065E+02 -0.18774684650E+02 -0.27154539409E+03  0.27386836882E+03  0.47000000000E+01 0. -1.
        -13    1    4    4    0    0 -0.65826219562E+01  0.31158609826E+02 -0.26177159520E+02  0.41224186573E+02  0.00000000000E+00 0.  1.
         14    1    4    4    0    0 -0.10585477820E+02 -0.53454094306E+02 -0.44431810410E+02  0.70310584659E+02  0.00000000000E+00 0. -1.
         -5    1    5    5    0  502 -0.69069298318E+02 -0.19289416454E+01 -0.10386884986E+03  0.12484036510E+03  0.47000000000E+01 0.  1.
         11    1    6    6    0    0 -0.27639031355E+01  0.17788252874E+02  0.15300816692E+02  0.23625750619E+02  0.00000000000E+00 0. -1.
        -12    1    6    6    0    0  0.59128176165E+02  0.25210857902E+02 -0.69945006612E+02  0.94994907878E+02  0.00000000000E+00 0.  1.
</event>
<event>
12    1  0.9028446E-003  0.2084334E+03  0.7818608E-02  0.1143805E+00
         21   -1    0    0  503  502  0.00000000000E+00  0.00000000000E+00  0.24235655645E+03  0.24235655645E+03  0.00000000000E+00 0.  1.
         21   -1    0    0  501  503 -0.00000000000E+00 -0.00000000000E+00 -0.17729412203E+03  0.17729412203E+03  0.00000000000E+00 0.  1.
          6    2    1    2  501    0  0.57105710480E+02  0.99124110303E+02  0.56419310190E+02  0.21593429438E+03  0.17423498361E+03 0.  0.
         24    2    3    3    0    0 -0.36521548990E+02  0.55946116611E+02  0.21562147250E+02  0.10699617129E+03  0.80743191488E+02 0.  0.
         -6    2    1    2    0  502 -0.57105710480E+02 -0.99124110303E+02  0.86431242324E+01  0.20371638410E+03  0.16834194409E+03 0.  0.
        -24    2    5    5    0    0  0.27848544353E+02 -0.79390549716E+02  0.26135740564E+02  0.11463933625E+03  0.73353252642E+02 0.  0.
          5    1    3    3  501    0  0.93627259469E+02  0.43177993691E+02  0.34857162940E+02  0.10893812309E+03  0.47000000000E+01 0. -1.
        -11    1    4    4    0    0 -0.15356762493E+02  0.74187553482E+02  0.87703923202E+01  0.76266264019E+02  0.00000000000E+00 0.  1.
         12    1    4    4    0    0 -0.21164786497E+02 -0.18241436871E+02  0.12791754930E+02  0.30729907269E+02  0.00000000000E+00 0. -1.
         -5    1    5    5    0  502 -0.84954254833E+02 -0.19733560587E+02 -0.17492616332E+02  0.89077047851E+02  0.47000000000E+01 0.  1.
         13    1    6    6    0    0 -0.10473255533E+01 -0.20558232248E+01 -0.19954924963E+02  0.20087865248E+02  0.00000000000E+00 0. -1.
        -14    1    6    6    0    0  0.28895869906E+02 -0.77334726491E+02  0.46090665527E+02  0.94551470998E+02  0.00000000000E+00 0.  1.
</event>
<event>
12    1  0.9028446E-003  0.2417294E+03  0.7818608E-02  0.1118652E+00
         21   -1    0    0  503  502  0.00000000000E+00  0.00000000000E+00  0.37756210609E+02  0.37756210609E+02  0.00000000000E+00 0.  1.
         21   -1    0    0  501  503 -0.00000000000E+00 -0.00000000000E+00 -0.19033903071E+04  0.19033903071E+04  0.00000000000E+00 0.  1.
          6    2    1    2  501    0  0.11346813727E+03 -0.12570876604E+03 -0.13524933398E+04  0.13739194676E+04  0.17244928886E+03 0.  0.
         24    2    3    3    0    0  0.14293317960E+02 -0.89743906540E+02 -0.97211180220E+03  0.97915204234E+03  0.74020931793E+02 0.  0.
         -6    2    1    2    0  502 -0.11346813727E+03  0.12570876604E+03 -0.51314075667E+03  0.56722705008E+03  0.17249747289E+03 0.  0.
        -24    2    5    5    0    0 -0.44694623432E+02 -0.27045452830E+01 -0.15132038984E+03  0.17715546360E+03  0.80506359824E+02 0.  0.
          5    1    3    3  501    0  0.99174819307E+02 -0.35964859500E+02 -0.38038153757E+03  0.39476742524E+03  0.47000000000E+01 0. -1.
        -11    1    4    4    0    0  0.27573444731E+02 -0.91162912926E+02 -0.66892795265E+03  0.67567416510E+03  0.00000000000E+00 0.  1.
         12    1    4    4    0    0 -0.13280126771E+02  0.14190063857E+01 -0.30318384956E+03  0.30347787725E+03  0.00000000000E+00 0. -1.
         -5    1    5    5    0  502 -0.68773513835E+02  0.12841331132E+03 -0.36182036683E+03  0.39007158648E+03  0.47000000000E+01 0.  1.
         11    1    6    6    0    0 -0.11276940058E+02 -0.36423823866E+02 -0.10108518998E+03  0.10803740072E+03  0.00000000000E+00 0. -1.
        -12    1    6    6    0    0 -0.33417683374E+02  0.33719278583E+02 -0.50235199862E+02  0.69118062874E+02  0.00000000000E+00 0.  1.
</event>
<event>
12    1  0.9028446E-003  0.2075636E+03  0.7818608E-02  0.1143724E+00
         21   -1    0    0  501  502  0.00000000000E+00  0.00000000000E+00  0.35668689475E+03  0.35668689475E+03  0.00000000000E+00 0. -1.
         21   -1    0    0  502  503 -0.00000000000E+00 -0.00000000000E+00 -0.13588501492E+03  0.13588501492E+03  0.00000000000E+00 0.  1.
          6    2    1    2  501    0 -0.10961792295E+03 -0.33917576481E+02  0.26388602072E+02  0.20817928471E+03  0.17168507575E+03 0.  0.
         24    2    3    3    0    0 -0.66289427635E+02 -0.86153685144E+02 -0.19190163876E+00  0.13514105683E+03  0.80288995100E+02 0.  0.
         -6    2    1    2    0  503  0.10961792295E+03  0.33917576481E+02  0.19441327776E+03  0.28439262496E+03  0.17296286172E+03 0.  0.
        -24    2    5    5    0    0  0.54038252457E+02 -0.49206000271E+02  0.97206014579E+02  0.14485778773E+03  0.78698196958E+02 0.  0.
          5    1    3    3  501    0 -0.43328495318E+02  0.52236108663E+02  0.26580503711E+02  0.73038227883E+02  0.47000000000E+01 0. -1.
        -13    1    4    4    0    0 -0.11512047956E+02  0.15370127273E+02 -0.44176496614E+01  0.19704915353E+02  0.00000000000E+00 0.  1.
         14    1    4    4    0    0 -0.54777379679E+02 -0.10152381242E+03  0.42257480226E+01  0.11543614148E+03  0.00000000000E+00 0. -1.
         -5    1    5    5    0  503  0.55579670495E+02  0.83123576752E+02  0.97207263181E+02  0.13953483723E+03  0.47000000000E+01 0.  1.
         13    1    6    6    0    0  0.43017102602E+02  0.29158791174E+00  0.80838656837E+02  0.91572073139E+02  0.00000000000E+00 0. -1.
        -14    1    6    6    0    0  0.11021149855E+02 -0.49497588183E+02  0.16367357742E+02  0.53285714591E+02  0.00000000000E+00 0.  1.
</event>
<event>
12    1  0.9028446E-003  0.1832955E+03  0.7818608E-02  0.1164945E+00
         21   -1    0    0  501  502  0.00000000000E+00  0.00000000000E+00  0.32980502461E+03  0.32980502461E+03  0.00000000000E+00 0.  1.
         21   -1    0    0  502  503 -0.00000000000E+00 -0.00000000000E+00 -0.10183573178E+03  0.10183573178E+03  0.00000000000E+00 0. -1.
          6    2    1    2  501    0  0.59080805424E+02 -0.16833102613E+02  0.13088043131E+03  0.22421973208E+03  0.17137942129E+03 0.  0.
         24    2    3    3    0    0  0.63706652496E+02 -0.68652671352E+02  0.62716117282E+02  0.13834115575E+03  0.80207463190E+02 0.  0.
         -6    2    1    2    0  503 -0.59080805424E+02  0.16833102613E+02  0.97088861513E+02  0.20742102431E+03  0.17269435249E+03 0.  0.
        -24    2    5    5    0    0 -0.99639869270E+02  0.15812562561E+02  0.10592299905E+03  0.16563333296E+03  0.77695421855E+02 0.  0.
          5    1    3    3  501    0 -0.46258470720E+01  0.51819568739E+02  0.68164314030E+02  0.85878576331E+02  0.47000000000E+01 0. -1.
        -13    1    4    4    0    0  0.50891845166E+02 -0.12333482247E+02  0.61223576679E+02  0.80563149331E+02  0.00000000000E+00 0.  1.
         14    1    4    4    0    0  0.12814807330E+02 -0.56319189106E+02  0.14925406030E+01  0.57778006420E+02  0.00000000000E+00 0. -1.
         -5    1    5    5    0  503  0.40559063846E+02  0.10205400520E+01 -0.88341375389E+01  0.41787691347E+02  0.47000000000E+01 0.  1.
         11    1    6    6    0    0 -0.36496591982E+02  0.51062941546E+01 -0.53572549996E+01  0.37239436723E+02  0.00000000000E+00 0. -1.
        -12    1    6    6    0    0 -0.63143277288E+02  0.10706268407E+02  0.11128025405E+03  0.12839389624E+03  0.00000000000E+00 0.  1.
</event>
<event>
12    1  0.9028446E-003  0.2026725E+03  0.7818608E-02  0.1147690E+00
         21   -1    0    0  501  502  0.00000000000E+00  0.00000000000E+00  0.13345843387E+03  0.13345843387E+03  0.00000000000E+00 0. -1.
         21   -1    0    0  502  503 -0.00000000000E+00 -0.00000000000E+00 -0.31722774783E+03  0.31722774783E+03  0.00000000000E+00 0. -1.
          6    2    1    2  501    0  0.84098247855E+02  0.63445441429E+02 -0.50099133028E+02  0.20790260457E+03  0.17209221518E+03 0.  0.
         24    2    3    3    0    0  0.51831273809E+01  0.62563275358E+01 -0.81338646519E+02  0.10545169832E+03  0.66618907359E+02 0.  0.
         -6    2    1    2    0  503 -0.84098247855E+02 -0.63445441429E+02 -0.13367018094E+03  0.24278357713E+03  0.17314245211E+03 0.  0.
        -24    2    5    5    0    0 -0.91474180246E+02  0.59716770291E+01 -0.45732843308E+02  0.13040828597E+03  0.80694742795E+02 0.  0.
          5    1    3    3  501    0  0.78915120474E+02  0.57189113894E+02  0.31239513490E+02  0.10245090625E+03  0.47000000000E+01 0. -1.
        -13    1    4    4    0    0  0.18614684061E+02  0.31483076457E+02 -0.32818429011E+02  0.49140002530E+02  0.00000000000E+00 0.  1.
         14    1    4    4    0    0 -0.13431556680E+02 -0.25226748921E+02 -0.48520217507E+02  0.56311695792E+02  0.00000000000E+00 0. -1.
         -5    1    5    5    0  503  0.73759323908E+01 -0.69417118459E+02 -0.87937337628E+02  0.11237529116E+03  0.47000000000E+01 0.  1.
         11    1    6    6    0    0 -0.32173092089E+02 -0.30392648124E+02 -0.41572091173E+02  0.60721163354E+02  0.00000000000E+00 0. -1.
        -12    1    6    6    0    0 -0.59301088157E+02  0.36364325153E+02 -0.41607521352E+01  0.69687122618E+02  0.00000000000E+00 0.  1.
</event>
<event>
12    1  0.9028446E-003  0.2295057E+03  0.7818608E-02  0.1126990E+00
         21   -1    0    0  503  502  0.00000000000E+00  0.00000000000E+00  0.16618911702E+04  0.16618911702E+04  0.00000000000E+00 0.  1.
         21   -1    0    0  501  503 -0.00000000000E+00 -0.00000000000E+00 -0.36667307177E+02  0.36667307177E+02  0.00000000000E+00 0.  1.
          6    2    1    2  501    0  0.13326185345E+03  0.74915894907E+02  0.49980540730E+03  0.54997693439E+03  0.17116679089E+03 0.  0.
         24    2    3    3    0    0  0.14874766183E+03  0.18794127374E+02  0.39901463062E+03  0.43348515908E+03  0.78851896420E+02 0.  0.
         -6    2    1    2    0  502 -0.13326185345E+03 -0.74915894907E+02  0.11254184557E+04  0.11485815430E+04  0.17117753213E+03 0.  0.
        -24    2    5    5    0    0 -0.98808312650E+02  0.11940847736E+02  0.79175942562E+03  0.80205365293E+03  0.80631306726E+02 0.  0.
          5    1    3    3  501    0 -0.15485808380E+02  0.56121767532E+02  0.10079077668E+03  0.11649177531E+03  0.47000000000E+01 0. -1.
        -13    1    4    4    0    0  0.28127814178E+02 -0.12795477767E+02  0.26673570994E+02  0.40821288212E+02  0.00000000000E+00 0.  1.
         14    1    4    4    0    0  0.12061984765E+03  0.31589605142E+02  0.37234105963E+03  0.39266387087E+03  0.00000000000E+00 0. -1.
         -5    1    5    5    0  502 -0.34453540797E+02 -0.86856742643E+02  0.33365903007E+03  0.34652789002E+03  0.47000000000E+01 0.  1.
         13    1    6    6    0    0  0.19144114820E+01  0.23141843720E+02  0.87027001569E+02  0.90071687584E+02  0.00000000000E+00 0. -1.
        -14    1    6    6    0    0 -0.10072272413E+03 -0.11200995983E+02  0.70473242405E+03  0.71198196535E+03  0.00000000000E+00 0.  1.
</event>
<event>
12    1  0.9028446E-003  0.2005918E+03  0.7818608E-02  0.1149509E+00
         21   -1    0    0  503  502  0.00000000000E+00  0.00000000000E+00  0.70544999618E+03  0.70544999618E+03  0.00000000000E+00 0.  1.
         21   -1    0    0  501  503 -0.00000000000E+00 -0.00000000000E+00 -0.56691702607E+02  0.56691702607E+02  0.00000000000E+00 0. -1.
          6    2    1    2  501    0 -0.13496899022E+02  0.10296944355E+03  0.33162409987E+03  0.38757140779E+03  0.17161637432E+03 0.  0.
         24    2    3    3    0    0  0.34871102929E+02  0.76156510619E+02  0.10684660383E+03  0.15604298683E+03  0.76924697341E+02 0.  0.
         -6    2    1    2    0  502  0.13496899022E+02 -0.10296944355E+03  0.31713419370E+03  0.37457029099E+03  0.17012916708E+03 0.  0.
        -24    2    5    5    0    0 -0.35320494916E+02 -0.10897973799E+02  0.95155022016E+02  0.12930077361E+03  0.79359363962E+02 0.  0.
          5    1    3    3  501    0 -0.48368001951E+02  0.26812932930E+02  0.22477749604E+03  0.23152842096E+03  0.47000000000E+01 0. -1.
        -11    1    4    4    0    0  0.30168474580E+02  0.43582965547E+02  0.11086752109E+03  0.12288701712E+03  0.00000000000E+00 0.  1.
         12    1    4    4    0    0  0.47026283492E+01  0.32573545072E+02 -0.40209172609E+01  0.33155969712E+02  0.00000000000E+00 0. -1.
         -5    1    5    5    0  502  0.48817393938E+02 -0.92071469749E+02  0.22197917169E+03  0.24526951738E+03  0.47000000000E+01 0.  1.
         13    1    6    6    0    0 -0.43100138916E+02 -0.30680406334E+02  0.94178927115E+02  0.10802119986E+03  0.00000000000E+00 0. -1.
        -14    1    6    6    0    0  0.77796440004E+01  0.19782432535E+02  0.97609490105E+00  0.21279573751E+02  0.00000000000E+00 0.  1.
</event>
<event>
12    1  0.9028446E-003  0.1839875E+03  0.7818608E-02  0.1165658E+00
         21   -1    0    0  503  502  0.00000000000E+00  0.00000000000E+00  0.18005123013E+03  0.18005123013E+03  0.00000000000E+00 0.  1.
         21   -1    0    0  501  503 -0.00000000000E+00 -0.00000000000E+00 -0.24747614834E+03  0.24747614834E+03  0.00000000000E+00 0.  1.
          6    2    1    2  501    0 -0.32466831481E+02  0.30680193168E+02  0.77525264935E+02  0.19330109632E+03  0.17134695135E+03 0.  0.
         24    2    3    3    0    0  0.30227102428E+02  0.59201269713E+02  0.69443102880E+02  0.12379287738E+03  0.77999127535E+02 0.  0.
         -6    2    1    2    0  502  0.32466831481E+02 -0.30680193168E+02 -0.14495018315E+03  0.23422628215E+03  0.17848256569E+03 0.  0.
        -24    2    5    5    0    0  0.87055640233E+02  0.22491603964E+01 -0.10932602984E+03  0.16104533746E+03  0.79997979335E+02 0.  0.
          5    1    3    3  501    0 -0.62693933909E+02 -0.28521076545E+02  0.80821620546E+01  0.69508218937E+02  0.47000000000E+01 0. -1.
        -13    1    4    4    0    0 -0.16740964578E+02 -0.50870158000E+01  0.30497763235E+02  0.35160363864E+02  0.00000000000E+00 0.  1.
         14    1    4    4    0    0  0.46968067006E+02  0.64288285513E+02  0.38945339646E+02  0.88632513519E+02  0.00000000000E+00 0. -1.
         -5    1    5    5    0  502 -0.54588808752E+02 -0.32929353565E+02 -0.35624153304E+02  0.73180944690E+02  0.47000000000E+01 0.  1.
         13    1    6    6    0    0  0.26185224725E+02 -0.30987971690E+02 -0.13503740898E+02  0.42758290443E+02  0.00000000000E+00 0. -1.
        -14    1    6    6    0    0  0.60870415507E+02  0.33237132087E+02 -0.95822288945E+02  0.11828704702E+03  0.00000000000E+00 0.  1.
</event>
<event>
12    1  0.9028446E-003  0.2019313E+03  0.7818608E-02  0.1148699E+00
         21   -1    0    0  503  502  0.00000000000E+00  0.00000000000E+00  0.47221969887E+03  0.47221969887E+03  0.00000000000E+00 0. -1.
         21   -1    0    0  501  503 -0.00000000000E+00 -0.00000000000E+00 -0.97609394019E+02  0.97609394019E+02  0.00000000000E+00 0.  1.
          6    2    1    2  501    0  0.95721300466E+02 -0.27648375208E+02  0.84483567725E+02  0.21634672531E+03  0.17245704486E+03 0.  0.
         24    2    3    3    0    0  0.95089312334E+01  0.36325249151E+02  0.15630659168E+02  0.88722236128E+02  0.78850327700E+02 0.  0.
         -6    2    1    2    0  502 -0.95721300466E+02  0.27648375208E+02  0.29012673713E+03  0.35348236758E+03  0.17563957578E+03 0.  0.
        -24    2    5    5    0    0 -0.36112431518E+02 -0.38221273560E+02  0.78534908472E+02  0.12394975587E+03  0.80192497579E+02 0.  0.
          5    1    3    3  501    0  0.86212369233E+02 -0.63973624359E+02  0.68852908557E+02  0.12762448918E+03  0.47000000000E+01 0. -1.
        -13    1    4    4    0    0 -0.33873238057E+02  0.17141389184E+02 -0.22486819979E+01  0.38029988830E+02  0.00000000000E+00 0.  1.
         14    1    4    4    0    0  0.43382169291E+02  0.19183859966E+02  0.17879341166E+02  0.50692247298E+02  0.00000000000E+00 0. -1.
         -5    1    5    5    0  502 -0.59608868948E+02  0.65869648768E+02  0.21159182866E+03  0.22953261171E+03  0.47000000000E+01 0.  1.
         13    1    6    6    0    0 -0.16123952958E+02 -0.48927554320E+02  0.85852887385E+02  0.10012295293E+03  0.00000000000E+00 0. -1.
        -14    1    6    6    0    0 -0.19988478560E+02  0.10706280761E+02 -0.73179789132E+01  0.23826802938E+02  0.00000000000E+00 0.  1.
</event>
<event>
12    1  0.9028446E-003  0.1809597E+03  0.7818608E-02  0.1167431E+00
         21   -1    0    0  503  502  0.00000000000E+00  0.00000000000E+00  0.16660706055E+03  0.16660706055E+03  0.00000000000E+00 0.  1.
         21   -1    0    0  501  503 -0.00000000000E+00 -0.00000000000E+00 -0.19461863820E+03  0.19461863820E+03  0.00000000000E+00 0.  1.
          6    2    1    2  501    0 -0.25045768361E+02  0.41931005219E+02 -0.23503367056E+02  0.18020985984E+03  0.17186531241E+03 0.  0.
         24    2    3    3    0    0  0.25134455713E+02 -0.43609982741E+01 -0.59137281496E+02  0.10305501337E+03  0.80450969841E+02 0.  0.
         -6    2    1    2    0  502  0.25045768361E+02 -0.41931005219E+02 -0.45082105974E+01  0.18101583890E+03  0.17424382417E+03 0.  0.
        -24    2    5    5    0    0 -0.23247164873E+02 -0.10282089990E+02  0.53226450797E+02  0.99228050318E+02  0.79793476276E+02 0.  0.
          5    1    3    3  501    0 -0.50180224074E+02  0.46292003493E+02  0.35633914441E+02  0.77154846471E+02  0.47000000000E+01 0. -1.
        -13    1    4    4    0    0  0.47344630968E+02  0.16046388184E+02 -0.20478800453E+02  0.54022050342E+02  0.00000000000E+00 0.  1.
         14    1    4    4    0    0 -0.22210175254E+02 -0.20407386458E+02 -0.38658481044E+02  0.49032963030E+02  0.00000000000E+00 0. -1.
         -5    1    5    5    0  502  0.48292933234E+02 -0.31648915230E+02 -0.57734661395E+02  0.81787788586E+02  0.47000000000E+01 0.  1.
         13    1    6    6    0    0  0.58387677036E+00  0.16956853214E+02  0.60047587555E+02  0.62398626221E+02  0.00000000000E+00 0. -1.
        -14    1    6    6    0    0 -0.23831041643E+02 -0.27238943203E+02 -0.68211367583E+01  0.36829424097E+02  0.00000000000E+00 0.  1.
</event>
<event>
12    1  0.9028446E-003  0.1998110E+03  0.7818608E-02  0.1153080E+00
         21   -1    0    0  503  502  0.00000000000E+00  0.00000000000E+00  0.22987338631E+03  0.22987338631E+03  0.00000000000E+00 0. -1.
         21   -1    0    0  501  503 -0.00000000000E+00 -0.00000000000E+00 -0.17744449889E+03  0.17744449889E+03  0.00000000000E+00 0.  1.
          6    2    1    2  501    0 -0.60256434680E+02  0.74212484955E+02 -0.34224803177E+02  0.20272088561E+03  0.17545965196E+03 0.  0.
         24    2    3    3    0    0 -0.64464987890E+01  0.24923642608E+02 -0.80570025887E+02  0.11614797501E+03  0.79599483167E+02 0.  0.
         -6    2    1    2    0  502  0.60256434680E+02 -0.74212484955E+02  0.86653690590E+02  0.20459699959E+03  0.15878519864E+03 0.  0.
        -24    2    5    5    0    0  0.41794644352E+02 -0.10273855255E+03  0.32045518610E+02  0.14010888688E+03  0.79382507155E+02 0.  0.
          5    1    3    3  501    0 -0.53809935891E+02  0.49288842347E+02  0.46345222710E+02  0.86572910593E+02  0.47000000000E+01 0. -1.
        -11    1    4    4    0    0 -0.18293528150E+02  0.29009814211E+02 -0.92618035084E+02  0.98763975799E+02  0.00000000000E+00 0.  1.
         12    1    4    4    0    0  0.11847029361E+02 -0.40861716025E+01  0.12048009197E+02  0.17383999213E+02  0.00000000000E+00 0. -1.
         -5    1    5    5    0  502  0.18461790328E+02  0.28526067596E+02  0.54608171979E+02  0.64488112715E+02  0.47000000000E+01 0.  1.
         13    1    6    6    0    0 -0.17524694628E+02 -0.50917624161E+02  0.29277685693E+02  0.61293574309E+02  0.00000000000E+00 0. -1.
        -14    1    6    6    0    0  0.59319338980E+02 -0.51820928390E+02  0.27678329172E+01  0.78815312569E+02  0.00000000000E+00 0.  1.
</event>
<event>
12    1  0.9028446E-003  0.1779323E+03  0.7818608E-02  0.1170016E+00
         21   -1    0    0  503  502  0.00000000000E+00  0.00000000000E+00  0.98042897066E+02  0.98042897066E+02  0.00000000000E+00 0.  1.
         21   -1    0    0  501  503 -0.00000000000E+00 -0.00000000000E+00 -0.34742204092E+03  0.34742204092E+03  0.00000000000E+00 0.  1.
          6    2    1    2  501    0 -0.41598376304E+02 -0.21689668831E+02 -0.18582664283E+03  0.25727696189E+03  0.17163632276E+03 0.  0.
         24    2    3    3    0    0 -0.88426573380E+02  0.45307510993E+01 -0.15458393118E+03  0.19499865512E+03  0.79300045001E+02 0.  0.
         -6    2    1    2    0  502  0.41598376304E+02  0.21689668831E+02 -0.63552501026E+02  0.18818797609E+03  0.17080669575E+03 0.  0.
        -24    2    5    5    0    0  0.65734543880E+02  0.60727744153E+02 -0.14750437139E+02  0.12102952652E+03  0.80135396199E+02 0.  0.
          5    1    3    3  501    0  0.46828197076E+02 -0.26220419931E+02 -0.31242711655E+02  0.62278306771E+02  0.47000000000E+01 0. -1.
        -11    1    4    4    0    0 -0.14342211900E+02 -0.27689625325E+02 -0.76636879530E+02  0.82738296434E+02  0.00000000000E+00 0.  1.
         12    1    4    4    0    0 -0.74084361479E+02  0.32220376425E+02 -0.77947051646E+02  0.11226035869E+03  0.00000000000E+00 0. -1.
         -5    1    5    5    0  502 -0.24136167576E+02 -0.39038075322E+02 -0.48802063887E+02  0.67158449577E+02  0.47000000000E+01 0.  1.
         11    1    6    6    0    0  0.16475050173E+02  0.51172226213E+02 -0.37893495674E+02  0.65771886305E+02  0.00000000000E+00 0. -1.
        -12    1    6    6    0    0  0.49259493707E+02  0.95555179396E+01  0.23143058534E+02  0.55257640211E+02  0.00000000000E+00 0.  1.
</event>
<event>
12    1  0.9028446E-003  0.2306023E+03  0.7818608E-02  0.1126367E+00
         21   -1    0    0  503  502  0.00000000000E+00  0.00000000000E+00  0.18322764339E+03  0.18322764339E+03  0.00000000000E+00 0. -1.
         21   -1    0    0  501  503 -0.00000000000E+00 -0.00000000000E+00 -0.29033139228E+03  0.29033139228E+03  0.00000000000E+00 0.  1.
          6    2    1    2  501    0  0.14254045189E+03 -0.55116607763E+02 -0.68757524304E+02  0.24063466115E+03  0.17268995952E+03 0.  0.
         24    2    3    3    0    0  0.14792260662E+03  0.89352780614E+01 -0.57010819290E+02  0.17512369454E+03  0.73872444996E+02 0.  0.
         -6    2    1    2    0  502 -0.14254045189E+03  0.55116607763E+02 -0.38346224587E+02  0.23292437452E+03  0.17154506821E+03 0.  0.
        -24    2    5    5    0    0 -0.14848137551E+03  0.84038249092E+02 -0.99497513386E+01  0.19169082503E+03  0.86817214092E+02 0.  0.
          5    1    3    3  501    0 -0.53821547294E+01 -0.64051885824E+02 -0.11746705013E+02  0.65510966607E+02  0.47000000000E+01 0. -1.
        -11    1    4    4    0    0  0.11383094852E+03  0.36366005294E+02 -0.54372109613E+02  0.13128708042E+03  0.00000000000E+00 0.  1.
         12    1    4    4    0    0  0.34091658106E+02 -0.27430727233E+02 -0.26387096772E+01  0.43836614122E+02  0.00000000000E+00 0. -1.
         -5    1    5    5    0  502  0.59409236217E+01 -0.28921641329E+02 -0.28396473248E+02  0.41233549491E+02  0.47000000000E+01 0.  1.
         13    1    6    6    0    0 -0.28091335299E+02  0.46097873307E+02  0.26736199494E+02  0.60240861595E+02  0.00000000000E+00 0. -1.
        -14    1    6    6    0    0 -0.12039004022E+03  0.37940375785E+02 -0.36685950832E+02  0.13144996343E+03  0.00000000000E+00 0.  1.
</event>
<event>
12    1  0.9028446E-003  0.1797156E+03  0.7818608E-02  0.1168203E+00
         21   -1    0    0  501  502  0.00000000000E+00  0.00000000000E+00  0.62999284624E+03  0.62999284624E+03  0.00000000000E+00 0.  1.
         21   -1    0    0  502  503 -0.00000000000E+00 -0.00000000000E+00 -0.11191230879E+03  0.11191230879E+03  0.00000000000E+00 0.  1.
          6    2    1    2  501    0  0.40056559519E+02 -0.35997688031E+02  0.53227274063E+03  0.56163008550E+03  0.17092021826E+03 0.  0.
         24    2    3    3    0    0 -0.29202863582E+02 -0.20965104476E+02  0.41931940375E+03  0.42820073127E+03  0.78960503111E+02 0.  0.
         -6    2    1    2    0  503 -0.40056559519E+02  0.35997688031E+02 -0.14192203179E+02  0.18027506953E+03  0.17145646841E+03 0.  0.
        -24    2    5    5    0    0 -0.13599805577E+02  0.76243674313E+02  0.29126200239E+02  0.11532683387E+03  0.80336109474E+02 0.  0.
          5    1    3    3  501    0  0.69259423101E+02 -0.15032583555E+02  0.11295333688E+03  0.13342935422E+03  0.47000000000E+01 0. -1.
        -13    1    4    4    0    0 -0.22256213983E+00  0.25436447359E+02  0.22149849394E+03  0.22295435678E+03  0.00000000000E+00 0.  1.
         14    1    4    4    0    0 -0.28980301442E+02 -0.46401551835E+02  0.19782090981E+03  0.20524637450E+03  0.00000000000E+00 0. -1.
         -5    1    5    5    0  503 -0.26456753942E+02 -0.40245986282E+02 -0.43318403418E+02  0.64948235662E+02  0.47000000000E+01 0.  1.
         11    1    6    6    0    0  0.20660677462E+01  0.64336244488E+01  0.42078542083E+02  0.42617647323E+02  0.00000000000E+00 0. -1.
        -12    1    6    6    0    0 -0.15665873323E+02  0.69810049864E+02 -0.12952341844E+02  0.72709186547E+02  0.00000000000E+00 0.  1.
</event>
<event>
12    1  0.9028446E-003  0.2415714E+03  0.7818608E-02  0.1118849E+00
         21   -1    0    0  503  502  0.00000000000E+00  0.00000000000E+00  0.12133744836E+03  0.12133744836E+03  0.00000000000E+00 0. -1.
         21   -1    0    0  501  503 -0.00000000000E+00 -0.00000000000E+00 -0.49773849935E+03  0.49773849935E+03  0.00000000000E+00 0.  1.
          6    2    1    2  501    0 -0.11859499955E+03 -0.12229531028E+03 -0.24680308977E+03  0.34493664575E+03  0.17043652082E+03 0.  0.
         24    2    3    3    0    0 -0.56724911590E+02 -0.14444924869E+03 -0.16352655787E+03  0.23874919105E+03  0.78593511538E+02 0.  0.
         -6    2    1    2    0  502  0.11859499955E+03  0.12229531028E+03 -0.12959796122E+03  0.27413930196E+03  0.17127699348E+03 0.  0.
        -24    2    5    5    0    0  0.12574234141E+03  0.66531090985E+02 -0.39804131740E+02  0.16809330034E+03  0.80208891171E+02 0.  0.
          5    1    3    3  501    0 -0.61870087960E+02  0.22153938409E+02 -0.83276531898E+02  0.10618745470E+03  0.47000000000E+01 0. -1.
        -13    1    4    4    0    0 -0.49383425263E+02 -0.10584775978E+03 -0.67284714347E+02  0.13479504340E+03  0.00000000000E+00 0.  1.
         14    1    4    4    0    0 -0.73414863269E+01 -0.38601488902E+02 -0.96241843527E+02  0.10395414764E+03  0.00000000000E+00 0. -1.
         -5    1    5    5    0  502 -0.71473418644E+01  0.55764219291E+02 -0.89793829477E+02  0.10604600163E+03  0.47000000000E+01 0.  1.
         13    1    6    6    0    0 -0.69313822576E+01  0.17232869137E+02 -0.16108969016E+02  0.24586881085E+02  0.00000000000E+00 0. -1.
        -14    1    6    6    0    0  0.13267372367E+03  0.49298221847E+02 -0.23695162724E+02  0.14350641925E+03  0.00000000000E+00 0.  1.
</event>
<event>
12    1  0.9028446E-003  0.1774523E+03  0.7818608E-02  0.1170325E+00
         21   -1    0    0  501  502  0.00000000000E+00  0.00000000000E+00  0.14611433591E+03  0.14611433591E+03  0.00000000000E+00 0.  1.
         21   -1    0    0  502  503 -0.00000000000E+00 -0.00000000000E+00 -0.22900514454E+03  0.22900514454E+03  0.00000000000E+00 0. -1.
          6    2    1    2  501    0 -0.43293250561E+02 -0.92594789364E+01  0.43456947948E+01  0.17750555346E+03  0.17184089429E+03 0.  0.
         24    2    3    3    0    0 -0.92956796795E+02  0.18278283680E+00  0.20649742524E+02  0.12418073649E+03  0.79708493712E+02 0.  0.
         -6    2    1    2    0  503  0.43293250561E+02  0.92594789364E+01 -0.87236503431E+02  0.19761392699E+03  0.17170035852E+03 0.  0.
        -24    2    5    5    0    0 -0.18034471084E+02 -0.38194507935E+02 -0.15023507105E+02  0.91548960337E+02  0.79821324152E+02 0.  0.
          5    1    3    3  501    0  0.49663546235E+02 -0.94422617732E+01 -0.16304047729E+02  0.53324816965E+02  0.47000000000E+01 0. -1.
        -11    1    4    4    0    0 -0.57001239474E+02 -0.17814243914E+02 -0.23760070978E+02  0.64273085819E+02  0.00000000000E+00 0.  1.
         12    1    4    4    0    0 -0.35955557321E+02  0.17997026751E+02  0.44409813502E+02  0.59907650675E+02  0.00000000000E+00 0. -1.
         -5    1    5    5    0  503  0.61327721645E+02  0.47453986872E+02 -0.72212996326E+02  0.10606496665E+03  0.47000000000E+01 0.  1.
         13    1    6    6    0    0  0.23901547128E+02 -0.25501439050E+02 -0.29151292387E+02  0.45512692698E+02  0.00000000000E+00 0. -1.
        -14    1    6    6    0    0 -0.41936018212E+02 -0.12693068885E+02  0.14127785282E+02  0.46036267640E+02  0.00000000000E+00 0.  1.
</event>
<event>
12    1  0.9028446E-003  0.1900094E+03  0.7818608E-02  0.1158469E+00
         21   -1    0    0  501  502  0.00000000000E+00  0.00000000000E+00  0.14183999508E+03  0.14183999508E+03  0.00000000000E+00 0. -1.
         21   -1    0    0  502  503 -0.00000000000E+00 -0.00000000000E+00 -0.27096784327E+03  0.27096784327E+03  0.00000000000E+00 0. -1.
          6    2    1    2  501    0 -0.45911459381E+02 -0.64914766686E+02 -0.13581512832E+02  0.19042407749E+03  0.17249661667E+03 0.  0.
         24    2    3    3    0    0 -0.45354621203E+01 -0.21001563244E+02 -0.69251518587E+02  0.10819523750E+03  0.80304424011E+02 0.  0.
         -6    2    1    2    0  503  0.45911459381E+02  0.64914766686E+02 -0.11554633536E+03  0.22238376085E+03  0.17257402018E+03 0.  0.
        -24    2    5    5    0    0 -0.26193382170E+02  0.33173335064E+01 -0.81227051788E+02  0.12142210885E+03  0.86304093793E+02 0.  0.
          5    1    3    3  501    0 -0.41375997260E+02 -0.43913203442E+02  0.55670005755E+02  0.82228839993E+02  0.47000000000E+01 0. -1.
        -11    1    4    4    0    0  0.87438593561E+01  0.24879088669E+02 -0.50329960712E+02  0.56820146733E+02  0.00000000000E+00 0.  1.
         12    1    4    4    0    0 -0.13279321476E+02 -0.45880651914E+02 -0.18921557875E+02  0.51375090767E+02  0.00000000000E+00 0. -1.
         -5    1    5    5    0  503  0.72104841551E+02  0.61597433180E+02 -0.34319283572E+02  0.10096165200E+03  0.47000000000E+01 0.  1.
         13    1    6    6    0    0 -0.21867145080E+02  0.17320255390E+02 -0.96383156069E+02  0.10033880632E+03  0.00000000000E+00 0. -1.
        -14    1    6    6    0    0 -0.43262370905E+01 -0.14002921883E+02  0.15156104281E+02  0.21083302531E+02  0.00000000000E+00 0.  1.
</event>
<event>
12    1  0.9028446E-003  0.3228861E+03  0.7818608E-02  0.1074483E+00
         21   -1    0    0  503  502  0.00000000000E+00  0.00000000000E+00  0.45869100061E+03  0.45869100061E+03  0.00000000000E+00 0.  1.
         21   -1    0    0  501  503 -0.00000000000E+00 -0.00000000000E+00 -0.22639290844E+03  0.22639290844E+03  0.00000000000E+00 0. -1.
          6    2    1    2  501    0  0.16039725797E+03 -0.21913081926E+03  0.11045888411E+03  0.33997488735E+03  0.17215156879E+03 0.  0.
         24    2    3    3    0    0  0.97830330783E+02 -0.50095768113E+02  0.18126178167E+02  0.13740418986E+03  0.80442485376E+02 0.  0.
         -6    2    1    2    0  502 -0.16039725797E+03  0.21913081926E+03  0.12183920806E+03  0.34510902169E+03  0.17467068420E+03 0.  0.
        -24    2    5    5    0    0 -0.30195440571E+02  0.66036437151E+02 -0.32659781949E+01  0.10833106513E+03  0.80326691676E+02 0.  0.
          5    1    3    3  501    0  0.62566927187E+02 -0.16903505114E+03  0.92332705946E+02  0.20257069749E+03  0.47000000000E+01 0. -1.
        -11    1    4    4    0    0  0.85583184497E+02 -0.53785220606E+02  0.42677305942E+02  0.10972093632E+03  0.00000000000E+00 0.  1.
         12    1    4    4    0    0  0.12247146287E+02  0.36894524929E+01 -0.24551127775E+02  0.27683253546E+02  0.00000000000E+00 0. -1.
         -5    1    5    5    0  502 -0.13020181740E+03  0.15309438211E+03  0.12510518625E+03  0.23677795656E+03  0.47000000000E+01 0.  1.
         11    1    6    6    0    0 -0.54427837984E+02  0.25111113315E+02  0.46250494935E+01  0.60119453111E+02  0.00000000000E+00 0. -1.
        -12    1    6    6    0    0  0.24232397413E+02  0.40925323836E+02 -0.78910276884E+01  0.48211612019E+02  0.00000000000E+00 0.  1.
</event>
<event>
12    1  0.9028446E-003  0.2067352E+03  0.7818608E-02  0.1144501E+00
         21   -1    0    0  501  502  0.00000000000E+00  0.00000000000E+00  0.11221909850E+04  0.11221909850E+04  0.00000000000E+00 0.  1.
         21   -1    0    0  502  503 -0.00000000000E+00 -0.00000000000E+00 -0.42938022590E+02  0.42938022590E+02  0.00000000000E+00 0.  1.
          6    2    1    2  501    0  0.11215730105E+02  0.11332726379E+03  0.74311967414E+03  0.77134059308E+03  0.17254158666E+03 0.  0.
         24    2    3    3    0    0  0.46019845915E+02  0.13814415289E+03  0.62469048310E+03  0.64534548305E+03  0.70929257859E+02 0.  0.
         -6    2    1    2    0  503 -0.11215730105E+02 -0.11332726379E+03  0.33613328830E+03  0.39378841453E+03  0.17063079030E+03 0.  0.
        -24    2    5    5    0    0 -0.42646723668E+01 -0.47095922753E+02  0.62063988984E+02  0.11170513150E+03  0.79936751904E+02 0.  0.
          5    1    3    3  501    0 -0.34804115810E+02 -0.24816889106E+02  0.11842919103E+03  0.12599511003E+03  0.47000000000E+01 0. -1.
        -13    1    4    4    0    0  0.57476989885E+02  0.70485531460E+02  0.40950699526E+03  0.41948515311E+03  0.00000000000E+00 0.  1.
         14    1    4    4    0    0 -0.11457143969E+02  0.67658621435E+02  0.21518348784E+03  0.22586032994E+03  0.00000000000E+00 0. -1.
         -5    1    5    5    0  503 -0.69510577385E+01 -0.66231341036E+02  0.27406929931E+03  0.28208328303E+03  0.47000000000E+01 0.  1.
         13    1    6    6    0    0 -0.15528471015E+02 -0.27678816959E+02  0.77977691179E+02  0.84188898567E+02  0.00000000000E+00 0. -1.
        -14    1    6    6    0    0  0.11263798648E+02 -0.19417105793E+02 -0.15913702195E+02  0.27516232935E+02  0.00000000000E+00 0.  1.
</event>
<event>
12    1  0.9028446E-003  0.2034959E+03  0.7818608E-02  0.1148333E+00
         21   -1    0    0  501  502  0.00000000000E+00  0.00000000000E+00  0.52160736423E+03  0.52160736423E+03  0.00000000000E+00 0.  1.
         21   -1    0    0  502  503 -0.00000000000E+00 -0.00000000000E+00 -0.76955986898E+02  0.76955986898E+02  0.00000000000E+00 0.  1.
          6    2    1    2  501    0  0.90304661142E+02  0.43050545268E+02  0.20632303967E+03  0.28979265402E+03  0.17720695345E+03 0.  0.
         24    2    3    3    0    0  0.31342722253E+02  0.53670428704E+02  0.20586783992E+03  0.22969615355E+03  0.80720965585E+02 0.  0.
         -6    2    1    2    0  503 -0.90304661142E+02 -0.43050545268E+02  0.23832833766E+03  0.30877069711E+03  0.16891022938E+03 0.  0.
        -24    2    5    5    0    0 -0.10575760383E+03 -0.42981417507E+01  0.10338647875E+03  0.16744859161E+03  0.78403584451E+02 0.  0.
          5    1    3    3  501    0  0.58961938889E+02 -0.10619883435E+02  0.45519974724E+00  0.60096500468E+02  0.47000000000E+01 0. -1.
        -11    1    4    4    0    0  0.21177278536E+02 -0.74949126298E+01  0.10636668845E+02  0.24855372973E+02  0.00000000000E+00 0.  1.
         12    1    4    4    0    0  0.10165443717E+02  0.61165341334E+02  0.19523117108E+03  0.20484078058E+03  0.00000000000E+00 0. -1.
         -5    1    5    5    0  503  0.15452942685E+02 -0.38752403518E+02  0.13494185891E+03  0.14132210550E+03  0.47000000000E+01 0.  1.
         11    1    6    6    0    0 -0.94441342464E+02  0.22114275677E+02  0.55916507448E+02  0.11195920757E+03  0.00000000000E+00 0. -1.
        -12    1    6    6    0    0 -0.11316261363E+02 -0.26412417427E+02  0.47469971303E+02  0.55489384040E+02  0.00000000000E+00 0.  1.
</event>
<event>
12    1  0.9028446E-003  0.2399514E+03  0.7818608E-02  0.1120103E+00
         21   -1    0    0  503  502  0.00000000000E+00  0.00000000000E+00  0.12734507879E+03  0.12734507879E+03  0.00000000000E+00 0. -1.
         21   -1    0    0  501  503 -0.00000000000E+00 -0.00000000000E+00 -0.47734118177E+03  0.47734118177E+03  0.00000000000E+00 0. -1.
          6    2    1    2  501    0  0.16627204245E+03 -0.19016059922E+02 -0.24923599955E+03  0.34597003348E+03  0.17195545341E+03 0.  0.
         24    2    3    3    0    0  0.15478669285E+02  0.23758160018E+02 -0.97659896788E+02  0.12787445762E+03  0.77526654127E+02 0.  0.
         -6    2    1    2    0  502 -0.16627204245E+03  0.19016059922E+02 -0.10076010344E+03  0.25871622708E+03  0.16962748914E+03 0.  0.
        -24    2    5    5    0    0 -0.17673806425E+03  0.53827416057E+02 -0.90461151636E+02  0.22064357894E+03  0.79791195621E+02 0.  0.
          5    1    3    3  501    0  0.15079337317E+03 -0.42774219940E+02 -0.15157610276E+03  0.21809557586E+03  0.47000000000E+01 0. -1.
        -13    1    4    4    0    0 -0.29930380064E+02 -0.16172594202E+01 -0.43025644809E+02  0.52437098414E+02  0.00000000000E+00 0.  1.
         14    1    4    4    0    0  0.45409049349E+02  0.25375419438E+02 -0.54634251979E+02  0.75437359205E+02  0.00000000000E+00 0. -1.
         -5    1    5    5    0  502  0.10466021796E+02 -0.34811356135E+02 -0.10298951800E+02  0.38072648139E+02  0.47000000000E+01 0.  1.
         11    1    6    6    0    0 -0.77872427851E+02 -0.16900142444E+02 -0.35341297192E+02  0.87170735463E+02  0.00000000000E+00 0. -1.
        -12    1    6    6    0    0 -0.98865636396E+02  0.70727558501E+02 -0.55119854444E+02  0.13347284348E+03  0.00000000000E+00 0.  1.
</event>
<event>
12    1  0.9028446E-003  0.1862678E+03  0.7818608E-02  0.1162581E+00
         21   -1    0    0  503  502  0.00000000000E+00  0.00000000000E+00  0.37355306283E+03  0.37355306283E+03  0.00000000000E+00 0. -1.
         21   -1    0    0  501  503 -0.00000000000E+00 -0.00000000000E+00 -0.15064771617E+03  0.15064771617E+03  0.00000000000E+00 0. -1.
          6    2    1    2  501    0  0.59296666499E+02 -0.26038726535E+00 -0.52399222531E+02  0.19349775887E+03  0.17657729669E+03 0.  0.
         24    2    3    3    0    0  0.77974289884E+02  0.49591195909E+02 -0.82785439692E+01  0.12419582357E+03  0.82563864411E+02 0.  0.
         -6    2    1    2    0  502 -0.59296666499E+02  0.26038726535E+00  0.27530456918E+03  0.33070302013E+03  0.17336585376E+03 0.  0.
        -24    2    5    5    0    0 -0.79517395880E+02  0.35059543211E+02  0.26302261759E+03  0.28836160440E+03  0.80120719599E+02 0.  0.
          5    1    3    3  501    0 -0.18677623385E+02 -0.49851583174E+02 -0.44120678561E+02  0.69301935305E+02  0.47000000000E+01 0. -1.
        -13    1    4    4    0    0  0.79198489724E+02  0.71963956396E+01 -0.15914235318E+02  0.81101490557E+02  0.00000000000E+00 0.  1.
         14    1    4    4    0    0 -0.12241998401E+01  0.42394800269E+02  0.76356913493E+01  0.43094333009E+02  0.00000000000E+00 0. -1.
         -5    1    5    5    0  502  0.20220729381E+02 -0.34799155946E+02  0.12281951589E+02  0.42341415730E+02  0.47000000000E+01 0.  1.
         11    1    6    6    0    0 -0.39467225926E+02 -0.20847319730E+02  0.14553540930E+03  0.15222623960E+03  0.00000000000E+00 0. -1.
        -12    1    6    6    0    0 -0.40050169954E+02  0.55906862941E+02  0.11748720829E+03  0.13613536480E+03  0.00000000000E+00 0.  1.
</event>
<event>
12    1  0.9028446E-003  0.1777355E+03  0.7818608E-02  0.1171063E+00
         21   -1    0    0  503  502  0.00000000000E+00  0.00000000000E+00  0.19450455469E+03  0.19450455469E+03  0.00000000000E+00 0. -1.
         21   -1    0    0  501  503 -0.00000000000E+00 -0.00000000000E+00 -0.16564218959E+03  0.16564218959E+03  0.00000000000E+00 0. -1.
          6    2    1    2  501    0  0.42550418300E+02 -0.10237640660E+02 -0.22572912424E+02  0.17916320046E+03  0.17226307974E+03 0.  0.
         24    2    3    3    0    0  0.68868310849E+02  0.33974438059E+02 -0.47199499111E+02  0.12192773816E+03  0.82106479261E+02 0.  0.
         -6    2    1    2    0  502 -0.42550418300E+02  0.10237640660E+02  0.51435277522E+02  0.18098354381E+03  0.16791101206E+03 0.  0.
        -24    2    5    5    0    0 -0.26869982754E+02  0.46010977515E+02  0.85660676116E+02  0.12883878762E+03  0.80141598055E+02 0.  0.
          5    1    3    3  501    0 -0.26317892549E+02 -0.44212078719E+02  0.24626586687E+02  0.57235462300E+02  0.47000000000E+01 0. -1.
        -13    1    4    4    0    0  0.25575446685E+02  0.56155343086E+02 -0.14719240855E+02  0.63436441275E+02  0.00000000000E+00 0.  1.
         14    1    4    4    0    0  0.43292864164E+02 -0.22180905027E+02 -0.32480258255E+02  0.58491296888E+02  0.00000000000E+00 0. -1.
         -5    1    5    5    0  502 -0.15680435546E+02 -0.35773336855E+02 -0.34225398594E+02  0.52144756185E+02  0.47000000000E+01 0.  1.
         13    1    6    6    0    0 -0.18820348195E+02  0.19591923688E+02 -0.10245803327E+02  0.29034900823E+02  0.00000000000E+00 0. -1.
        -14    1    6    6    0    0 -0.80496345592E+01  0.26419053827E+02  0.95906479442E+02  0.99803886802E+02  0.00000000000E+00 0.  1.
</event>
<event>
12    1  0.9028446E-003  0.2021019E+03  0.7818608E-02  0.1148084E+00
         21   -1    0    0  501  502  0.00000000000E+00  0.00000000000E+00  0.73903166237E+02  0.73903166237E+02  0.00000000000E+00 0.  1.
         21   -1    0    0  502  503 -0.00000000000E+00 -0.00000000000E+00 -0.63707583272E+03  0.63707583272E+03  0.00000000000E+00 0.  1.
          6    2    1    2  501    0 -0.60583851230E+02  0.87742647094E+02 -0.15144277670E+03  0.25254720523E+03  0.17168576268E+03 0.  0.
         24    2    3    3    0    0 -0.71814065273E+02  0.12732432853E+03 -0.13962464618E+03  0.20948230744E+03  0.54945888862E+02 0.  0.
         -6    2    1    2    0  503  0.60583851230E+02 -0.87742647094E+02 -0.41172988978E+03  0.45843179372E+03  0.17108194589E+03 0.  0.
        -24    2    5    5    0    0  0.40280263263E+01 -0.10600919067E+03 -0.21151707152E+03  0.24953112226E+03  0.79196817654E+02 0.  0.
          5    1    3    3  501    0  0.11230214042E+02 -0.39581681435E+02 -0.11818130518E+02  0.43064897789E+02  0.47000000000E+01 0. -1.
        -11    1    4    4    0    0 -0.38362127702E+02  0.20310338947E+02 -0.30724217674E+02  0.53180261955E+02  0.00000000000E+00 0.  1.
         12    1    4    4    0    0 -0.33451937570E+02  0.10701398958E+03 -0.10890042851E+03  0.15630204549E+03  0.00000000000E+00 0. -1.
         -5    1    5    5    0  503  0.56555824904E+02  0.18266543580E+02 -0.20021281825E+03  0.20890067146E+03  0.47000000000E+01 0.  1.
         11    1    6    6    0    0 -0.40323252760E+01  0.25068843545E+01  0.51926363668E+01  0.70361629270E+01  0.00000000000E+00 0. -1.
        -12    1    6    6    0    0  0.80603516023E+01 -0.10851607503E+03 -0.21670970789E+03  0.24249495933E+03  0.00000000000E+00 0.  1.
</event>
<event>
12    1  0.9028446E-003  0.1843749E+03  0.7818608E-02  0.1163927E+00
         21   -1    0    0  503  502  0.00000000000E+00  0.00000000000E+00  0.10326210713E+03  0.10326210713E+03  0.00000000000E+00 0. -1.
         21   -1    0    0  501  503 -0.00000000000E+00 -0.00000000000E+00 -0.33071835943E+03  0.33071835943E+03  0.00000000000E+00 0. -1.
          6    2    1    2  501    0  0.66010584389E+02 -0.10534012014E+02 -0.90307875498E+02  0.20418975340E+03  0.17049803623E+03 0.  0.
         24    2    3    3    0    0 -0.23911214103E+02  0.71964400253E+00 -0.10416718578E+02  0.83287885873E+02  0.79095510997E+02 0.  0.
         -6    2    1    2    0  502 -0.66010584389E+02  0.10534012014E+02 -0.13714837680E+03  0.22979071316E+03  0.17183053261E+03 0.  0.
        -24    2    5    5    0    0 -0.63750845209E+02  0.57284817839E+02 -0.44059990359E+02  0.12549171050E+03  0.80381378656E+02 0.  0.
          5    1    3    3  501    0  0.89921798492E+02 -0.11253656016E+02 -0.79891156920E+02  0.12090186753E+03  0.47000000000E+01 0. -1.
        -11    1    4    4    0    0 -0.15225299044E+02 -0.32773297236E+02  0.16231026552E+02  0.39614958862E+02  0.00000000000E+00 0.  1.
         12    1    4    4    0    0 -0.86859150592E+01  0.33492941239E+02 -0.26647745130E+02  0.43672927011E+02  0.00000000000E+00 0. -1.
         -5    1    5    5    0  502 -0.22597391796E+01 -0.46750805826E+02 -0.93088386438E+02  0.10429900266E+03  0.47000000000E+01 0.  1.
         11    1    6    6    0    0 -0.12582081390E+02 -0.54487168491E+01  0.18608650924E+02  0.23114479804E+02  0.00000000000E+00 0. -1.
        -12    1    6    6    0    0 -0.51168763819E+02  0.62733534688E+02 -0.62668641282E+02  0.10237723070E+03  0.00000000000E+00 0.  1.
</event>
<event>
12    1  0.9028446E-003  0.2306236E+03  0.7818608E-02  0.1126404E+00
         21   -1    0    0  501  502  0.00000000000E+00  0.00000000000E+00  0.72695802145E+02  0.72695802145E+02  0.00000000000E+00 0. -1.
         21   -1    0    0  502  503 -0.00000000000E+00 -0.00000000000E+00 -0.78582656526E+03  0.78582656526E+03  0.00000000000E+00 0. -1.
          6    2    1    2  501    0  0.14605357483E+03 -0.42785541778E+02 -0.24093691418E+03  0.33352339109E+03  0.17327725321E+03 0.  0.
         24    2    3    3    0    0  0.11945590111E+03 -0.79644829058E+02 -0.23637288532E+03  0.28759993667E+03  0.78921299743E+02 0.  0.
         -6    2    1    2    0  503 -0.14605357483E+03  0.42785541778E+02 -0.47219384893E+03  0.52499897632E+03  0.17174005025E+03 0.  0.
        -24    2    5    5    0    0 -0.15915129036E+02 -0.16738854459E+02 -0.14748216631E+03  0.17012021442E+03  0.81586870216E+02 0.  0.
          5    1    3    3  501    0  0.26597673724E+02  0.36859287279E+02 -0.45640288642E+01  0.45923454419E+02  0.47000000000E+01 0. -1.
        -13    1    4    4    0    0  0.55740224031E+02 -0.33856380501E+02 -0.17868147112E+03  0.19021118579E+03  0.00000000000E+00 0.  1.
         14    1    4    4    0    0  0.63715677074E+02 -0.45788448556E+02 -0.57691414193E+02  0.97388750879E+02  0.00000000000E+00 0. -1.
         -5    1    5    5    0  503 -0.13013844579E+03  0.59524396237E+02 -0.32471168262E+03  0.35487876190E+03  0.47000000000E+01 0.  1.
         11    1    6    6    0    0 -0.44287798831E+02  0.61738633210E+01 -0.10504002065E+03  0.11416186601E+03  0.00000000000E+00 0. -1.
        -12    1    6    6    0    0  0.28372669796E+02 -0.22912717780E+02 -0.42442145667E+02  0.55958348405E+02  0.00000000000E+00 0.  1.
</event>
<event>
12    1  0.9028446E-003  0.1802724E+03  0.7818608E-02  0.1168008E+00
         21   -1    0    0  501  502  0.00000000000E+00  0.00000000000E+00  0.18983615968E+04  0.18983615968E+04  0.00000000000E+00 0.  1.
         21   -1    0    0  502  503 -0.00000000000E+00 -0.00000000000E+00 -0.17192955291E+02  0.17192955291E+02  0.00000000000E+00 0.  1.
          6    2    1    2  501    0 -0.13719368974E+02  0.46642862133E+02  0.81860499146E+03  0.83780706024E+03  0.17158892878E+03 0.  0.
         24    2    3    3    0    0  0.30007739581E+02 -0.97230914387E+00  0.29215719237E+03  0.30738398409E+03  0.90706553220E+02 0.  0.
         -6    2    1    2    0  503  0.13719368974E+02 -0.46642862133E+02  0.10625636500E+04  0.10777474918E+04  0.17359253471E+03 0.  0.
        -24    2    5    5    0    0  0.55751254929E+01 -0.15971893290E+01  0.19595144848E+03  0.20991442078E+03  0.75056384470E+02 0.  0.
          5    1    3    3  501    0 -0.43727108555E+02  0.47615171277E+02  0.52644779909E+03  0.53042307616E+03  0.47000000000E+01 0. -1.
        -11    1    4    4    0    0  0.47090416208E+02  0.26993188642E+02  0.23777359749E+03  0.24389018675E+03  0.00000000000E+00 0.  1.
         12    1    4    4    0    0 -0.17082676627E+02 -0.27965497786E+02  0.54383594888E+02  0.63493797336E+02  0.00000000000E+00 0. -1.
         -5    1    5    5    0  503  0.81442434814E+01 -0.45045672804E+02  0.86661220156E+03  0.86783307107E+03  0.47000000000E+01 0.  1.
         11    1    6    6    0    0 -0.14607251902E+02  0.32476803178E+02  0.88366694304E+02  0.95272174401E+02  0.00000000000E+00 0. -1.
        -12    1    6    6    0    0  0.20182377395E+02 -0.34073992506E+02  0.10758475418E+03  0.11464224637E+03  0.00000000000E+00 0.  1.
</event>
<event>
12    1  0.9028446E-003  0.3157622E+03  0.7818608E-02  0.1077845E+00
         21   -1    0    0  501  502  0.00000000000E+00  0.00000000000E+00  0.16317473722E+03  0.16317473722E+03  0.00000000000E+00 0. -1.
         21   -1    0    0  502  503 -0.00000000000E+00 -0.00000000000E+00 -0.62402490399E+03  0.62402490399E+03  0.00000000000E+00 0. -1.
          6    2    1    2  501    0 -0.16021650033E+03 -0.20831676043E+03 -0.16524866799E+03  0.35466526566E+03  0.17150839261E+03 0.  0.
         24    2    3    3    0    0 -0.47856803402E+02 -0.15217158972E+03 -0.13843248343E+03  0.22614219597E+03  0.80810110614E+02 0.  0.
         -6    2    1    2    0  503  0.16021650033E+03  0.20831676043E+03 -0.29560149878E+03  0.43253437556E+03  0.17504439524E+03 0.  0.
        -24    2    5    5    0    0  0.12394778965E+03  0.15878574549E+03 -0.30075206694E+03  0.37074959452E+03  0.80171619261E+02 0.  0.
          5    1    3    3  501    0 -0.11235969693E+03 -0.56145170709E+02 -0.26816184560E+02  0.12852306969E+03  0.47000000000E+01 0. -1.
        -11    1    4    4    0    0 -0.57551995462E+02 -0.15482319296E+03 -0.11683001015E+03  0.20231585339E+03  0.00000000000E+00 0.  1.
         12    1    4    4    0    0  0.96951920602E+01  0.26516032405E+01 -0.21602473277E+02  0.23826342576E+02  0.00000000000E+00 0. -1.
         -5    1    5    5    0  503  0.36268710682E+02  0.49531014948E+02  0.51505681618E+01  0.61784781044E+02  0.47000000000E+01 0.  1.
         13    1    6    6    0    0  0.79750516834E+02  0.15256263927E+03 -0.23678246909E+03  0.29274808540E+03  0.00000000000E+00 0. -1.
        -14    1    6    6    0    0  0.44197272815E+02  0.62231062182E+01 -0.63969597857E+02  0.78001509121E+02  0.00000000000E+00 0.  1.
</event>
<event>
12    1  0.9028446E-003  0.2662712E+03  0.7818608E-02  0.1103445E+00
         21   -1    0    0  503  502  0.00000000000E+00  0.00000000000E+00  0.33510576500E+03  0.33510576500E+03  0.00000000000E+00 0. -1.
         21   -1    0    0  501  503 -0.00000000000E+00 -0.00000000000E+00 -0.27949459606E+03  0.27949459606E+03  0.00000000000E+00 0. -1.
          6    2    1    2  501    0  0.57692903489E+02 -0.19491844834E+03 -0.12375044606E+03  0.29362313635E+03  0.17198459432E+03 0.  0.
         24    2    3    3    0    0  0.88708612676E+02 -0.84158562368E+02 -0.40888314941E+02  0.15178537928E+03  0.80094103915E+02 0.  0.
         -6    2    1    2    0  502 -0.57692903489E+02  0.19491844834E+03  0.17936161500E+03  0.32097722471E+03  0.17185493077E+03 0.  0.
        -24    2    5    5    0    0  0.15502113144E+02  0.11335161561E+03  0.15014184478E+03  0.20745831160E+03  0.86066678936E+02 0.  0.
          5    1    3    3  501    0 -0.31015709187E+02 -0.11075988597E+03 -0.82862131114E+02  0.14183775707E+03  0.47000000000E+01 0. -1.
        -13    1    4    4    0    0  0.34888913367E+02 -0.16670203906E+02  0.22457668096E+02  0.44715532319E+02  0.00000000000E+00 0.  1.
         14    1    4    4    0    0  0.53819699309E+02 -0.67488358462E+02 -0.63345983037E+02  0.10706984696E+03  0.00000000000E+00 0. -1.
         -5    1    5    5    0  502 -0.73195016634E+02  0.81566832736E+02  0.29219770218E+02  0.11351891311E+03  0.47000000000E+01 0.  1.
         13    1    6    6    0    0 -0.10353183504E+01  0.12361373003E+03  0.12720524387E+03  0.17737700021E+03  0.00000000000E+00 0. -1.
        -14    1    6    6    0    0  0.16537431495E+02 -0.10262114429E+02  0.22936600914E+02  0.30081311382E+02  0.00000000000E+00 0.  1.
</event>
<event>
12    1  0.9028446E-003  0.1861865E+03  0.7818608E-02  0.1162186E+00
         21   -1    0    0  501  502  0.00000000000E+00  0.00000000000E+00  0.24397946391E+02  0.24397946391E+02  0.00000000000E+00 0. -1.
         21   -1    0    0  502  503 -0.00000000000E+00 -0.00000000000E+00 -0.16830663168E+04  0.16830663168E+04  0.00000000000E+00 0. -1.
          6    2    1    2  501    0  0.13109792542E+02 -0.69805529478E+02 -0.48926224562E+03  0.52349113148E+03  0.17210677251E+03 0.  0.
         24    2    3    3    0    0  0.37032635480E+01  0.63157915287E+01 -0.93353717299E+02  0.12019398161E+03  0.75352991296E+02 0.  0.
         -6    2    1    2    0  503 -0.13109792542E+02  0.69805529478E+02 -0.11694061248E+04  0.11839731317E+04  0.17098834261E+03 0.  0.
        -24    2    5    5    0    0 -0.66411974135E+02  0.11617261959E+02 -0.55920009267E+03  0.56866793210E+03  0.78313231743E+02 0.  0.
          5    1    3    3  501    0  0.94065289939E+01 -0.76121321006E+02 -0.39590852832E+03  0.40329714987E+03  0.47000000000E+01 0. -1.
        -13    1    4    4    0    0  0.16872385056E+02  0.53041252409E+01  0.69657688601E+01  0.19008762660E+02  0.00000000000E+00 0.  1.
         14    1    4    4    0    0 -0.13169121508E+02  0.10116662878E+01 -0.10031948616E+03  0.10118521895E+03  0.00000000000E+00 0. -1.
         -5    1    5    5    0  503  0.53302181593E+02  0.58188267518E+02 -0.61020603210E+03  0.61530519959E+03  0.47000000000E+01 0.  1.
         13    1    6    6    0    0 -0.18400525540E+02 -0.47992861431E+01 -0.22010765881E+02  0.29087562674E+02  0.00000000000E+00 0. -1.
        -14    1    6    6    0    0 -0.48011448595E+02  0.16416548102E+02 -0.53718932679E+03  0.53958036943E+03  0.00000000000E+00 0.  1.
</event>
<event>
12    1  0.9028446E-003  0.1859559E+03  0.7818608E-02  0.1163042E+00
         21   -1    0    0  503  502  0.00000000000E+00  0.00000000000E+00  0.24830760704E+03  0.24830760704E+03  0.00000000000E+00 0. -1.
         21   -1    0    0  501  503 -0.00000000000E+00 -0.00000000000E+00 -0.24199579883E+03  0.24199579883E+03  0.00000000000E+00 0. -1.
          6    2    1    2  501    0 -0.17756035183E+01  0.65437124298E+02 -0.15871641171E+03  0.24448007538E+03  0.17405297443E+03 0.  0.
         24    2    3    3    0    0  0.32209382013E+02  0.47398742062E+02 -0.17596068522E+03  0.20205582001E+03  0.81119089100E+02 0.  0.
         -6    2    1    2    0  502  0.17756035183E+01 -0.65437124298E+02  0.16502821992E+03  0.24582333050E+03  0.17002831070E+03 0.  0.
        -24    2    5    5    0    0 -0.83281869029E+01  0.17030382133E+01  0.16029292751E+03  0.17760015997E+03  0.75998257704E+02 0.  0.
          5    1    3    3  501    0 -0.33984985531E+02  0.18038382237E+02  0.17244273508E+02  0.42424255375E+02  0.47000000000E+01 0. -1.
        -11    1    4    4    0    0  0.25127530890E+02 -0.89521361274E+01 -0.13383095358E+02  0.29843605533E+02  0.00000000000E+00 0.  1.
         12    1    4    4    0    0  0.70818511231E+01  0.56350878189E+02 -0.16257758987E+03  0.17221221447E+03  0.00000000000E+00 0. -1.
         -5    1    5    5    0  502  0.10103790421E+02 -0.67140162511E+02  0.47352924148E+01  0.68223170530E+02  0.47000000000E+01 0.  1.
         11    1    6    6    0    0  0.17220642069E+02  0.70659655183E+00  0.14840661705E+03  0.14940406211E+03  0.00000000000E+00 0. -1.
        -12    1    6    6    0    0 -0.25548828972E+02  0.99644166145E+00  0.11886310462E+02  0.28196097854E+02  0.00000000000E+00 0.  1.
</event>
<event>
12    1  0.9028446E-003  0.1772109E+03  0.7818608E-02  0.1170581E+00
         21   -1    0    0  503  502  0.00000000000E+00  0.00000000000E+00  0.22693855050E+02  0.22693855050E+02  0.00000000000E+00 0. -1.
         21   -1    0    0  501  503 -0.00000000000E+00 -0.00000000000E+00 -0.24839959332E+04  0.24839959332E+04  0.00000000000E+00 0. -1.
          6    2    1    2  501    0  0.35769658515E+01  0.43656963051E+02 -0.39631483535E+03  0.43413032372E+03  0.17171186372E+03 0.  0.
         24    2    3    3    0    0  0.60930483236E+02  0.57120633505E+02 -0.23009066748E+03  0.25771246645E+03  0.80614574003E+02 0.  0.
         -6    2    1    2    0  502 -0.35769658515E+01 -0.43656963051E+02 -0.20649872428E+04  0.20725594645E+04  0.17149838485E+03 0.  0.
        -24    2    5    5    0    0  0.40445618065E+02  0.26860301688E+02 -0.10399874007E+04  0.10441833472E+04  0.79923369603E+02 0.  0.
          5    1    3    3  501    0 -0.57353517384E+02 -0.13463670454E+02 -0.16622416787E+03  0.17641785727E+03  0.47000000000E+01 0. -1.
        -11    1    4    4    0    0  0.58959231197E+02  0.33939119358E+01 -0.15042742053E+03  0.16160482180E+03  0.00000000000E+00 0.  1.
         12    1    4    4    0    0  0.19712520384E+01  0.53726721569E+02 -0.79663246954E+02  0.96107644651E+02  0.00000000000E+00 0. -1.
         -5    1    5    5    0  502 -0.44022583916E+02 -0.70517264738E+02 -0.10249998421E+04  0.10283761174E+04  0.47000000000E+01 0.  1.
         11    1    6    6    0    0 -0.68773067832E+01  0.23363682385E+02 -0.74547259059E+03  0.74587032541E+03  0.00000000000E+00 0. -1.
        -12    1    6    6    0    0  0.47322924848E+02  0.34966193024E+01 -0.29451481014E+03  0.29831302176E+03  0.00000000000E+00 0.  1.
</event>
<event>
12    1  0.9028446E-003  0.1918954E+03  0.7818608E-02  0.1157100E+00
         21   -1    0    0  501  502  0.00000000000E+00  0.00000000000E+00  0.19904727528E+02  0.19904727528E+02  0.00000000000E+00 0.  1.
         21   -1    0    0  502  503 -0.00000000000E+00 -0.00000000000E+00 -0.20128205322E+04  0.20128205322E+04  0.00000000000E+00 0. -1.
          6    2    1    2  501    0  0.71950477848E+02  0.40464913716E+02 -0.69837135458E+03  0.72425575323E+03  0.17323269519E+03 0.  0.
         24    2    3    3    0    0  0.10782500728E+03  0.61464641818E+02 -0.53151758013E+03  0.55223760741E+03  0.83972035023E+02 0.  0.
         -6    2    1    2    0  503 -0.71950477848E+02 -0.40464913716E+02 -0.12945444501E+04  0.13084695065E+04  0.17156000602E+03 0.  0.
        -24    2    5    5    0    0 -0.31868169803E+02  0.42149770278E+02 -0.70611503514E+03  0.71289999434E+03  0.82678749988E+02 0.  0.
          5    1    3    3  501    0 -0.35874529429E+02 -0.20999728102E+02 -0.16685377445E+03  0.17201814581E+03  0.47000000000E+01 0. -1.
        -13    1    4    4    0    0  0.85960583289E+02  0.10038751232E+02 -0.40147166798E+03  0.41069392325E+03  0.00000000000E+00 0.  1.
         14    1    4    4    0    0  0.21864423988E+02  0.51425890585E+02 -0.13004591215E+03  0.14154368416E+03  0.00000000000E+00 0. -1.
         -5    1    5    5    0  503 -0.40082308045E+02 -0.82614683993E+02 -0.58842941495E+03  0.59556951216E+03  0.47000000000E+01 0.  1.
         11    1    6    6    0    0 -0.16044116566E+02  0.29752094575E+02 -0.67506464159E+03  0.67591040171E+03  0.00000000000E+00 0. -1.
        -12    1    6    6    0    0 -0.15824053237E+02  0.12397675702E+02 -0.31050393542E+02  0.36989592628E+02  0.00000000000E+00 0.  1.
</event>
<event>
12    1  0.9028446E-003  0.2273975E+03  0.7818608E-02  0.1129081E+00
         21   -1    0    0  501  502  0.00000000000E+00  0.00000000000E+00  0.63414100036E+03  0.63414100036E+03  0.00000000000E+00 0. -1.
         21   -1    0    0  502  503 -0.00000000000E+00 -0.00000000000E+00 -0.86930633611E+02  0.86930633611E+02  0.00000000000E+00 0.  1.
          6    2    1    2  501    0 -0.99808551271E+02  0.99339551342E+02  0.17633840274E+03  0.28775836055E+03  0.17854844838E+03 0.  0.
         24    2    3    3    0    0  0.90631975549E+00  0.12953975906E+02  0.32098347599E+02  0.91714395086E+02  0.84927024204E+02 0.  0.
         -6    2    1    2    0  503  0.99808551271E+02 -0.99339551342E+02  0.37087196401E+03  0.43331327342E+03  0.17431088854E+03 0.  0.
        -24    2    5    5    0    0  0.64905097943E+02 -0.11950266211E+03  0.18285702734E+03  0.24096850873E+03  0.78329890610E+02 0.  0.
          5    1    3    3  501    0 -0.10071487103E+03  0.86385575436E+02  0.14424005514E+03  0.19604396547E+03  0.47000000000E+01 0. -1.
        -11    1    4    4    0    0  0.33248807862E+02 -0.17811907653E+02  0.27825200679E+02  0.46872050001E+02  0.00000000000E+00 0.  1.
         12    1    4    4    0    0 -0.32342488106E+02  0.30765883560E+02  0.42731469193E+01  0.44842345085E+02  0.00000000000E+00 0. -1.
         -5    1    5    5    0  503  0.34903453328E+02  0.20163110768E+02  0.18801493667E+03  0.19234476468E+03  0.47000000000E+01 0.  1.
         13    1    6    6    0    0 -0.28937801582E+01 -0.68226372632E+01  0.61752214354E+02  0.62195323944E+02  0.00000000000E+00 0. -1.
        -14    1    6    6    0    0  0.67798878101E+02 -0.11268002485E+03  0.12110481299E+03  0.17877318479E+03  0.00000000000E+00 0.  1.
</event>
<event>
12    1  0.9028446E-003  0.1999748E+03  0.7818608E-02  0.1149828E+00
         21   -1    0    0  503  502  0.00000000000E+00  0.00000000000E+00  0.12340329622E+03  0.12340329622E+03  0.00000000000E+00 0. -1.
         21   -1    0    0  501  503 -0.00000000000E+00 -0.00000000000E+00 -0.38378418753E+03  0.38378418753E+03  0.00000000000E+00 0. -1.
          6    2    1    2  501    0 -0.45258752268E+02 -0.90660512438E+02 -0.23057765743E+03  0.30500403070E+03  0.17202825194E+03 0.  0.
         24    2    3    3    0    0  0.10526031093E+02 -0.42654862355E+02 -0.37976035181E+02  0.98766402251E+02  0.79889851374E+02 0.  0.
         -6    2    1    2    0  502  0.45258752268E+02  0.90660512438E+02 -0.29803233870E+02  0.20218345305E+03  0.17240137112E+03 0.  0.
        -24    2    5    5    0    0  0.81266770322E+02  0.60905237429E+02  0.20833277011E+02  0.13313202302E+03  0.83524692258E+02 0.  0.
          5    1    3    3  501    0 -0.55784783361E+02 -0.48005650083E+02 -0.19260162225E+03  0.20623762845E+03  0.47000000000E+01 0. -1.
        -11    1    4    4    0    0 -0.24085352707E+02 -0.49471546655E+02 -0.16400684357E+02  0.57415334109E+02  0.00000000000E+00 0.  1.
         12    1    4    4    0    0  0.34611383799E+02  0.68166843002E+01 -0.21575350824E+02  0.41351068143E+02  0.00000000000E+00 0. -1.
         -5    1    5    5    0  502 -0.36008018054E+02  0.29755275009E+02 -0.50636510881E+02  0.69051430030E+02  0.47000000000E+01 0.  1.
         11    1    6    6    0    0  0.40263169609E+02  0.22277345035E+02  0.51442770365E+02  0.69020008343E+02  0.00000000000E+00 0. -1.
        -12    1    6    6    0    0  0.41003600714E+02  0.38627892394E+02 -0.30609493354E+02  0.64112014675E+02  0.00000000000E+00 0.  1.
</event>
<event>
12    1  0.9028446E-003  0.1750700E+03  0.7818608E-02  0.1172982E+00
         21   -1    0    0  503  502  0.00000000000E+00  0.00000000000E+00  0.16361071017E+03  0.16361071017E+03  0.00000000000E+00 0. -1.
         21   -1    0    0  501  503 -0.00000000000E+00 -0.00000000000E+00 -0.20010327125E+03  0.20010327125E+03  0.00000000000E+00 0. -1.
          6    2    1    2  501    0 -0.21697974600E+02  0.27245113083E+02 -0.66512824868E+02  0.18608878094E+03  0.17027031518E+03 0.  0.
         24    2    3    3    0    0 -0.41416560466E+02 -0.14185700769E+02 -0.93122256050E+02  0.13283949181E+03  0.84011965964E+02 0.  0.
         -6    2    1    2    0  502  0.21697974600E+02 -0.27245113083E+02  0.30020263793E+02  0.17762520048E+03  0.17157038590E+03 0.  0.
        -24    2    5    5    0    0  0.12125695614E+02 -0.10488115620E+02  0.85694597036E+02  0.11851389132E+03  0.80280417353E+02 0.  0.
          5    1    3    3  501    0  0.19718585866E+02  0.41430813852E+02  0.26609431182E+02  0.53249289130E+02  0.47000000000E+01 0. -1.
        -11    1    4    4    0    0 -0.42634817381E+02  0.44663977532E+01 -0.54692135454E+01  0.43215606658E+02  0.00000000000E+00 0.  1.
         12    1    4    4    0    0  0.12182569157E+01 -0.18652098522E+02 -0.87653042505E+02  0.89623885151E+02  0.00000000000E+00 0. -1.
         -5    1    5    5    0  502  0.95722789865E+01 -0.16756997463E+02 -0.55674333244E+02  0.59111309164E+02  0.47000000000E+01 0.  1.
         13    1    6    6    0    0  0.35441856715E+02 -0.33381332919E+02  0.57602245603E+02  0.75421862171E+02  0.00000000000E+00 0. -1.
        -14    1    6    6    0    0 -0.23316161101E+02  0.22893217299E+02  0.28092351433E+02  0.43092029145E+02  0.00000000000E+00 0.  1.
</event>
<event>
12    1  0.9028446E-003  0.1735466E+03  0.7818608E-02  0.1174386E+00
         21   -1    0    0  503  502  0.00000000000E+00  0.00000000000E+00  0.28489532574E+03  0.28489532574E+03  0.00000000000E+00 0. -1.
         21   -1    0    0  501  503 -0.00000000000E+00 -0.00000000000E+00 -0.13638995515E+03  0.13638995515E+03  0.00000000000E+00 0. -1.
          6    2    1    2  501    0  0.13484621312E+02 -0.10186332810E+02  0.17499255426E+03  0.24645655132E+03  0.17272186096E+03 0.  0.
         24    2    3    3    0    0  0.63611994415E+02  0.27010878770E+02  0.84204578778E+02  0.13617993288E+03  0.81722026564E+02 0.  0.
         -6    2    1    2    0  502 -0.13484621312E+02  0.10186332810E+02 -0.26487183673E+02  0.17482872956E+03  0.17198231710E+03 0.  0.
        -24    2    5    5    0    0 -0.38902095929E+02  0.64039234254E+02 -0.22403064202E+02  0.11495425218E+03  0.84250734223E+02 0.  0.
          5    1    3    3  501    0 -0.50127373103E+02 -0.37197211580E+02  0.90787975486E+02  0.11027661845E+03  0.47000000000E+01 0. -1.
        -11    1    4    4    0    0  0.18438110835E+02  0.52001154151E+02  0.39062455677E+02  0.67601474893E+02  0.00000000000E+00 0.  1.
         12    1    4    4    0    0  0.45173883581E+02 -0.24990275381E+02  0.45142123101E+02  0.68578457984E+02  0.00000000000E+00 0. -1.
         -5    1    5    5    0  502  0.25417474617E+02 -0.53852901445E+02 -0.40841194706E+01  0.59874477382E+02  0.47000000000E+01 0.  1.
         11    1    6    6    0    0 -0.42813396693E+02  0.13723599675E+02 -0.41315268626E+02  0.61059606501E+02  0.00000000000E+00 0. -1.
        -12    1    6    6    0    0  0.39113007637E+01  0.50315634579E+02  0.18912204424E+02  0.53894645680E+02  0.00000000000E+00 0.  1.
</event>
<event>
12    1  0.9028446E-003  0.2549161E+03  0.7818608E-02  0.1111067E+00
         21   -1    0    0  503  502  0.00000000000E+00  0.00000000000E+00  0.70126528163E+03  0.70126528163E+03  0.00000000000E+00 0.  1.
         21   -1    0    0  501  503 -0.00000000000E+00 -0.00000000000E+00 -0.10155677618E+03  0.10155677618E+03  0.00000000000E+00 0. -1.
          6    2    1    2  501    0  0.18635934244E+03  0.34334041943E+02  0.16600785834E+03  0.29975300632E+03  0.16243344733E+03 0.  0.
         24    2    3    3    0    0  0.11584683133E+03  0.65970361400E+02  0.15877216073E+03  0.22198851408E+03  0.79358203417E+02 0.  0.
         -6    2    1    2    0  502 -0.18635934244E+03 -0.34334041943E+02  0.43370064711E+03  0.50306905149E+03  0.17050978951E+03 0.  0.
        -24    2    5    5    0    0 -0.76086097367E+02 -0.17162491330E+02  0.33789517252E+03  0.35590985304E+03  0.80093885875E+02 0.  0.
          5    1    3    3  501    0  0.70512511114E+02 -0.31636319457E+02  0.72356976113E+01  0.77764492233E+02  0.47000000000E+01 0. -1.
        -13    1    4    4    0    0  0.12229312924E+03  0.74830574081E+02  0.14085115704E+03  0.20098326477E+03  0.00000000000E+00 0.  1.
         14    1    4    4    0    0 -0.64462979131E+01 -0.88602126805E+01  0.17921003693E+02  0.21005249317E+02  0.00000000000E+00 0. -1.
         -5    1    5    5    0  502 -0.11027324508E+03 -0.17171550613E+02  0.95805474584E+02  0.14715919846E+03  0.47000000000E+01 0.  1.
         13    1    6    6    0    0 -0.36424683640E+02  0.27627931071E+02  0.20703336947E+03  0.21202093346E+03  0.00000000000E+00 0. -1.
        -14    1    6    6    0    0 -0.39661413727E+02 -0.44790422401E+02  0.13086180305E+03  0.14388891957E+03  0.00000000000E+00 0.  1.
</event>
<event>
12    1  0.9028446E-003  0.2761357E+03  0.7818608E-02  0.1097902E+00
         21   -1    0    0  501  502  0.00000000000E+00  0.00000000000E+00  0.54823579388E+03  0.54823579388E+03  0.00000000000E+00 0. -1.
         21   -1    0    0  502  503 -0.00000000000E+00 -0.00000000000E+00 -0.21201587116E+03  0.21201587116E+03  0.00000000000E+00 0.  1.
          6    2    1    2  501    0 -0.17665524907E+03 -0.12357767918E+03  0.39163938680E+03  0.47919970190E+03  0.17254687826E+03 0.  0.
         24    2    3    3    0    0 -0.12516791837E+03 -0.96598925875E+02  0.15335359431E+03  0.23388152636E+03  0.78644028469E+02 0.  0.
         -6    2    1    2    0  503  0.17665524907E+03  0.12357767918E+03 -0.55419464074E+02  0.28105196313E+03  0.17158196050E+03 0.  0.
        -24    2    5    5    0    0  0.71163569955E+02  0.76071894995E+02 -0.91690258549E+02  0.15971378107E+03  0.79058215608E+02 0.  0.
          5    1    3    3  501    0 -0.51487330703E+02 -0.26978753302E+02  0.23828579249E+03  0.24531817555E+03  0.47000000000E+01 0. -1.
        -13    1    4    4    0    0  0.85210410567E+01 -0.47674138797E+00 -0.47482184594E+00  0.85475656667E+01  0.00000000000E+00 0.  1.
         14    1    4    4    0    0 -0.13368895943E+03 -0.96122184487E+02  0.15382841616E+03  0.22533396069E+03  0.00000000000E+00 0. -1.
         -5    1    5    5    0  503  0.10549167912E+03  0.47505784181E+02  0.36270794476E+02  0.12133818206E+03  0.47000000000E+01 0.  1.
         13    1    6    6    0    0  0.11527448505E+02  0.26256318404E+02  0.11193878500E+02  0.30782775071E+02  0.00000000000E+00 0. -1.
        -14    1    6    6    0    0  0.59636121450E+02  0.49815576591E+02 -0.10288413705E+03  0.12893100600E+03  0.00000000000E+00 0.  1.
</event>
<event>
12    1  0.9028446E-003  0.2397135E+03  0.7818608E-02  0.1119995E+00
         21   -1    0    0  503  502  0.00000000000E+00  0.00000000000E+00  0.53799013846E+03  0.53799013846E+03  0.00000000000E+00 0. -1.
         21   -1    0    0  501  503 -0.00000000000E+00 -0.00000000000E+00 -0.11358873000E+03  0.11358873000E+03  0.00000000000E+00 0.  1.
          6    2    1    2  501    0  0.16207783511E+03 -0.40244494946E+02  0.13241297550E+03  0.27379608675E+03  0.17187861132E+03 0.  0.
         24    2    3    3    0    0  0.19046199933E+03 -0.39282777988E+02  0.11923109073E+03  0.24213478918E+03  0.81205254151E+02 0.  0.
         -6    2    1    2    0  502 -0.16207783511E+03  0.40244494946E+02  0.29198843295E+03  0.37778278171E+03  0.17197017523E+03 0.  0.
        -24    2    5    5    0    0 -0.16697819984E+03  0.17227686705E+02  0.29966651065E+03  0.35258695044E+03  0.79618010556E+02 0.  0.
          5    1    3    3  501    0 -0.28384164213E+02 -0.96171695803E+00  0.13181884774E+02  0.31661297569E+02  0.47000000000E+01 0. -1.
        -11    1    4    4    0    0  0.85641178988E+02 -0.53693709049E+02  0.35254601085E+02  0.10705285063E+03  0.00000000000E+00 0.  1.
         12    1    4    4    0    0  0.10482082034E+03  0.14410931061E+02  0.83976489644E+02  0.13508193855E+03  0.00000000000E+00 0. -1.
         -5    1    5    5    0  502  0.49003647232E+01  0.23016808241E+02 -0.76780777026E+01  0.25195831267E+02  0.47000000000E+01 0.  1.
         11    1    6    6    0    0 -0.74280808011E+02  0.47485227952E+02  0.14853595265E+03  0.17272931003E+03  0.00000000000E+00 0. -1.
        -12    1    6    6    0    0 -0.92697391826E+02 -0.30257541247E+02  0.15113055800E+03  0.17985764041E+03  0.00000000000E+00 0.  1.
</event>
<event>
12    1  0.9028446E-003  0.1828888E+03  0.7818608E-02  0.1165071E+00
         21   -1    0    0  503  502  0.00000000000E+00  0.00000000000E+00  0.71353679678E+03  0.71353679678E+03  0.00000000000E+00 0. -1.
         21   -1    0    0  501  503 -0.00000000000E+00 -0.00000000000E+00 -0.78637345529E+02  0.78637345529E+02  0.00000000000E+00 0. -1.
          6    2    1    2  501    0 -0.59681234103E+02 -0.27489923433E+02  0.65503102296E+02  0.19412688677E+03  0.17051992893E+03 0.  0.
         24    2    3    3    0    0 -0.82647295154E+02 -0.27454916241E+02  0.97818848145E+02  0.15420397836E+03  0.81400196981E+02 0.  0.
         -6    2    1    2    0  502  0.59681234103E+02  0.27489923433E+02  0.56939634896E+03  0.59804725554E+03  0.17067739177E+03 0.  0.
        -24    2    5    5    0    0  0.73595433072E+02  0.10747383765E+01  0.55373237007E+03  0.56400585180E+03  0.77882092716E+02 0.  0.
          5    1    3    3  501    0  0.22966061051E+02 -0.35007192852E-01 -0.32315745849E+02  0.39922908405E+02  0.47000000000E+01 0. -1.
        -13    1    4    4    0    0 -0.37870061825E+02  0.12317962988E+02  0.83671759645E+02  0.92665188484E+02  0.00000000000E+00 0.  1.
         14    1    4    4    0    0 -0.44777233329E+02 -0.39772879228E+02  0.14147088500E+02  0.61538789879E+02  0.00000000000E+00 0. -1.
         -5    1    5    5    0  502 -0.13914198969E+02  0.26415185057E+02  0.15663978888E+02  0.34041403748E+02  0.47000000000E+01 0.  1.
         13    1    6    6    0    0  0.45113752758E+02 -0.37121136993E+02  0.26450501137E+03  0.27088028821E+03  0.00000000000E+00 0. -1.
        -14    1    6    6    0    0  0.28481680313E+02  0.38195875370E+02  0.28922735870E+03  0.29312556359E+03  0.00000000000E+00 0.  1.
</event>
<event>
12    1  0.9028446E-003  0.2090337E+03  0.7818608E-02  0.1142862E+00
         21   -1    0    0  503  502  0.00000000000E+00  0.00000000000E+00  0.13645075194E+03  0.13645075194E+03  0.00000000000E+00 0. -1.
         21   -1    0    0  501  503 -0.00000000000E+00 -0.00000000000E+00 -0.32658298284E+03  0.32658298284E+03  0.00000000000E+00 0. -1.
          6    2    1    2  501    0  0.40556488349E+02  0.10716833068E+03 -0.53199728396E+02  0.21314255361E+03  0.17166728637E+03 0.  0.
         24    2    3    3    0    0  0.50898132045E+02  0.69236901505E+02 -0.98472770005E+02  0.15299705328E+03  0.79541457765E+02 0.  0.
         -6    2    1    2    0  502 -0.40556488349E+02 -0.10716833068E+03 -0.13693250250E+03  0.24989118118E+03  0.17482909466E+03 0.  0.
        -24    2    5    5    0    0 -0.24064521272E+02  0.10594675618E+02 -0.87149867753E+02  0.12089307517E+03  0.79553050471E+02 0.  0.
          5    1    3    3  501    0 -0.10341643697E+02  0.37931429176E+02  0.45273041608E+02  0.60145500332E+02  0.47000000000E+01 0. -1.
        -11    1    4    4    0    0 -0.78931484326E+01  0.33462954233E+02 -0.71018343390E+02  0.78902954292E+02  0.00000000000E+00 0.  1.
         12    1    4    4    0    0  0.58791280478E+02  0.35773947272E+02 -0.27454426615E+02  0.74094098985E+02  0.00000000000E+00 0. -1.
         -5    1    5    5    0  502 -0.16491967077E+02 -0.11776300630E+03 -0.49782634749E+02  0.12899810601E+03  0.47000000000E+01 0.  1.
         11    1    6    6    0    0 -0.18954227883E+02 -0.25418831098E+02 -0.76779960327E+02  0.83069501244E+02  0.00000000000E+00 0. -1.
        -12    1    6    6    0    0 -0.51102933889E+01  0.36013506716E+02 -0.10369907425E+02  0.37823573926E+02  0.00000000000E+00 0.  1.
</event>
<event>
12    1  0.9028446E-003  0.1843930E+03  0.7818608E-02  0.1163780E+00
         21   -1    0    0  501  502  0.00000000000E+00  0.00000000000E+00  0.30548932625E+03  0.30548932625E+03  0.00000000000E+00 0. -1.
         21   -1    0    0  502  503 -0.00000000000E+00 -0.00000000000E+00 -0.11090127555E+03  0.11090127555E+03  0.00000000000E+00 0. -1.
          6    2    1    2  501    0 -0.12473716863E+02 -0.65148112300E+02  0.94802941187E+02  0.20733636016E+03  0.17204911635E+03 0.  0.
         24    2    3    3    0    0  0.56160385972E+02 -0.52474149476E+02  0.38047532651E+02  0.11725564189E+03  0.79960899813E+02 0.  0.
         -6    2    1    2    0  503  0.12473716863E+02  0.65148112300E+02  0.99785109505E+02  0.20905424164E+03  0.17130889562E+03 0.  0.
        -24    2    5    5    0    0  0.19716613208E+02  0.10466252294E+03  0.10636740372E+03  0.16807540816E+03  0.74781880885E+02 0.  0.
          5    1    3    3  501    0 -0.68634102835E+02 -0.12673962824E+02  0.56755408536E+02  0.90080718268E+02  0.47000000000E+01 0. -1.
        -11    1    4    4    0    0  0.40014496540E+02 -0.43679441460E+02  0.62859926564E+02  0.86373745474E+02  0.00000000000E+00 0.  1.
         12    1    4    4    0    0  0.16145889431E+02 -0.87947080162E+01 -0.24812393913E+02  0.30881896417E+02  0.00000000000E+00 0. -1.
         -5    1    5    5    0  503 -0.72428963441E+01 -0.39514410644E+02 -0.65822942167E+01  0.40978833477E+02  0.47000000000E+01 0.  1.
         11    1    6    6    0    0 -0.38443586276E+01  0.25829186745E+02 -0.78863968080E+01  0.27278585663E+02  0.00000000000E+00 0. -1.
        -12    1    6    6    0    0  0.23560971835E+02  0.78833336199E+02  0.11425380053E+03  0.14079682250E+03  0.00000000000E+00 0.  1.
</event>
<event>
12    1  0.9028446E-003  0.2299189E+03  0.7818608E-02  0.1127362E+00
         21   -1    0    0  503  502  0.00000000000E+00  0.00000000000E+00  0.19892027104E+03  0.19892027104E+03  0.00000000000E+00 0. -1.
         21   -1    0    0  501  503 -0.00000000000E+00 -0.00000000000E+00 -0.26197277890E+03  0.26197277890E+03  0.00000000000E+00 0. -1.
          6    2    1    2  501    0 -0.14980667474E+03 -0.27509130474E+02 -0.42207969873E+02  0.23376102521E+03  0.17223214604E+03 0.  0.
         24    2    3    3    0    0 -0.17389488152E+03 -0.38424010430E+02 -0.54660341771E+02  0.20415481173E+03  0.83520056248E+02 0.  0.
         -6    2    1    2    0  502  0.14980667474E+03  0.27509130474E+02 -0.20844537989E+02  0.22713202473E+03  0.16719949115E+03 0.  0.
        -24    2    5    5    0    0  0.15121953571E+03  0.39000505228E+02 -0.55895150240E+02  0.18992069193E+03  0.92505210748E+02 0.  0.
          5    1    3    3  501    0  0.24088206780E+02  0.10914879956E+02  0.12452371898E+02  0.29606213473E+02  0.47000000000E+01 0. -1.
        -13    1    4    4    0    0 -0.10875555082E+03 -0.64598752963E+02 -0.35898960823E+02  0.13148955893E+03  0.00000000000E+00 0.  1.
         14    1    4    4    0    0 -0.65139330699E+02  0.26174742533E+02 -0.18761380948E+02  0.72665252808E+02  0.00000000000E+00 0. -1.
         -5    1    5    5    0  502 -0.14128609685E+01 -0.11491374753E+02  0.35050612252E+02  0.37211332804E+02  0.47000000000E+01 0.  1.
         13    1    6    6    0    0  0.19784539529E+02 -0.27465613239E+02 -0.15278028347E+02  0.37137663701E+02  0.00000000000E+00 0. -1.
        -14    1    6    6    0    0  0.13143499618E+03  0.66466118467E+02 -0.40617121893E+02  0.15278302823E+03  0.00000000000E+00 0.  1.
</event>
<event>
12    1  0.9028446E-003  0.3388162E+03  0.7818608E-02  0.1067407E+00
         21   -1    0    0  503  502  0.00000000000E+00  0.00000000000E+00  0.14559945337E+04  0.14559945337E+04  0.00000000000E+00 0.  1.
         21   -1    0    0  501  503 -0.00000000000E+00 -0.00000000000E+00 -0.78623365795E+02  0.78623365795E+02  0.00000000000E+00 0. -1.
          6    2    1    2  501    0  0.21850096241E+03  0.19117686279E+03  0.69571598752E+03  0.77340165438E+03  0.17273714208E+03 0.  0.
         24    2    3    3    0    0  0.21276248839E+03  0.15916635188E+03  0.48033106685E+03  0.55552472364E+03  0.85369671208E+02 0.  0.
         -6    2    1    2    0  502 -0.21850096241E+03 -0.19117686279E+03  0.68165518043E+03  0.76121624517E+03  0.17465715976E+03 0.  0.
        -24    2    5    5    0    0 -0.19490779731E+03 -0.10595345778E+03  0.58135797572E+03  0.62742055961E+03  0.80400733916E+02 0.  0.
          5    1    3    3  501    0  0.57384740272E+01  0.32010510912E+02  0.21538492067E+03  0.21787693073E+03  0.47000000000E+01 0. -1.
        -13    1    4    4    0    0  0.14717170804E+03  0.10775981669E+03  0.40068417608E+03  0.44024935969E+03  0.00000000000E+00 0.  1.
         14    1    4    4    0    0  0.65590780341E+02  0.51406535196E+02  0.79646890768E+02  0.11527536396E+03  0.00000000000E+00 0. -1.
         -5    1    5    5    0  502 -0.23593165104E+02 -0.85223405016E+02  0.10029720471E+03  0.13379568556E+03  0.47000000000E+01 0.  1.
         13    1    6    6    0    0 -0.17615549931E+03 -0.11729792414E+03  0.49539175851E+03  0.53870451766E+03  0.00000000000E+00 0. -1.
        -14    1    6    6    0    0 -0.18752298002E+02  0.11344466364E+02  0.85966217212E+02  0.88716041950E+02  0.00000000000E+00 0.  1.
</event>
<event>
12    1  0.9028446E-003  0.3145322E+03  0.7818608E-02  0.1078364E+00
         21   -1    0    0  501  502  0.00000000000E+00  0.00000000000E+00  0.13346831490E+03  0.13346831490E+03  0.00000000000E+00 0. -1.
         21   -1    0    0  502  503 -0.00000000000E+00 -0.00000000000E+00 -0.74161888970E+03  0.74161888970E+03  0.00000000000E+00 0.  1.
          6    2    1    2  501    0  0.21121788751E+03 -0.15761720759E+03 -0.33468510861E+03  0.45829726303E+03  0.16901502669E+03 0.  0.
         24    2    3    3    0    0  0.93426494229E+02 -0.14110798210E+03 -0.25162999936E+03  0.31315041316E+03  0.78138033276E+02 0.  0.
         -6    2    1    2    0  503 -0.21121788751E+03  0.15761720759E+03 -0.27346546620E+03  0.41678994158E+03  0.17168084945E+03 0.  0.
        -24    2    5    5    0    0 -0.39990761137E+02  0.11157605159E+02 -0.71924934949E+02  0.11444937255E+03  0.78750933197E+02 0.  0.
          5    1    3    3  501    0  0.11779139328E+03 -0.16509225483E+02 -0.83055109246E+02  0.14514684987E+03  0.47000000000E+01 0. -1.
        -13    1    4    4    0    0  0.97373713233E+02 -0.13771987787E+03 -0.20160394030E+03  0.26285462434E+03  0.00000000000E+00 0.  1.
         14    1    4    4    0    0 -0.39472190031E+01 -0.33881042331E+01 -0.50026059058E+02  0.50295788820E+02  0.00000000000E+00 0. -1.
         -5    1    5    5    0  503 -0.17122712637E+03  0.14645960243E+03 -0.20154053125E+03  0.30234056903E+03  0.47000000000E+01 0.  1.
         11    1    6    6    0    0 -0.23030912054E+02  0.12417115863E+02  0.12023704069E+02  0.28795436027E+02  0.00000000000E+00 0. -1.
        -12    1    6    6    0    0 -0.16959849083E+02 -0.12595107042E+01 -0.83948639019E+02  0.85653936519E+02  0.00000000000E+00 0.  1.
</event>
<event>
12    1  0.9028446E-003  0.2099847E+03  0.7818608E-02  0.1141882E+00
         21   -1    0    0  501  502  0.00000000000E+00  0.00000000000E+00  0.59141100703E+03  0.59141100703E+03  0.00000000000E+00 0.  1.
         21   -1    0    0  502  503 -0.00000000000E+00 -0.00000000000E+00 -0.79634995202E+02  0.79634995202E+02  0.00000000000E+00 0. -1.
          6    2    1    2  501    0  0.35938671882E+02  0.11279042824E+03  0.34415828816E+03  0.40236538025E+03  0.17158001947E+03 0.  0.
         24    2    3    3    0    0  0.65353592181E+02  0.27842452143E+02  0.12035110355E+03  0.16113283257E+03  0.80206654677E+02 0.  0.
         -6    2    1    2    0  503 -0.35938671882E+02 -0.11279042824E+03  0.16761772367E+03  0.26868062198E+03  0.17343675071E+03 0.  0.
        -24    2    5    5    0    0 -0.34878416182E+02 -0.14740276261E+03  0.15683723442E+03  0.23210950248E+03  0.79579046857E+02 0.  0.
          5    1    3    3  501    0 -0.29414920299E+02  0.84947976099E+02  0.22380718461E+03  0.24123254769E+03  0.47000000000E+01 0. -1.
        -13    1    4    4    0    0  0.94357791543E+01  0.44999526595E+02  0.71085043834E+02  0.84658577704E+02  0.00000000000E+00 0.  1.
         14    1    4    4    0    0  0.55917813027E+02 -0.17157074453E+02  0.49266059714E+02  0.76474254865E+02  0.00000000000E+00 0. -1.
         -5    1    5    5    0  503 -0.10602557003E+01  0.34612334373E+02  0.10780489250E+02  0.36571119498E+02  0.47000000000E+01 0.  1.
         11    1    6    6    0    0 -0.52238779250E+02 -0.50654274441E+02  0.69389539374E+02  0.10054677395E+03  0.00000000000E+00 0. -1.
        -12    1    6    6    0    0  0.17360363069E+02 -0.96748488174E+02  0.87447695048E+02  0.13156272853E+03  0.00000000000E+00 0.  1.
</event>
<event>
12    1  0.9028446E-003  0.3436911E+03  0.7818608E-02  0.1066134E+00
         21   -1    0    0  503  502  0.00000000000E+00  0.00000000000E+00  0.20864058408E+03  0.20864058408E+03  0.00000000000E+00 0. -1.
         21   -1    0    0  501  503 -0.00000000000E+00 -0.00000000000E+00 -0.74492665265E+03  0.74492665265E+03  0.00000000000E+00 0. -1.
          6    2    1    2  501    0  0.28726979182E+03 -0.50831589748E+01 -0.51304487362E+03  0.61752623017E+03  0.18861026167E+03 0.  0.
         24    2    3    3    0    0  0.13638790480E+03  0.70130866953E+02 -0.22347912188E+03  0.28242489012E+03  0.79378218463E+02 0.  0.
         -6    2    1    2    0  502 -0.28726979182E+03  0.50831589748E+01 -0.23241194949E+02  0.33604100656E+03  0.17272415335E+03 0.  0.
        -24    2    5    5    0    0 -0.25047661321E+03  0.53450448265E+02 -0.43906511504E+02  0.27168047538E+03  0.79290697852E+02 0.  0.
          5    1    3    3  501    0  0.15088188703E+03 -0.75214025928E+02 -0.28956575174E+03  0.33510134006E+03  0.47000000000E+01 0. -1.
        -11    1    4    4    0    0  0.10502814291E+03  0.71213378575E+02 -0.12133191329E+03  0.17556676586E+03  0.00000000000E+00 0.  1.
         12    1    4    4    0    0  0.31359761883E+02 -0.10825116224E+01 -0.10214720859E+03  0.10685812426E+03  0.00000000000E+00 0. -1.
         -5    1    5    5    0  502 -0.36793178612E+02 -0.48367289291E+02  0.20665316555E+02  0.64360531182E+02  0.47000000000E+01 0.  1.
         11    1    6    6    0    0 -0.10015119588E+03  0.94648717710E+01  0.19912682050E+02  0.10254930883E+03  0.00000000000E+00 0. -1.
        -12    1    6    6    0    0 -0.15032541733E+03  0.43985576494E+02 -0.63819193554E+02  0.16913116655E+03  0.00000000000E+00 0.  1.
</event>
<event>
12    1  0.9028446E-003  0.1951429E+03  0.7818608E-02  0.1154023E+00
         21   -1    0    0  501  502  0.00000000000E+00  0.00000000000E+00  0.28201245884E+03  0.28201245884E+03  0.00000000000E+00 0. -1.
         21   -1    0    0  502  503 -0.00000000000E+00 -0.00000000000E+00 -0.14552218513E+03  0.14552218513E+03  0.00000000000E+00 0.  1.
          6    2    1    2  501    0  0.45184980923E+02  0.80011809801E+02  0.12657914135E+03  0.23214025587E+03  0.17153205870E+03 0.  0.
         24    2    3    3    0    0  0.47300971635E+02  0.93674769147E+02  0.15466902788E+03  0.20048136138E+03  0.72511542419E+02 0.  0.
         -6    2    1    2    0  503 -0.45184980923E+02 -0.80011809801E+02  0.99111323625E+01  0.19539438810E+03  0.17215447757E+03 0.  0.
        -24    2    5    5    0    0 -0.81724744983E+01  0.22277792906E+02 -0.19884981543E+02  0.82509549179E+02  0.76480872240E+02 0.  0.
          5    1    3    3  501    0 -0.21159907123E+01 -0.13662959346E+02 -0.28089886531E+02  0.31658894486E+02  0.47000000000E+01 0. -1.
        -13    1    4    4    0    0  0.12613969428E+02 -0.10992033352E+02  0.14502196696E+02  0.22141606331E+02  0.00000000000E+00 0.  1.
         14    1    4    4    0    0  0.34687002207E+02  0.10466680250E+03  0.14016683119E+03  0.17833975505E+03  0.00000000000E+00 0. -1.
         -5    1    5    5    0  503 -0.37012506424E+02 -0.10228960271E+03  0.29796113905E+02  0.11288483892E+03  0.47000000000E+01 0.  1.
         11    1    6    6    0    0 -0.46774498544E+01 -0.18699474302E+02  0.18161525555E+02  0.26483766476E+02  0.00000000000E+00 0. -1.
        -12    1    6    6    0    0 -0.34950246439E+01  0.40977267207E+02 -0.38046507098E+02  0.56025782702E+02  0.00000000000E+00 0.  1.
</event>
<event>
12    1  0.9028446E-003  0.2054276E+03  0.7818608E-02  0.1145288E+00
         21   -1    0    0  503  502  0.00000000000E+00  0.00000000000E+00  0.70130748944E+03  0.70130748944E+03  0.00000000000E+00 0.  1.
         21   -1    0    0  501  503 -0.00000000000E+00 -0.00000000000E+00 -0.77322035302E+02  0.77322035302E+02  0.00000000000E+00 0. -1.
          6    2    1    2  501    0  0.81491555376E+02  0.78851886562E+02  0.12813594352E+03  0.24191057889E+03  0.17100705992E+03 0.  0.
         24    2    3    3    0    0  0.63321651164E+02 -0.18847618221E+02  0.40562976930E+02  0.10937208210E+03  0.77149420125E+02 0.  0.
         -6    2    1    2    0  502 -0.81491555376E+02 -0.78851886562E+02  0.49584951062E+03  0.53671894586E+03  0.17129505553E+03 0.  0.
        -24    2    5    5    0    0 -0.60802170579E+02  0.20638689509E+02  0.21216316923E+03  0.23534466749E+03  0.79063535763E+02 0.  0.
          5    1    3    3  501    0  0.18169904212E+02  0.97699504783E+02  0.87572966590E+02  0.13253849679E+03  0.47000000000E+01 0. -1.
        -11    1    4    4    0    0  0.22684361205E+02  0.28486072807E+02  0.27505503134E+02  0.45635395144E+02  0.00000000000E+00 0.  1.
         12    1    4    4    0    0  0.40637289959E+02 -0.47333691028E+02  0.13057473796E+02  0.63736686951E+02  0.00000000000E+00 0. -1.
         -5    1    5    5    0  502 -0.20689384797E+02 -0.99490576071E+02  0.28368634139E+03  0.30137427837E+03  0.47000000000E+01 0.  1.
         13    1    6    6    0    0 -0.73682759835E+02  0.22558387361E+01  0.19000362086E+03  0.20380287987E+03  0.00000000000E+00 0. -1.
        -14    1    6    6    0    0  0.12880589257E+02  0.18382850773E+02  0.22159548372E+02  0.31541787619E+02  0.00000000000E+00 0.  1.
</event>
<event>
12    1  0.9028446E-003  0.2639300E+03  0.7818608E-02  0.1104993E+00
         21   -1    0    0  501  502  0.00000000000E+00  0.00000000000E+00  0.16707239906E+04  0.16707239906E+04  0.00000000000E+00 0. -1.
         21   -1    0    0  502  503 -0.00000000000E+00 -0.00000000000E+00 -0.52660811833E+02  0.52660811833E+02  0.00000000000E+00 0.  1.
          6    2    1    2  501    0  0.36904306198E+02 -0.19632892628E+03  0.12043100480E+04  0.12326193604E+04  0.17053099629E+03 0.  0.
         24    2    3    3    0    0  0.18112402350E+02 -0.71147552844E+02  0.29165963537E+03  0.31122021906E+03  0.80016551116E+02 0.  0.
         -6    2    1    2    0  503 -0.36904306198E+02  0.19632892628E+03  0.41375313072E+03  0.49076544204E+03  0.17248794394E+03 0.  0.
        -24    2    5    5    0    0  0.13304014309E+02  0.20058020148E+02  0.16096976460E+03  0.17849340041E+03  0.73275561436E+02 0.  0.
          5    1    3    3  501    0  0.18791903848E+02 -0.12518137343E+03  0.91265041264E+03  0.92139914131E+03  0.47000000000E+01 0. -1.
        -13    1    4    4    0    0  0.15527677810E+02  0.12147072745E+02  0.24974952146E+02  0.31818365595E+02  0.00000000000E+00 0.  1.
         14    1    4    4    0    0  0.25847245404E+01 -0.83294625589E+02  0.26668468322E+03  0.27940185346E+03  0.00000000000E+00 0. -1.
         -5    1    5    5    0  503 -0.50208320507E+02  0.17627090613E+03  0.25278336612E+03  0.31227204163E+03  0.47000000000E+01 0.  1.
         11    1    6    6    0    0 -0.25481363145E+02  0.43965722200E+01  0.10771875560E+03  0.11077887896E+03  0.00000000000E+00 0. -1.
        -12    1    6    6    0    0  0.38785377454E+02  0.15661447928E+02  0.53251009005E+02  0.67714521452E+02  0.00000000000E+00 0.  1.
</event>
<event>
12    1  0.9028446E-003  0.2143290E+03  0.7818608E-02  0.1138537E+00
         21   -1    0    0  503  502  0.00000000000E+00  0.00000000000E+00  0.12933542304E+03  0.12933542304E+03  0.00000000000E+00 0.  1.
         21   -1    0    0  501  503 -0.00000000000E+00 -0.00000000000E+00 -0.37338538199E+03  0.37338538199E+03  0.00000000000E+00 0.  1.
          6    2    1    2  501    0 -0.12076652789E+03 -0.40768785384E+02 -0.18245806901E+03  0.28147444673E+03  0.17230864486E+03 0.  0.
         24    2    3    3    0    0 -0.13122403294E+03 -0.56954152055E+02 -0.19754329153E+03  0.25655498758E+03  0.79583838605E+02 0.  0.
         -6    2    1    2    0  502  0.12076652789E+03  0.40768785384E+02 -0.61591889939E+02  0.22124635830E+03  0.17002865063E+03 0.  0.
        -24    2    5    5    0    0  0.12736616582E+03  0.81314968770E+02 -0.53144321710E+02  0.17904446715E+03  0.79989611481E+02 0.  0.
          5    1    3    3  501    0  0.10457505047E+02  0.16185366670E+02  0.15085222517E+02  0.24919459152E+02  0.47000000000E+01 0. -1.
        -13    1    4    4    0    0 -0.47385859699E+02 -0.59732387918E+02 -0.67653748988E+02  0.10193334890E+03  0.00000000000E+00 0.  1.
         14    1    4    4    0    0 -0.83838173238E+02  0.27782358632E+01 -0.12988954254E+03  0.15462163868E+03  0.00000000000E+00 0. -1.
         -5    1    5    5    0  502 -0.65996379291E+01 -0.40546183386E+02 -0.84475682290E+01  0.42201891153E+02  0.47000000000E+01 0.  1.
         13    1    6    6    0    0  0.32863903977E+02  0.62847150438E+02 -0.42408533628E+01  0.71047768015E+02  0.00000000000E+00 0. -1.
        -14    1    6    6    0    0  0.94502261842E+02  0.18467818333E+02 -0.48903468347E+02  0.10799669913E+03  0.00000000000E+00 0.  1.
</event>
<event>
12    1  0.9028446E-003  0.1926629E+03  0.7818608E-02  0.1157003E+00
         21   -1    0    0  503  502  0.00000000000E+00  0.00000000000E+00  0.44125445474E+02  0.44125445474E+02  0.00000000000E+00 0.  1.
         21   -1    0    0  501  503 -0.00000000000E+00 -0.00000000000E+00 -0.84269723260E+03  0.84269723260E+03  0.00000000000E+00 0.  1.
          6    2    1    2  501    0 -0.39116475601E+02  0.65067369488E+02 -0.46225123096E+03  0.49922686823E+03  0.17259027842E+03 0.  0.
         24    2    3    3    0    0 -0.44640338007E+02  0.99259186267E+02 -0.43351910561E+03  0.45398067040E+03  0.79463754876E+02 0.  0.
         -6    2    1    2    0  502  0.39116475601E+02 -0.65067369488E+02 -0.33632055616E+03  0.38759580984E+03  0.17707380967E+03 0.  0.
        -24    2    5    5    0    0 -0.41555672510E+02 -0.66689057652E+02 -0.15211639575E+03  0.18643943269E+03  0.73796747074E+02 0.  0.
          5    1    3    3  501    0  0.55238624054E+01 -0.34191816779E+02 -0.28732125355E+02  0.45246197829E+02  0.47000000000E+01 0. -1.
        -13    1    4    4    0    0 -0.15412008853E+01  0.82367053833E+02 -0.20721367624E+03  0.22298926987E+03  0.00000000000E+00 0.  1.
         14    1    4    4    0    0 -0.43099137122E+02  0.16892132434E+02 -0.22630542937E+03  0.23099140053E+03  0.00000000000E+00 0. -1.
         -5    1    5    5    0  502  0.80672148112E+02  0.16216881643E+01 -0.18420416041E+03  0.20115637715E+03  0.47000000000E+01 0.  1.
         13    1    6    6    0    0 -0.21211599933E+02 -0.47644516652E+02 -0.27922372590E+02  0.59157339610E+02  0.00000000000E+00 0. -1.
        -14    1    6    6    0    0 -0.20344072577E+02 -0.19044541000E+02 -0.12419402316E+03  0.12728209308E+03  0.00000000000E+00 0.  1.
</event>
<event>
12    1  0.9028446E-003  0.2923513E+03  0.7818608E-02  0.1089287E+00
         21   -1    0    0  501  502  0.00000000000E+00  0.00000000000E+00  0.19025108506E+03  0.19025108506E+03  0.00000000000E+00 0. -1.
         21   -1    0    0  502  503 -0.00000000000E+00 -0.00000000000E+00 -0.45023650163E+03  0.45023650163E+03  0.00000000000E+00 0.  1.
          6    2    1    2  501    0 -0.97266806769E+02  0.21496966742E+03 -0.15588085131E+03  0.33131271056E+03  0.17261657732E+03 0.  0.
         24    2    3    3    0    0 -0.83542383856E+02  0.23158675168E+03 -0.16564841478E+03  0.30718839565E+03  0.79457911162E+02 0.  0.
         -6    2    1    2    0  503  0.97266806769E+02 -0.21496966742E+03 -0.10410456526E+03  0.30917487612E+03  0.17052434990E+03 0.  0.
        -24    2    5    5    0    0  0.25931507637E+02 -0.14949547537E+03 -0.57407784609E+01  0.17106941178E+03  0.78806388489E+02 0.  0.
          5    1    3    3  501    0 -0.13724422912E+02 -0.16617084265E+02  0.97675634731E+01  0.24124314912E+02  0.47000000000E+01 0. -1.
        -11    1    4    4    0    0 -0.92260799487E+02  0.15479820852E+03 -0.10200653622E+03  0.20707456124E+03  0.00000000000E+00 0.  1.
         12    1    4    4    0    0  0.87184156303E+01  0.76788543163E+02 -0.63641878568E+02  0.10011383441E+03  0.00000000000E+00 0. -1.
         -5    1    5    5    0  503  0.71335299132E+02 -0.65474192051E+02 -0.98363786798E+02  0.13810546434E+03  0.47000000000E+01 0.  1.
         11    1    6    6    0    0  0.44307754432E+02 -0.80757823466E+02  0.21993938160E+02  0.94703413189E+02  0.00000000000E+00 0. -1.
        -12    1    6    6    0    0 -0.18376246796E+02 -0.68737651903E+02 -0.27734716621E+02  0.76365998595E+02  0.00000000000E+00 0.  1.
</event>
<event>
12    1  0.9028446E-003  0.2663901E+03  0.7818608E-02  0.1103534E+00
         21   -1    0    0  503  502  0.00000000000E+00  0.00000000000E+00  0.47423074266E+03  0.47423074266E+03  0.00000000000E+00 0.  1.
         21   -1    0    0  501  503 -0.00000000000E+00 -0.00000000000E+00 -0.18137349803E+03  0.18137349803E+03  0.00000000000E+00 0. -1.
          6    2    1    2  501    0  0.19640176898E+02  0.20155807147E+03  0.81688044572E+01  0.26651535950E+03  0.17306737059E+03 0.  0.
         24    2    3    3    0    0 -0.11677529219E+02  0.22022736203E+02 -0.51864037940E+01  0.83719881133E+02  0.79754336020E+02 0.  0.
         -6    2    1    2    0  502 -0.19640176898E+02 -0.20155807147E+03  0.28468844018E+03  0.38908888118E+03  0.17126370534E+03 0.  0.
        -24    2    5    5    0    0 -0.26178919602E+02 -0.18465998168E+03  0.14612654611E+03  0.24926832088E+03  0.77440839696E+02 0.  0.
          5    1    3    3  501    0  0.31317706117E+02  0.17953533527E+03  0.13355208251E+02  0.18279547837E+03  0.47000000000E+01 0. -1.
        -11    1    4    4    0    0 -0.24895871724E+02  0.27992937416E+02 -0.34554838580E+02  0.50965143416E+02  0.00000000000E+00 0.  1.
         12    1    4    4    0    0  0.13218342505E+02 -0.59702012133E+01  0.29368434786E+02  0.32754737717E+02  0.00000000000E+00 0. -1.
         -5    1    5    5    0  502  0.65387427043E+01 -0.16898089793E+02  0.13856189407E+03  0.13982056030E+03  0.47000000000E+01 0.  1.
         11    1    6    6    0    0  0.16564741507E+02 -0.22339488897E+02  0.17519105329E+01  0.27865975954E+02  0.00000000000E+00 0. -1.
        -12    1    6    6    0    0 -0.42743661110E+02 -0.16232049278E+03  0.14437463557E+03  0.22140234492E+03  0.00000000000E+00 0.  1.
</event>
<event>
12    1  0.9028446E-003  0.2363362E+03  0.7818608E-02  0.1122632E+00
         21   -1    0    0  503  502  0.00000000000E+00  0.00000000000E+00  0.71732778519E+03  0.71732778519E+03  0.00000000000E+00 0.  1.
         21   -1    0    0  501  503 -0.00000000000E+00 -0.00000000000E+00 -0.11580313848E+03  0.11580313848E+03  0.00000000000E+00 0.  1.
          6    2    1    2  501    0 -0.13292689341E+03  0.89641363539E+02  0.59144378171E+02  0.24149659566E+03  0.17063825830E+03 0.  0.
         24    2    3    3    0    0 -0.80482048499E+02  0.10587054315E+03 -0.44289687264E+01  0.15736866650E+03  0.84019934503E+02 0.  0.
         -6    2    1    2    0  502  0.13292689341E+03 -0.89641363539E+02  0.54238026854E+03  0.59163432801E+03  0.17363665894E+03 0.  0.
        -24    2    5    5    0    0  0.60669781266E+02 -0.47978301635E+02  0.14118641359E+03  0.18183498658E+03  0.84543593353E+02 0.  0.
          5    1    3    3  501    0 -0.52444844913E+02 -0.16229179615E+02  0.63573346898E+02  0.84127929160E+02  0.47000000000E+01 0. -1.
        -11    1    4    4    0    0 -0.80802715075E+02  0.52225834826E+02  0.20248941788E+02  0.98319053242E+02  0.00000000000E+00 0.  1.
         12    1    4    4    0    0  0.32066657628E+00  0.53644708328E+02 -0.24677910515E+02  0.59049613259E+02  0.00000000000E+00 0. -1.
         -5    1    5    5    0  502  0.72257112147E+02 -0.41663061904E+02  0.40119385495E+03  0.40979934143E+03  0.47000000000E+01 0.  1.
         13    1    6    6    0    0 -0.19216530801E+01  0.75871861658E+01  0.74256165177E+02  0.74667504387E+02  0.00000000000E+00 0. -1.
        -14    1    6    6    0    0  0.62591434346E+02 -0.55565487801E+02  0.66930248413E+02  0.10716748220E+03  0.00000000000E+00 0.  1.
</event>
<event>
12    1  0.9028446E-003  0.2122647E+03  0.7818608E-02  0.1140326E+00
         21   -1    0    0  501  502  0.00000000000E+00  0.00000000000E+00  0.34192276448E+03  0.34192276448E+03  0.00000000000E+00 0. -1.
         21   -1    0    0  502  503 -0.00000000000E+00 -0.00000000000E+00 -0.14311306632E+03  0.14311306632E+03  0.00000000000E+00 0.  1.
          6    2    1    2  501    0  0.12019402101E+03 -0.24662262197E+02  0.17320210157E+03  0.27396213453E+03  0.17320927604E+03 0.  0.
         24    2    3    3    0    0  0.15101979353E+03 -0.10120856312E+02  0.16513172117E+03  0.23862233011E+03  0.82235766691E+02 0.  0.
         -6    2    1    2    0  503 -0.12019402101E+03  0.24662262197E+02  0.25607596596E+02  0.21107369627E+03  0.16982793171E+03 0.  0.
        -24    2    5    5    0    0  0.60338666606E+00  0.13748341298E+02  0.35713167079E+02  0.89273286063E+02  0.80653011957E+02 0.  0.
          5    1    3    3  501    0 -0.30825772519E+02 -0.14541405886E+02  0.80703804024E+01  0.35339804419E+02  0.47000000000E+01 0. -1.
        -11    1    4    4    0    0  0.21977057332E+02 -0.12990681664E+02 -0.40251283904E+01  0.25844738683E+02  0.00000000000E+00 0.  1.
         12    1    4    4    0    0  0.12904273620E+03  0.28698253520E+01  0.16915684956E+03  0.21277759143E+03  0.00000000000E+00 0. -1.
         -5    1    5    5    0  503 -0.12079740768E+03  0.10913920899E+02 -0.10105570482E+02  0.12180041020E+03  0.47000000000E+01 0.  1.
         11    1    6    6    0    0 -0.38973799781E+01 -0.16651811366E+02 -0.19590277141E+02  0.26004833222E+02  0.00000000000E+00 0. -1.
        -12    1    6    6    0    0  0.45007666442E+01  0.30400152664E+02  0.55303444220E+02  0.63268452841E+02  0.00000000000E+00 0.  1.
</event>
<event>
12    1  0.9028446E-003  0.2028475E+03  0.7818608E-02  0.1148232E+00
         21   -1    0    0  501  502  0.00000000000E+00  0.00000000000E+00  0.24924102733E+02  0.24924102733E+02  0.00000000000E+00 0. -1.
         21   -1    0    0  502  503 -0.00000000000E+00 -0.00000000000E+00 -0.18487393741E+04  0.18487393741E+04  0.00000000000E+00 0. -1.
          6    2    1    2  501    0 -0.10295860861E+03 -0.25651522213E+02 -0.57204572951E+03  0.60556486061E+03  0.16797025949E+03 0.  0.
         24    2    3    3    0    0 -0.82244903358E+02  0.44663815662E+02 -0.31245973909E+03  0.33578665402E+03  0.79765330255E+02 0.  0.
         -6    2    1    2    0  503  0.10295860861E+03  0.25651522213E+02 -0.12517695418E+04  0.12680986162E+04  0.17288330998E+03 0.  0.
        -24    2    5    5    0    0  0.36247124227E+02  0.10198107198E+02 -0.10694502309E+04  0.10732867805E+04  0.82479460759E+02 0.  0.
          5    1    3    3  501    0 -0.20713705256E+02 -0.70315337875E+02 -0.25958599042E+03  0.26977820658E+03  0.47000000000E+01 0. -1.
        -13    1    4    4    0    0 -0.18515961742E+02  0.88633193651E+00 -0.56414087733E+01  0.19376581651E+02  0.00000000000E+00 0.  1.
         14    1    4    4    0    0 -0.63728941616E+02  0.43777483725E+02 -0.30681833032E+03  0.31641007237E+03  0.00000000000E+00 0. -1.
         -5    1    5    5    0  503  0.66711484386E+02  0.15453415015E+02 -0.18231931092E+03  0.19481183567E+03  0.47000000000E+01 0.  1.
         13    1    6    6    0    0  0.95236167054E+01  0.12783725416E+02 -0.34680854552E+02  0.38169157485E+02  0.00000000000E+00 0. -1.
        -14    1    6    6    0    0  0.26723507522E+02 -0.25856182182E+01 -0.10347693763E+04  0.10351176230E+04  0.00000000000E+00 0.  1.
</event>
<event>
12    1  0.9028446E-003  0.1973028E+03  0.7818608E-02  0.1152194E+00
         21   -1    0    0  503  502  0.00000000000E+00  0.00000000000E+00  0.31351611031E+02  0.31351611031E+02  0.00000000000E+00 0.  1.
         21   -1    0    0  501  503 -0.00000000000E+00 -0.00000000000E+00 -0.12424397177E+04  0.12424397177E+04  0.00000000000E+00 0.  1.
          6    2    1    2  501    0 -0.84064770038E+02 -0.46994513059E+02 -0.64648608999E+03  0.67570786343E+03  0.17135192540E+03 0.  0.
         24    2    3    3    0    0 -0.10070169421E+03 -0.50643793222E+02 -0.64315607775E+03  0.65772777797E+03  0.79059879583E+02 0.  0.
         -6    2    1    2    0  502  0.84064770038E+02  0.46994513059E+02 -0.56460201666E+03  0.59808346528E+03  0.17220053543E+03 0.  0.
        -24    2    5    5    0    0  0.64861174398E+02  0.21332041396E+02 -0.15448386772E+03  0.18668788117E+03  0.79530319082E+02 0.  0.
          5    1    3    3  501    0  0.16636924172E+02  0.36492801630E+01 -0.33300122333E+01  0.17980085458E+02  0.47000000000E+01 0. -1.
        -13    1    4    4    0    0 -0.56866888788E+02 -0.19643149911E+02 -0.51879913740E+03  0.52227602027E+03  0.00000000000E+00 0.  1.
         14    1    4    4    0    0 -0.43834805421E+02 -0.31000643311E+02 -0.12435694035E+03  0.13545175771E+03  0.00000000000E+00 0. -1.
         -5    1    5    5    0  502  0.19203595639E+02  0.25662471663E+02 -0.41011814894E+03  0.41139558411E+03  0.47000000000E+01 0.  1.
         11    1    6    6    0    0  0.39174152000E+01  0.33259090502E+02 -0.94862016647E+02  0.10059977855E+03  0.00000000000E+00 0. -1.
        -12    1    6    6    0    0  0.60943759198E+02 -0.11927049106E+02 -0.59621851076E+02  0.86088102612E+02  0.00000000000E+00 0.  1.
</event>
<event>
12    1  0.9028446E-003  0.1910877E+03  0.7818608E-02  0.1158131E+00
         21   -1    0    0  501  502  0.00000000000E+00  0.00000000000E+00  0.16669731809E+03  0.16669731809E+03  0.00000000000E+00 0. -1.
         21   -1    0    0  502  503 -0.00000000000E+00 -0.00000000000E+00 -0.23236480651E+03  0.23236480651E+03  0.00000000000E+00 0.  1.
          6    2    1    2  501    0  0.73815045102E+02 -0.31288503036E+02  0.20251279495E+02  0.19215783153E+03  0.17345571940E+03 0.  0.
         24    2    3    3    0    0  0.36149632460E+02  0.24143284169E+02  0.64372879776E+02  0.11178263664E+03  0.80385297830E+02 0.  0.
         -6    2    1    2    0  503 -0.73815045102E+02  0.31288503036E+02 -0.85918767922E+02  0.20690429307E+03  0.17029304302E+03 0.  0.
        -24    2    5    5    0    0  0.24516949322E+02 -0.43228230235E+01 -0.37145111278E+02  0.91412703531E+02  0.79729263586E+02 0.  0.
          5    1    3    3  501    0  0.37665412642E+02 -0.55431787205E+02 -0.44121600281E+02  0.80375194889E+02  0.47000000000E+01 0. -1.
        -13    1    4    4    0    0  0.23519237636E+02  0.42743250464E+02  0.59071800600E+01  0.49143003321E+02  0.00000000000E+00 0.  1.
         14    1    4    4    0    0  0.12630394824E+02 -0.18599966295E+02  0.58465699716E+02  0.62639633323E+02  0.00000000000E+00 0. -1.
         -5    1    5    5    0  503 -0.98331994423E+02  0.35611326060E+02 -0.48773656644E+02  0.11549158954E+03  0.47000000000E+01 0.  1.
         11    1    6    6    0    0 -0.11767195238E+02  0.11971392489E+02  0.17221892404E+02  0.24049422027E+02  0.00000000000E+00 0. -1.
        -12    1    6    6    0    0  0.36284144559E+02 -0.16294215513E+02 -0.54367003682E+02  0.67363281503E+02  0.00000000000E+00 0.  1.
</event>
<event>
12    1  0.9028446E-003  0.1838472E+03  0.7818608E-02  0.1165122E+00
         21   -1    0    0  501  502  0.00000000000E+00  0.00000000000E+00  0.38205444498E+03  0.38205444498E+03  0.00000000000E+00 0.  1.
         21   -1    0    0  502  503 -0.00000000000E+00 -0.00000000000E+00 -0.86495291135E+02  0.86495291135E+02  0.00000000000E+00 0.  1.
          6    2    1    2  501    0  0.15831159254E+02 -0.65446728233E+02  0.14610505651E+03  0.23483290851E+03  0.17107281356E+03 0.  0.
         24    2    3    3    0    0 -0.19236992846E+02 -0.44897806827E+02  0.10927813516E+02  0.93599022750E+02  0.79091624082E+02 0.  0.
         -6    2    1    2    0  503 -0.15831159254E+02  0.65446728233E+02  0.14945409733E+03  0.23371682760E+03  0.16659270229E+03 0.  0.
        -24    2    5    5    0    0 -0.84324694632E+01 -0.62119431779E+01  0.13964421319E+03  0.16086060189E+03  0.79157641348E+02 0.  0.
          5    1    3    3  501    0  0.35068152100E+02 -0.20548921406E+02  0.13517724300E+03  0.14123388576E+03  0.47000000000E+01 0. -1.
        -13    1    4    4    0    0  0.22099671275E+02 -0.42273860919E+02  0.19094631534E+02  0.51381706287E+02  0.00000000000E+00 0.  1.
         14    1    4    4    0    0 -0.41336664121E+02 -0.26239459074E+01 -0.81668180178E+01  0.42217316463E+02  0.00000000000E+00 0. -1.
         -5    1    5    5    0  503 -0.73986897904E+01  0.71658671411E+02  0.98098841450E+01  0.72856225718E+02  0.47000000000E+01 0.  1.
         13    1    6    6    0    0  0.27814130399E+01  0.14289189879E+02 -0.41838192966E+01  0.15146667944E+02  0.00000000000E+00 0. -1.
        -14    1    6    6    0    0 -0.11213882503E+02 -0.20501133057E+02  0.14382803248E+03  0.14571393394E+03  0.00000000000E+00 0.  1.
</event>
<event>
12    1  0.9028446E-003  0.2056700E+03  0.7818608E-02  0.1146412E+00
         21   -1    0    0  503  502  0.00000000000E+00  0.00000000000E+00  0.63765606020E+03  0.63765606020E+03  0.00000000000E+00 0. -1.
         21   -1    0    0  501  503 -0.00000000000E+00 -0.00000000000E+00 -0.65266531254E+02  0.65266531254E+02  0.00000000000E+00 0.  1.
          6    2    1    2  501    0 -0.42696609972E+02  0.90979539216E+02  0.32610466331E+03  0.38205443116E+03  0.17181693711E+03 0.  0.
         24    2    3    3    0    0  0.35069385856E+02  0.72890311911E+02  0.15556170184E+03  0.19368839930E+03  0.82297591397E+02 0.  0.
         -6    2    1    2    0  502  0.42696609972E+02 -0.90979539216E+02  0.24628486563E+03  0.32086816029E+03  0.17944320603E+03 0.  0.
        -24    2    5    5    0    0  0.23765517924E+02 -0.13340263227E+03  0.17313558649E+03  0.23408675612E+03  0.80371735966E+02 0.  0.
          5    1    3    3  501    0 -0.77765995828E+02  0.18089227306E+02  0.17054296147E+03  0.18836603186E+03  0.47000000000E+01 0. -1.
        -11    1    4    4    0    0 -0.43782315446E+00  0.56510997406E+01 -0.10003112507E+02  0.11497342181E+02  0.00000000000E+00 0.  1.
         12    1    4    4    0    0  0.35507209010E+02  0.67239212170E+02  0.16556481435E+03  0.18219105712E+03  0.00000000000E+00 0. -1.
         -5    1    5    5    0  502  0.18931092047E+02  0.42423093058E+02  0.73149279142E+02  0.86781404169E+02  0.47000000000E+01 0.  1.
         13    1    6    6    0    0 -0.23345612938E+02 -0.48219784528E+02  0.31257371875E+02  0.62025708862E+02  0.00000000000E+00 0. -1.
        -14    1    6    6    0    0  0.47111130862E+02 -0.85182847746E+02  0.14187821462E+03  0.17206104726E+03  0.00000000000E+00 0.  1.
</event>
<event>
12    1  0.9028446E-003  0.2890073E+03  0.7818608E-02  0.1090924E+00
         21   -1    0    0  503  502  0.00000000000E+00  0.00000000000E+00  0.11334552431E+04  0.11334552431E+04  0.00000000000E+00 0. -1.
         21   -1    0    0  501  503 -0.00000000000E+00 -0.00000000000E+00 -0.74480514716E+02  0.74480514716E+02  0.00000000000E+00 0. -1.
          6    2    1    2  501    0 -0.16703180187E+03 -0.16098910869E+03  0.46355145090E+03  0.54626475037E+03  0.17236041862E+03 0.  0.
         24    2    3    3    0    0 -0.16446078801E+03 -0.12621271886E+03  0.46026211574E+03  0.51092472876E+03  0.78904132178E+02 0.  0.
         -6    2    1    2    0  502  0.16703180187E+03  0.16098910869E+03  0.59542327752E+03  0.66167100749E+03  0.17164651696E+03 0.  0.
        -24    2    5    5    0    0  0.88530442933E+02  0.11248303005E+03  0.50798178486E+03  0.53445698445E+03  0.84313125314E+02 0.  0.
          5    1    3    3  501    0 -0.25710138602E+01 -0.34776389822E+02  0.32893351589E+01  0.35340021606E+02  0.47000000000E+01 0. -1.
        -13    1    4    4    0    0 -0.13994300945E+02 -0.52171321809E+02  0.10551047792E+03  0.11853332117E+03  0.00000000000E+00 0.  1.
         14    1    4    4    0    0 -0.15046648706E+03 -0.74041397055E+02  0.35475163783E+03  0.39239140759E+03  0.00000000000E+00 0. -1.
         -5    1    5    5    0  502  0.78501358938E+02  0.48506078636E+02  0.87441492663E+02  0.12721402304E+03  0.47000000000E+01 0.  1.
         13    1    6    6    0    0  0.10327594724E+03  0.96464719606E+02  0.39810742975E+03  0.42244631497E+03  0.00000000000E+00 0. -1.
        -14    1    6    6    0    0 -0.14745504307E+02  0.16018310444E+02  0.10987435510E+03  0.11201066948E+03  0.00000000000E+00 0.  1.
</event>
<event>
12    1  0.9028446E-003  0.1842544E+03  0.7818608E-02  0.1164101E+00
         21   -1    0    0  503  502  0.00000000000E+00  0.00000000000E+00  0.87067574664E+02  0.87067574664E+02  0.00000000000E+00 0. -1.
         21   -1    0    0  501  503 -0.00000000000E+00 -0.00000000000E+00 -0.38705726305E+03  0.38705726305E+03  0.00000000000E+00 0. -1.
          6    2    1    2  501    0  0.53366961301E+02  0.41416739421E+02 -0.15716899553E+03  0.24218131230E+03  0.17142437402E+03 0.  0.
         24    2    3    3    0    0  0.32590078773E+02 -0.17899643453E+02 -0.16500014168E+02  0.88038636694E+02  0.78077145268E+02 0.  0.
         -6    2    1    2    0  502 -0.53366961301E+02 -0.41416739421E+02 -0.14282069285E+03  0.23194352542E+03  0.16981363259E+03 0.  0.
        -24    2    5    5    0    0  0.98847618596E+01  0.10231401190E+02 -0.18952744252E+02  0.83506098860E+02  0.80072916425E+02 0.  0.
          5    1    3    3  501    0  0.20776882528E+02  0.59316382874E+02 -0.14066898137E+03  0.15414267561E+03  0.47000000000E+01 0. -1.
        -11    1    4    4    0    0 -0.18383186483E+02 -0.28642210254E+02 -0.10412111175E+02  0.35591147953E+02  0.00000000000E+00 0.  1.
         12    1    4    4    0    0  0.50973265256E+02  0.10742566801E+02 -0.60879029929E+01  0.52447488740E+02  0.00000000000E+00 0. -1.
         -5    1    5    5    0  502 -0.63251723160E+02 -0.51648140612E+02 -0.12386794860E+03  0.14843742656E+03  0.47000000000E+01 0.  1.
         13    1    6    6    0    0 -0.23493866935E+02 -0.10669189556E+02  0.16408241513E+02  0.30578158527E+02  0.00000000000E+00 0. -1.
        -14    1    6    6    0    0  0.33378628794E+02  0.20900590746E+02 -0.35360985765E+02  0.52927940334E+02  0.00000000000E+00 0.  1.
</event>
<event>
12    1  0.9028446E-003  0.2177680E+03  0.7818608E-02  0.1135845E+00
         21   -1    0    0  503  502  0.00000000000E+00  0.00000000000E+00  0.87673744804E+02  0.87673744804E+02  0.00000000000E+00 0. -1.
         21   -1    0    0  501  503 -0.00000000000E+00 -0.00000000000E+00 -0.70108004362E+03  0.70108004362E+03  0.00000000000E+00 0. -1.
          6    2    1    2  501    0 -0.99959782156E+02  0.87628867504E+02 -0.49822608567E+03  0.54373904653E+03  0.17248809178E+03 0.  0.
         24    2    3    3    0    0 -0.12373785916E+03  0.11267440675E+03 -0.45903054374E+03  0.49128853185E+03  0.51466510652E+02 0.  0.
         -6    2    1    2    0  502  0.99959782156E+02 -0.87628867504E+02 -0.11518021314E+03  0.24501474190E+03  0.17057246489E+03 0.  0.
        -24    2    5    5    0    0  0.45569521792E+01 -0.92876912699E+02 -0.61518548641E+02  0.13532925433E+03  0.76698034683E+02 0.  0.
          5    1    3    3  501    0  0.23778077003E+02 -0.25045539250E+02 -0.39195541936E+02  0.52450514677E+02  0.47000000000E+01 0. -1.
        -13    1    4    4    0    0 -0.86742266764E+01  0.31059002197E+02 -0.61016908620E+02  0.69014251886E+02  0.00000000000E+00 0.  1.
         14    1    4    4    0    0 -0.11506363248E+03  0.81615404558E+02 -0.39801363512E+03  0.42227427997E+03  0.00000000000E+00 0. -1.
         -5    1    5    5    0  502  0.95402829977E+02  0.52480451950E+01 -0.53661664503E+02  0.10968548757E+03  0.47000000000E+01 0.  1.
         13    1    6    6    0    0  0.35630681712E+02 -0.49557913179E+02 -0.11269265478E+02  0.62068740782E+02  0.00000000000E+00 0. -1.
        -14    1    6    6    0    0 -0.31073729532E+02 -0.43318999521E+02 -0.50249283163E+02  0.73260513545E+02  0.00000000000E+00 0.  1.
</event>
<event>
12    1  0.9028446E-003  0.1845166E+03  0.7818608E-02  0.1163641E+00
         21   -1    0    0  501  502  0.00000000000E+00  0.00000000000E+00  0.80665657046E+03  0.80665657046E+03  0.00000000000E+00 0. -1.
         21   -1    0    0  502  503 -0.00000000000E+00 -0.00000000000E+00 -0.78641131629E+02  0.78641131629E+02  0.00000000000E+00 0. -1.
          6    2    1    2  501    0 -0.45304989219E+02  0.51092397878E+02  0.66554741277E+03  0.69049361334E+03  0.17077791500E+03 0.  0.
         24    2    3    3    0    0 -0.89646690415E+02  0.55236088736E+02  0.56896161713E+03  0.58403111967E+03  0.79293583454E+02 0.  0.
         -6    2    1    2    0  503  0.45304989219E+02 -0.51092397878E+02  0.62468026055E+02  0.19480408874E+03  0.17141587891E+03 0.  0.
        -24    2    5    5    0    0 -0.78351819312E+01 -0.83120561294E+02  0.21223250526E+02  0.12015221301E+03  0.83759836096E+02 0.  0.
          5    1    3    3  501    0  0.44341701195E+02 -0.41436908571E+01  0.96585795642E+02  0.10646249367E+03  0.47000000000E+01 0. -1.
        -11    1    4    4    0    0 -0.73576305963E+02  0.47255335955E+02  0.25537033407E+03  0.26992692919E+03  0.00000000000E+00 0.  1.
         12    1    4    4    0    0 -0.16070384452E+02  0.79807527804E+01  0.31359128306E+03  0.31410419049E+03  0.00000000000E+00 0. -1.
         -5    1    5    5    0  503  0.53140171151E+02  0.32028163415E+02  0.41244775529E+02  0.74651875730E+02  0.47000000000E+01 0.  1.
         13    1    6    6    0    0  0.37567634703E+02 -0.28945478523E+02  0.11519234202E+02  0.48804309858E+02  0.00000000000E+00 0. -1.
        -14    1    6    6    0    0 -0.45402816634E+02 -0.54175082771E+02  0.97040163239E+01  0.71347903153E+02  0.00000000000E+00 0.  1.
</event>
<event>
12    1  0.9028446E-003  0.1791805E+03  0.7818608E-02  0.1169525E+00
         21   -1    0    0  501  502  0.00000000000E+00  0.00000000000E+00  0.12152455964E+04  0.12152455964E+04  0.00000000000E+00 0.  1.
         21   -1    0    0  502  503 -0.00000000000E+00 -0.00000000000E+00 -0.44337685886E+02  0.44337685886E+02  0.00000000000E+00 0.  1.
          6    2    1    2  501    0  0.34443493672E+02  0.18216406435E+01  0.99555278961E+03  0.10115488235E+04  0.17582944237E+03 0.  0.
         24    2    3    3    0    0 -0.27008307925E+02  0.31314914034E+02  0.30246226783E+03  0.31509872588E+03  0.78062225535E+02 0.  0.
         -6    2    1    2    0  503 -0.34443493672E+02 -0.18216406435E+01  0.17535512093E+03  0.24803445880E+03  0.17199419085E+03 0.  0.
        -24    2    5    5    0    0 -0.55071120100E+02 -0.55035460609E+01  0.29671874821E+02  0.10077701894E+03  0.78819224192E+02 0.  0.
          5    1    3    3  501    0  0.61451801597E+02 -0.29493273391E+02  0.69309052179E+03  0.69645009763E+03  0.47000000000E+01 0. -1.
        -11    1    4    4    0    0 -0.87520343051E+01 -0.10215078154E+01  0.25347294072E+03  0.25362605004E+03  0.00000000000E+00 0.  1.
         12    1    4    4    0    0 -0.18256273620E+02  0.32336421850E+02  0.48989327108E+02  0.61472675841E+02  0.00000000000E+00 0. -1.
         -5    1    5    5    0  503  0.20627626428E+02  0.36819054174E+01  0.14568324611E+03  0.14725743987E+03  0.47000000000E+01 0.  1.
         11    1    6    6    0    0  0.60499079679E+01 -0.23160154781E+02  0.28402295342E+02  0.37144105004E+02  0.00000000000E+00 0. -1.
        -12    1    6    6    0    0 -0.61121028068E+02  0.17656608720E+02  0.12695794792E+01  0.63632913933E+02  0.00000000000E+00 0.  1.
</event>
<event>
12    1  0.9028446E-003  0.2216576E+03  0.7818608E-02  0.1132816E+00
         21   -1    0    0  503  502  0.00000000000E+00  0.00000000000E+00  0.64472581549E+02  0.64472581549E+02  0.00000000000E+00 0. -1.
         21   -1    0    0  501  503 -0.00000000000E+00 -0.00000000000E+00 -0.93811596614E+03  0.93811596614E+03  0.00000000000E+00 0.  1.
          6    2    1    2  501    0  0.11971335150E+03  0.67926405499E+02 -0.65514032261E+03  0.69133995370E+03  0.17261751413E+03 0.  0.
         24    2    3    3    0    0 -0.46646680929E+01  0.41346588939E+02 -0.34917325714E+03  0.35995752574E+03  0.76916560596E+02 0.  0.
         -6    2    1    2    0  502 -0.11971335150E+03 -0.67926405499E+02 -0.21850306198E+03  0.31124859399E+03  0.17374353535E+03 0.  0.
        -24    2    5    5    0    0 -0.71810547740E+02  0.29496758711E+02 -0.13113594659E+03  0.17181741246E+03  0.79358510530E+02 0.  0.
          5    1    3    3  501    0  0.12437801959E+03  0.26579816559E+02 -0.30596706547E+03  0.33138242796E+03  0.47000000000E+01 0. -1.
        -11    1    4    4    0    0  0.31154557025E+02  0.29499847240E+02 -0.11457298260E+03  0.12234302494E+03  0.00000000000E+00 0.  1.
         12    1    4    4    0    0 -0.35819225118E+02  0.11846741700E+02 -0.23460027454E+03  0.23761450080E+03  0.00000000000E+00 0. -1.
         -5    1    5    5    0  502 -0.47902803756E+02 -0.97423164209E+02 -0.87367115394E+02  0.13943118154E+03  0.47000000000E+01 0.  1.
         11    1    6    6    0    0 -0.66797889636E+02  0.12913627823E+02 -0.39733167766E+02  0.78787336953E+02  0.00000000000E+00 0. -1.
        -12    1    6    6    0    0 -0.50126581048E+01  0.16583130888E+02 -0.91402778825E+02  0.93030075503E+02  0.00000000000E+00 0.  1.
</event>
<event>
12    1  0.9028446E-003  0.2417438E+03  0.7818608E-02  0.1118898E+00
         21   -1    0    0  501  502  0.00000000000E+00  0.00000000000E+00  0.10244608057E+04  0.10244608057E+04  0.00000000000E+00 0.  1.
         21   -1    0    0  502  503 -0.00000000000E+00 -0.00000000000E+00 -0.58291061622E+02  0.58291061622E+02  0.00000000000E+00 0.  1.
          6    2    1    2  501    0  0.47381208878E+02  0.16260245623E+03  0.39440746457E+03  0.46259844325E+03  0.17249792423E+03 0.  0.
         24    2    3    3    0    0  0.91288058299E+02  0.77780689347E+02  0.25264073402E+03  0.29159423438E+03  0.82562169370E+02 0.  0.
         -6    2    1    2    0  503 -0.47381208878E+02 -0.16260245623E+03  0.57176227948E+03  0.62015342405E+03  0.17027515201E+03 0.  0.
        -24    2    5    5    0    0  0.11552973426E+00 -0.16396237605E+03  0.51321061013E+03  0.54460094199E+03  0.79507116418E+02 0.  0.
          5    1    3    3  501    0 -0.43906849421E+02  0.84821766880E+02  0.14176673055E+03  0.17100420888E+03  0.47000000000E+01 0. -1.
        -11    1    4    4    0    0  0.51468154386E+02  0.90224771436E+02  0.18180171604E+03  0.20938324731E+03  0.00000000000E+00 0.  1.
         12    1    4    4    0    0  0.39819903913E+02 -0.12444082090E+02  0.70839017979E+02  0.82210987069E+02  0.00000000000E+00 0. -1.
         -5    1    5    5    0  503 -0.47496738612E+02  0.13599198233E+01  0.58551669358E+02  0.75552482059E+02  0.47000000000E+01 0.  1.
         11    1    6    6    0    0 -0.10787299628E+02 -0.27949232780E+02  0.20969780789E+03  0.21182704284E+03  0.00000000000E+00 0. -1.
        -12    1    6    6    0    0  0.10902829363E+02 -0.13601314327E+03  0.30351280224E+03  0.33277389914E+03  0.00000000000E+00 0.  1.
</event>
<event>
12    1  0.9028446E-003  0.2540547E+03  0.7818608E-02  0.1110794E+00
         21   -1    0    0  501  502  0.00000000000E+00  0.00000000000E+00  0.54049250470E+03  0.54049250470E+03  0.00000000000E+00 0. -1.
         21   -1    0    0  502  503 -0.00000000000E+00 -0.00000000000E+00 -0.20325412733E+03  0.20325412733E+03  0.00000000000E+00 0. -1.
          6    2    1    2  501    0  0.11528631102E+02  0.18662298925E+03  0.40759489435E+03  0.48028886023E+03  0.17199634271E+03 0.  0.
         24    2    3    3    0    0 -0.30428901735E+02  0.16322937841E+03  0.38549355508E+03  0.42720162271E+03  0.79537396228E+02 0.  0.
         -6    2    1    2    0  503 -0.11528631102E+02 -0.18662298925E+03 -0.70356516983E+02  0.26345777179E+03  0.17175246311E+03 0.  0.
        -24    2    5    5    0    0  0.51702932693E+02 -0.87621371114E+02 -0.68555900512E+02  0.14587850801E+03  0.78929903574E+02 0.  0.
          5    1    3    3  501    0  0.41957532837E+02  0.23393610836E+02  0.22101339271E+02  0.53087237518E+02  0.47000000000E+01 0. -1.
        -11    1    4    4    0    0 -0.19872504077E+02  0.19541507078E+01  0.68975102477E+02  0.71807380435E+02  0.00000000000E+00 0.  1.
         12    1    4    4    0    0 -0.10556397658E+02  0.16127522770E+03  0.31651845261E+03  0.35539424228E+03  0.00000000000E+00 0. -1.
         -5    1    5    5    0  503 -0.63231563796E+02 -0.99001618135E+02 -0.18006164716E+01  0.11757926379E+03  0.47000000000E+01 0.  1.
         13    1    6    6    0    0 -0.11077070685E+02 -0.27829363467E+02 -0.48320480984E+02  0.56851067259E+02  0.00000000000E+00 0. -1.
        -14    1    6    6    0    0  0.62780003378E+02 -0.59792007647E+02 -0.20235419528E+02  0.89027440748E+02  0.00000000000E+00 0.  1.
</event>
<event>
12    1  0.9028446E-003  0.2135029E+03  0.7818608E-02  0.1138848E+00
         21   -1    0    0  503  502  0.00000000000E+00  0.00000000000E+00  0.19420802254E+03  0.19420802254E+03  0.00000000000E+00 0.  1.
         21   -1    0    0  501  503 -0.00000000000E+00 -0.00000000000E+00 -0.23484202032E+03  0.23484202032E+03  0.00000000000E+00 0.  1.
          6    2    1    2  501    0 -0.10834277897E+02  0.12665813401E+03 -0.12915410012E+02  0.21375534686E+03  0.17136182774E+03 0.  0.
         24    2    3    3    0    0  0.60139912924E+02  0.77909824908E+02  0.13456882287E+01  0.12635281643E+03  0.79224197055E+02 0.  0.
         -6    2    1    2    0  502  0.10834277897E+02 -0.12665813401E+03 -0.27718587762E+02  0.21529469600E+03  0.17153373292E+03 0.  0.
        -24    2    5    5    0    0  0.31879473974E+02 -0.15422611138E+03 -0.13815038316E+02  0.17763447373E+03  0.81000967161E+02 0.  0.
          5    1    3    3  501    0 -0.70974190821E+02  0.48748309107E+02 -0.14261098241E+02  0.87402530435E+02  0.47000000000E+01 0. -1.
        -11    1    4    4    0    0  0.25684780058E+02  0.77131101920E+02 -0.22610125602E+02  0.84380878105E+02  0.00000000000E+00 0.  1.
         12    1    4    4    0    0  0.34455132867E+02  0.77872298729E+00  0.23955813831E+02  0.41971938324E+02  0.00000000000E+00 0. -1.
         -5    1    5    5    0  502 -0.21045196077E+02  0.27567977368E+02 -0.13903549446E+02  0.37660222268E+02  0.47000000000E+01 0.  1.
         13    1    6    6    0    0  0.52129941141E+02 -0.55383059929E+02 -0.24143669361E+01  0.76096276243E+02  0.00000000000E+00 0. -1.
        -14    1    6    6    0    0 -0.20250467167E+02 -0.98843051453E+02 -0.11400671380E+02  0.10153819749E+03  0.00000000000E+00 0.  1.
</event>
<event>
12    1  0.9028446E-003  0.2610038E+03  0.7818608E-02  0.1106670E+00
         21   -1    0    0  503  502  0.00000000000E+00  0.00000000000E+00  0.25543150797E+03  0.25543150797E+03  0.00000000000E+00 0. -1.
         21   -1    0    0  501  503 -0.00000000000E+00 -0.00000000000E+00 -0.27064302494E+03  0.27064302494E+03  0.00000000000E+00 0.  1.
          6    2    1    2  501    0 -0.12574543229E+03  0.14937809449E+03  0.27521143237E+02  0.26159571787E+03  0.17189874179E+03 0.  0.
         24    2    3    3    0    0 -0.19472618750E+02  0.11279470673E+03  0.46284332943E+02  0.14755010224E+03  0.80789630820E+02 0.  0.
         -6    2    1    2    0  502  0.12574543229E+03 -0.14937809449E+03 -0.42732660211E+02  0.26447881504E+03  0.17319709727E+03 0.  0.
        -24    2    5    5    0    0  0.46091041234E+02 -0.49814461200E+01 -0.32721236427E+02  0.99198650835E+02  0.81366418913E+02 0.  0.
          5    1    3    3  501    0 -0.10627281354E+03  0.36583387757E+02 -0.18763189705E+02  0.11404561563E+03  0.47000000000E+01 0. -1.
        -13    1    4    4    0    0 -0.22123202548E+02  0.14928695000E+02 -0.16376286807E+02  0.31312693831E+02  0.00000000000E+00 0.  1.
         14    1    4    4    0    0  0.26505837987E+01  0.97866011732E+02  0.62660619749E+02  0.11623740841E+03  0.00000000000E+00 0. -1.
         -5    1    5    5    0  502  0.79654391051E+02 -0.14439664837E+03 -0.10011423783E+02  0.16528016421E+03  0.47000000000E+01 0.  1.
         11    1    6    6    0    0 -0.67087237746E+01  0.16670276840E+02  0.16077844767E+02  0.24112283114E+02  0.00000000000E+00 0. -1.
        -12    1    6    6    0    0  0.52799765009E+02 -0.21651722960E+02 -0.48799081194E+02  0.75086367721E+02  0.00000000000E+00 0.  1.
</event>
<event>
12    1  0.9028446E-003  0.2538263E+03  0.7818608E-02  0.1111178E+00
         21   -1    0    0  501  502  0.00000000000E+00  0.00000000000E+00  0.12346821337E+03  0.12346821337E+03  0.00000000000E+00 0. -1.
         21   -1    0    0  502  503 -0.00000000000E+00 -0.00000000000E+00 -0.66017765552E+03  0.66017765552E+03  0.00000000000E+00 0. -1.
          6    2    1    2  501    0 -0.89961274177E+02 -0.16321589151E+03 -0.85981001528E+02  0.26636074572E+03  0.16977295470E+03 0.  0.
         24    2    3    3    0    0  0.23942296422E+01 -0.24874928341E+02 -0.95654769415E+01  0.83250987455E+02  0.78833585277E+02 0.  0.
         -6    2    1    2    0  503  0.89961274177E+02  0.16321589151E+03 -0.45072844063E+03  0.51728512317E+03  0.17232328156E+03 0.  0.
        -24    2    5    5    0    0 -0.10230981788E+02  0.52611856882E+02 -0.24536379856E+03  0.26337870962E+03  0.79323833506E+02 0.  0.
          5    1    3    3  501    0 -0.92355503819E+02 -0.13834096317E+03 -0.76415524586E+02  0.18310975827E+03  0.47000000000E+01 0. -1.
        -13    1    4    4    0    0 -0.26259874611E+02 -0.10739789565E+02 -0.33079999888E+02  0.43579932160E+02  0.00000000000E+00 0.  1.
         14    1    4    4    0    0  0.28654104254E+02 -0.14135138776E+02  0.23514522947E+02  0.39671055295E+02  0.00000000000E+00 0. -1.
         -5    1    5    5    0  503  0.10019225596E+03  0.11060403463E+03 -0.20536464207E+03  0.25390641355E+03  0.47000000000E+01 0.  1.
         13    1    6    6    0    0  0.19813429796E+02 -0.15895187910E+01 -0.13791148538E+03  0.13933655791E+03  0.00000000000E+00 0. -1.
        -14    1    6    6    0    0 -0.30044411584E+02  0.54201375673E+02 -0.10745231318E+03  0.12404215171E+03  0.00000000000E+00 0.  1.
</event>
<event>
12    1  0.9028446E-003  0.1868555E+03  0.7818608E-02  0.1161331E+00
         21   -1    0    0  501  502  0.00000000000E+00  0.00000000000E+00  0.59121900849E+02  0.59121900849E+02  0.00000000000E+00 0.  1.
         21   -1    0    0  502  503 -0.00000000000E+00 -0.00000000000E+00 -0.60164563446E+03  0.60164563446E+03  0.00000000000E+00 0.  1.
          6    2    1    2  501    0  0.49362076637E+02  0.54095084227E+02 -0.22636015125E+03  0.29351985014E+03  0.17190721802E+03 0.  0.
         24    2    3    3    0    0 -0.10410700936E+02  0.21213379941E+02 -0.41966772486E+02  0.96855162037E+02  0.84031674016E+02 0.  0.
         -6    2    1    2    0  503 -0.49362076637E+02 -0.54095084227E+02 -0.31616358236E+03  0.36724768517E+03  0.17189694209E+03 0.  0.
        -24    2    5    5    0    0 -0.16608094947E+02  0.17484120236E+02 -0.25267026958E+03  0.26600591219E+03  0.79594955308E+02 0.  0.
          5    1    3    3  501    0  0.59772777573E+02  0.32881704286E+02 -0.18439337877E+03  0.19666468811E+03  0.47000000000E+01 0. -1.
        -13    1    4    4    0    0 -0.36879150564E+02  0.38525540557E+02 -0.36830672537E+02  0.64813482094E+02  0.00000000000E+00 0.  1.
         14    1    4    4    0    0  0.26468449629E+02 -0.17312160616E+02 -0.51360999482E+01  0.32041679944E+02  0.00000000000E+00 0. -1.
         -5    1    5    5    0  503 -0.32753981691E+02 -0.71579204463E+02 -0.63493312781E+02  0.10124177298E+03  0.47000000000E+01 0.  1.
         13    1    6    6    0    0  0.46949508750E+01  0.22289102264E+02 -0.14863925931E+02  0.27198951037E+02  0.00000000000E+00 0. -1.
        -14    1    6    6    0    0 -0.21303045822E+02 -0.48049820281E+01 -0.23780634365E+03  0.23880696115E+03  0.00000000000E+00 0.  1.
</event>
<event>
12    1  0.9028446E-003  0.2072131E+03  0.7818608E-02  0.1144425E+00
         21   -1    0    0  503  502  0.00000000000E+00  0.00000000000E+00  0.53261506752E+03  0.53261506752E+03  0.00000000000E+00 0. -1.
         21   -1    0    0  501  503 -0.00000000000E+00 -0.00000000000E+00 -0.83647579737E+02  0.83647579737E+02  0.00000000000E+00 0. -1.
          6    2    1    2  501    0 -0.10932110775E+03 -0.10613406147E+02  0.15673157029E+03  0.25981158603E+03  0.17570863986E+03 0.  0.
         24    2    3    3    0    0 -0.80624394662E+02 -0.73858509580E+02  0.85060807721E+02  0.15990046224E+03  0.79858902837E+02 0.  0.
         -6    2    1    2    0  502  0.10932110775E+03  0.10613406147E+02  0.29223591749E+03  0.35645106122E+03  0.17202261068E+03 0.  0.
        -24    2    5    5    0    0  0.72551236357E+02  0.17460854893E+02  0.29891821628E+03  0.31816719891E+03  0.79433639494E+02 0.  0.
          5    1    3    3  501    0 -0.28696713085E+02  0.63245103433E+02  0.71670762572E+02  0.99911123795E+02  0.47000000000E+01 0. -1.
        -11    1    4    4    0    0 -0.47230629681E+02 -0.29564427955E+02  0.88214928962E+02  0.10433916557E+03  0.00000000000E+00 0.  1.
         12    1    4    4    0    0 -0.33393764982E+02 -0.44294081625E+02 -0.31541212414E+01  0.55561296668E+02  0.00000000000E+00 0. -1.
         -5    1    5    5    0  502  0.36769871391E+02 -0.68474487460E+01 -0.66822987964E+01  0.38283862313E+02  0.47000000000E+01 0.  1.
         13    1    6    6    0    0 -0.13379630476E+02 -0.31906631527E+01  0.13090982192E+02  0.18988645496E+02  0.00000000000E+00 0. -1.
        -14    1    6    6    0    0  0.85930866833E+02  0.20651518045E+02  0.28582723409E+03  0.29917855341E+03  0.00000000000E+00 0.  1.
</event>
<event>
12    1  0.9028446E-003  0.1854745E+03  0.7818608E-02  0.1163350E+00
         21   -1    0    0  503  502  0.00000000000E+00  0.00000000000E+00  0.12476954756E+04  0.12476954756E+04  0.00000000000E+00 0. -1.
         21   -1    0    0  501  503 -0.00000000000E+00 -0.00000000000E+00 -0.43796203309E+02  0.43796203309E+02  0.00000000000E+00 0. -1.
          6    2    1    2  501    0 -0.12412288657E+02  0.68614125617E+02  0.20009338308E+03  0.27069440753E+03  0.16845218066E+03 0.  0.
         24    2    3    3    0    0 -0.55069277673E+02  0.78983366675E+02  0.97642449931E+02  0.15913534884E+03  0.80740409137E+02 0.  0.
         -6    2    1    2    0  502  0.12412288657E+02 -0.68614125617E+02  0.10038058892E+04  0.10207972714E+04  0.17186867924E+03 0.  0.
        -24    2    5    5    0    0 -0.22568508749E+02 -0.79627191387E+02  0.94039262053E+03  0.94739239109E+03  0.79776154085E+02 0.  0.
          5    1    3    3  501    0  0.42656989015E+02 -0.10369241057E+02  0.10245093315E+03  0.11155905869E+03  0.47000000000E+01 0. -1.
        -13    1    4    4    0    0 -0.15705774928E+02  0.46480646221E+02  0.96290469578E+02  0.10806931281E+03  0.00000000000E+00 0.  1.
         14    1    4    4    0    0 -0.39363502745E+02  0.32502720453E+02  0.13519803523E+01  0.51066036032E+02  0.00000000000E+00 0. -1.
         -5    1    5    5    0  502  0.34980797407E+02  0.11013065770E+02  0.63413268659E+02  0.73404880266E+02  0.47000000000E+01 0.  1.
         11    1    6    6    0    0  0.26406196909E+02 -0.52977529929E+02  0.48102409711E+03  0.48465254349E+03  0.00000000000E+00 0. -1.
        -12    1    6    6    0    0 -0.48974705658E+02 -0.26649661459E+02  0.45936852342E+03  0.46273984760E+03  0.00000000000E+00 0.  1.
</event>
<event>
12    1  0.9028446E-003  0.1922924E+03  0.7818608E-02  0.1157169E+00
         21   -1    0    0  503  502  0.00000000000E+00  0.00000000000E+00  0.27746290299E+03  0.27746290299E+03  0.00000000000E+00 0.  1.
         21   -1    0    0  501  503 -0.00000000000E+00 -0.00000000000E+00 -0.13096939848E+03  0.13096939848E+03  0.00000000000E+00 0.  1.
          6    2    1    2  501    0  0.30132607893E+02 -0.73005800877E+02  0.70251920386E+02  0.20472343447E+03  0.17532407503E+03 0.  0.
         24    2    3    3    0    0 -0.11351507675E+02  0.21819215801E+02  0.89550097169E+01  0.84340225968E+02  0.80175723337E+02 0.  0.
         -6    2    1    2    0  502 -0.30132607893E+02  0.73005800877E+02  0.76241584122E+02  0.20370886700E+03  0.17160041469E+03 0.  0.
        -24    2    5    5    0    0  0.71373124145E+01  0.99385939823E+02  0.90165080687E+02  0.15574103979E+03  0.78721175269E+02 0.  0.
          5    1    3    3  501    0  0.41484115568E+02 -0.94825016679E+02  0.61296910669E+02  0.12038320851E+03  0.47000000000E+01 0. -1.
        -11    1    4    4    0    0  0.25304754756E+02 -0.13134915281E+02  0.16790236119E+02  0.33087288219E+02  0.00000000000E+00 0.  1.
         12    1    4    4    0    0 -0.36656262431E+02  0.34954131083E+02 -0.78352264026E+01  0.51252937749E+02  0.00000000000E+00 0. -1.
         -5    1    5    5    0  502 -0.37269920307E+02 -0.26380138946E+02 -0.13923496564E+02  0.47967827209E+02  0.47000000000E+01 0.  1.
         11    1    6    6    0    0 -0.22892503094E+02 -0.27507902551E+00  0.15719106435E+02  0.27771076203E+02  0.00000000000E+00 0. -1.
        -12    1    6    6    0    0  0.30029815508E+02  0.99661018849E+02  0.74445974252E+02  0.12796996358E+03  0.00000000000E+00 0.  1.
</event>
<event>
12    1  0.9028446E-003  0.2137406E+03  0.7818608E-02  0.1138709E+00
         21   -1    0    0  501  502  0.00000000000E+00  0.00000000000E+00  0.25925586629E+03  0.25925586629E+03  0.00000000000E+00 0.  1.
         21   -1    0    0  502  503 -0.00000000000E+00 -0.00000000000E+00 -0.18453471670E+03  0.18453471670E+03  0.00000000000E+00 0.  1.
          6    2    1    2  501    0 -0.12495603116E+03 -0.20984002906E+02  0.85360000586E+02  0.23015514665E+03  0.17213577120E+03 0.  0.
         24    2    3    3    0    0 -0.64277916856E+02 -0.29628062573E+02  0.11911002297E+03  0.16002877975E+03  0.80078337201E+02 0.  0.
         -6    2    1    2    0  503  0.12495603116E+03  0.20984002906E+02 -0.10638850993E+02  0.21363543634E+03  0.17167578865E+03 0.  0.
        -24    2    5    5    0    0  0.22647369708E+02 -0.18483739218E+02 -0.48689156364E+02  0.97468829196E+02  0.79214813938E+02 0.  0.
          5    1    3    3  501    0 -0.60678114308E+02  0.86440596672E+01 -0.33750022385E+02  0.70126366899E+02  0.47000000000E+01 0. -1.
        -13    1    4    4    0    0 -0.41052571080E+01  0.18318432397E+02  0.66021424546E+00  0.18784408010E+02  0.00000000000E+00 0.  1.
         14    1    4    4    0    0 -0.60172659748E+02 -0.47946494970E+02  0.11844980872E+03  0.14124437174E+03  0.00000000000E+00 0. -1.
         -5    1    5    5    0  503  0.10230866146E+03  0.39467742123E+02  0.38050305371E+02  0.11616660715E+03  0.47000000000E+01 0.  1.
         13    1    6    6    0    0 -0.12552074133E+02  0.60513106259E+01 -0.52571609848E+02  0.54387012120E+02  0.00000000000E+00 0. -1.
        -14    1    6    6    0    0  0.35199443841E+02 -0.24535049844E+02  0.38824534837E+01  0.43081817076E+02  0.00000000000E+00 0.  1.
</event>
<event>
12    1  0.9028446E-003  0.1891051E+03  0.7818608E-02  0.1160499E+00
         21   -1    0    0  503  502  0.00000000000E+00  0.00000000000E+00  0.11813296082E+03  0.11813296082E+03  0.00000000000E+00 0.  1.
         21   -1    0    0  501  503 -0.00000000000E+00 -0.00000000000E+00 -0.31211072202E+03  0.31211072202E+03  0.00000000000E+00 0.  1.
          6    2    1    2  501    0 -0.57930215315E+02  0.44293771234E+02 -0.14714894561E+03  0.23542665855E+03  0.16868625121E+03 0.  0.
         24    2    3    3    0    0  0.22429460360E+02 -0.22524507205E+01 -0.10245041482E+03  0.13225555355E+03  0.80543713108E+02 0.  0.
         -6    2    1    2    0  502  0.57930215315E+02 -0.44293771234E+02 -0.46828815580E+02  0.19481702428E+03  0.17447890120E+03 0.  0.
        -24    2    5    5    0    0  0.58001760723E+02  0.16146169906E+02  0.22264848258E+02  0.10289849521E+03  0.80420605564E+02 0.  0.
          5    1    3    3  501    0 -0.80359675675E+02  0.46546221954E+02 -0.44698530792E+02  0.10317110500E+03  0.47000000000E+01 0. -1.
        -11    1    4    4    0    0 -0.16141712680E+01  0.11599496416E+02 -0.10381515254E+03  0.10447363190E+03  0.00000000000E+00 0.  1.
         12    1    4    4    0    0  0.24043631628E+02 -0.13851947137E+02  0.13647377178E+01  0.27781921647E+02  0.00000000000E+00 0. -1.
         -5    1    5    5    0  502 -0.71545408735E-01 -0.60439941140E+02 -0.69093663838E+02  0.91918529070E+02  0.47000000000E+01 0.  1.
         13    1    6    6    0    0  0.43058222135E+02  0.44913190932E+02 -0.22439314975E+01  0.62259460660E+02  0.00000000000E+00 0. -1.
        -14    1    6    6    0    0  0.14943538589E+02 -0.28767021026E+02  0.24508779755E+02  0.40639034552E+02  0.00000000000E+00 0.  1.
</event>
<event>
12    1  0.9028446E-003  0.2907621E+03  0.7818608E-02  0.1090680E+00
         21   -1    0    0  503  502  0.00000000000E+00  0.00000000000E+00  0.20548095875E+03  0.20548095875E+03  0.00000000000E+00 0. -1.
         21   -1    0    0  501  503 -0.00000000000E+00 -0.00000000000E+00 -0.51083274615E+03  0.51083274615E+03  0.00000000000E+00 0. -1.
          6    2    1    2  501    0  0.20596670704E+03 -0.11045497007E+03 -0.31790253658E+03  0.43081856121E+03  0.17297405902E+03 0.  0.
         24    2    3    3    0    0  0.46791640955E+02 -0.12010370890E+02 -0.55460779366E+02  0.10844330363E+03  0.79689054339E+02 0.  0.
         -6    2    1    2    0  502 -0.20596670704E+03  0.11045497007E+03  0.12550749172E+02  0.28549514369E+03  0.16348507865E+03 0.  0.
        -24    2    5    5    0    0 -0.15459452865E+03  0.90839682683E+02 -0.50219493102E+02  0.20191252871E+03  0.78072757880E+02 0.  0.
          5    1    3    3  501    0  0.15917506609E+03 -0.98444599180E+02 -0.26244175721E+03  0.32237525758E+03  0.47000000000E+01 0. -1.
        -13    1    4    4    0    0  0.12467268062E+02  0.27074788006E+02 -0.47127372062E+02  0.55762587063E+02  0.00000000000E+00 0.  1.
         14    1    4    4    0    0  0.34324372893E+02 -0.39085158895E+02 -0.83334073041E+01  0.52680716564E+02  0.00000000000E+00 0. -1.
         -5    1    5    5    0  502 -0.51372178393E+02  0.19615287387E+02  0.62770242274E+02  0.83582614982E+02  0.47000000000E+01 0.  1.
         11    1    6    6    0    0 -0.45608184095E+02 -0.22645576978E+01  0.94784666664E+01  0.46637710154E+02  0.00000000000E+00 0. -1.
        -12    1    6    6    0    0 -0.10898634456E+03  0.93104240381E+02 -0.59697959768E+02  0.15527481855E+03  0.00000000000E+00 0.  1.
</event>
<event>
12    1  0.9028446E-003  0.1776407E+03  0.7818608E-02  0.1171133E+00
         21   -1    0    0  503  502  0.00000000000E+00  0.00000000000E+00  0.12643499833E+04  0.12643499833E+04  0.00000000000E+00 0.  1.
         21   -1    0    0  501  503 -0.00000000000E+00 -0.00000000000E+00 -0.25188287506E+02  0.25188287506E+02  0.00000000000E+00 0.  1.
          6    2    1    2  501    0  0.44218836601E+02 -0.13815487543E+02  0.74190731428E+03  0.76287788509E+03  0.17149353159E+03 0.  0.
         24    2    3    3    0    0  0.79691327010E+02 -0.36672483163E+02  0.66045977801E+03  0.67102729452E+03  0.79843177530E+02 0.  0.
         -6    2    1    2    0  502 -0.44218836601E+02  0.13815487543E+02  0.49725438149E+03  0.52666038569E+03  0.16722161563E+03 0.  0.
        -24    2    5    5    0    0  0.19263316306E+02 -0.26758845920E+02  0.36064557613E+03  0.37058246933E+03  0.78606766886E+02 0.  0.
          5    1    3    3  501    0 -0.35472490408E+02  0.22856995620E+02  0.81447536265E+02  0.91850590571E+02  0.47000000000E+01 0. -1.
        -13    1    4    4    0    0  0.54017183798E+02 -0.24452737100E+02  0.61181813357E+03  0.61468465173E+03  0.00000000000E+00 0.  1.
         14    1    4    4    0    0  0.25674143212E+02 -0.12219746063E+02  0.48641644439E+02  0.56342642796E+02  0.00000000000E+00 0. -1.
         -5    1    5    5    0  502 -0.63482152908E+02  0.40574333463E+02  0.13660880536E+03  0.15607791637E+03  0.47000000000E+01 0.  1.
         13    1    6    6    0    0  0.73165594581E+01  0.23560525459E+02  0.20702500627E+03  0.20848976863E+03  0.00000000000E+00 0. -1.
        -14    1    6    6    0    0  0.11946756848E+02 -0.50319371379E+02  0.15362056986E+03  0.16209270070E+03  0.00000000000E+00 0.  1.
</event>
<event>
12    1  0.9028446E-003  0.1999171E+03  0.7818608E-02  0.1150403E+00
         21   -1    0    0  501  502  0.00000000000E+00  0.00000000000E+00  0.16418409983E+02  0.16418409983E+02  0.00000000000E+00 0. -1.
         21   -1    0    0  502  503 -0.00000000000E+00 -0.00000000000E+00 -0.24064891621E+04  0.24064891621E+04  0.00000000000E+00 0. -1.
          6    2    1    2  501    0  0.22074123235E+02 -0.97026764963E+02 -0.11257050913E+04  0.11428343867E+04  0.17016763203E+03 0.  0.
         24    2    3    3    0    0  0.39910889307E+02 -0.21193296110E+02 -0.30905924745E+03  0.32246776782E+03  0.80161137493E+02 0.  0.
         -6    2    1    2    0  503 -0.22074123235E+02  0.97026764963E+02 -0.12643656609E+04  0.12800731854E+04  0.17339370071E+03 0.  0.
        -24    2    5    5    0    0 -0.61455193596E+02  0.11686439956E+03 -0.10395448447E+04  0.10509206383E+04  0.79666022299E+02 0.  0.
          5    1    3    3  501    0 -0.17836766072E+02 -0.75833468854E+02 -0.81664584381E+03  0.82036661892E+03  0.47000000000E+01 0. -1.
        -11    1    4    4    0    0  0.30593557786E+02  0.15795621205E+02 -0.24865762646E+03  0.25103004327E+03  0.00000000000E+00 0.  1.
         12    1    4    4    0    0  0.93173315208E+01 -0.36988917315E+02 -0.60401620982E+02  0.71437724544E+02  0.00000000000E+00 0. -1.
         -5    1    5    5    0  503  0.39381070361E+02 -0.19837634602E+02 -0.22482081615E+03  0.22915254706E+03  0.47000000000E+01 0.  1.
         13    1    6    6    0    0 -0.55578421582E+02  0.32526752051E+02 -0.58923255775E+03  0.59274105448E+03  0.00000000000E+00 0. -1.
        -14    1    6    6    0    0 -0.58767720142E+01  0.84337647514E+02 -0.45031228699E+03  0.45817958384E+03  0.00000000000E+00 0.  1.
</event>
<event>
12    1  0.9028446E-003  0.2533297E+03  0.7818608E-02  0.1111230E+00
         21   -1    0    0  503  502  0.00000000000E+00  0.00000000000E+00  0.19046000420E+03  0.19046000420E+03  0.00000000000E+00 0. -1.
         21   -1    0    0  501  503 -0.00000000000E+00 -0.00000000000E+00 -0.33687280173E+03  0.33687280173E+03  0.00000000000E+00 0.  1.
          6    2    1    2  501    0  0.12568163561E+03 -0.13641288610E+03 -0.71161995160E+02  0.26306279227E+03  0.17243449219E+03 0.  0.
         24    2    3    3    0    0  0.13897021484E+03 -0.12692000439E+03 -0.16684204571E+02  0.20599598222E+03  0.82064449561E+02 0.  0.
         -6    2    1    2    0  502 -0.12568163561E+03  0.13641288610E+03 -0.75250802374E+02  0.26427001367E+03  0.17254450974E+03 0.  0.
        -24    2    5    5    0    0 -0.12957861059E+03  0.13400361898E+03 -0.10860449517E+03  0.23027663482E+03  0.80528292847E+02 0.  0.
          5    1    3    3  501    0 -0.13288579229E+02 -0.94928817062E+01 -0.54477790589E+02  0.57066810043E+02  0.47000000000E+01 0. -1.
        -13    1    4    4    0    0  0.34604473695E+02 -0.74594528811E+02 -0.32020508283E+02  0.88244695472E+02  0.00000000000E+00 0.  1.
         14    1    4    4    0    0  0.10436574115E+03 -0.52325475581E+02  0.15336303712E+02  0.11775128675E+03  0.00000000000E+00 0. -1.
         -5    1    5    5    0  502  0.38969749777E+01  0.24092671145E+01  0.33353692798E+02  0.33993378845E+02  0.47000000000E+01 0.  1.
         13    1    6    6    0    0 -0.51512551087E+02  0.15223509140E+02 -0.41293498758E+01  0.53873459889E+02  0.00000000000E+00 0. -1.
        -14    1    6    6    0    0 -0.78066059506E+02  0.11878010984E+03 -0.10447514530E+03  0.17640317493E+03  0.00000000000E+00 0.  1.
</event>
<event>
12    1  0.9028446E-003  0.2329280E+03  0.7818608E-02  0.1124828E+00
         21   -1    0    0  501  502  0.00000000000E+00  0.00000000000E+00  0.28447407825E+03  0.28447407825E+03  0.00000000000E+00 0. -1.
         21   -1    0    0  502  503 -0.00000000000E+00 -0.00000000000E+00 -0.19146731372E+03  0.19146731372E+03  0.00000000000E+00 0.  1.
          6    2    1    2  501    0 -0.83081182547E+02 -0.13485064417E+03  0.69684571984E+02  0.24184869330E+03  0.16896056271E+03 0.  0.
         24    2    3    3    0    0 -0.10565721826E+03 -0.10808411346E+03  0.42136012025E+01  0.16745338048E+03  0.71953157294E+02 0.  0.
         -6    2    1    2    0  503  0.83081182547E+02  0.13485064417E+03  0.23322192546E+02  0.23409269866E+03  0.17078725882E+03 0.  0.
        -24    2    5    5    0    0  0.98620218004E+02  0.15357658316E+03  0.40874829369E+02  0.20372318313E+03  0.80750661761E+02 0.  0.
          5    1    3    3  501    0  0.22576035715E+02 -0.26766530711E+02  0.65470970781E+02  0.74395312823E+02  0.47000000000E+01 0. -1.
        -11    1    4    4    0    0  0.33612799460E+01 -0.30535097086E+02 -0.11382864044E+02  0.32760646373E+02  0.00000000000E+00 0.  1.
         12    1    4    4    0    0 -0.10901849821E+03 -0.77549016377E+02  0.15596465246E+02  0.13469273411E+03  0.00000000000E+00 0. -1.
         -5    1    5    5    0  503 -0.15539035457E+02 -0.18725938990E+02 -0.17552636823E+02  0.30369515528E+02  0.47000000000E+01 0.  1.
         11    1    6    6    0    0  0.22374933708E+02  0.68816056202E+02  0.52096782781E+02  0.89164802618E+02  0.00000000000E+00 0. -1.
        -12    1    6    6    0    0  0.76245284295E+02  0.84760526962E+02 -0.11221953413E+02  0.11455838052E+03  0.00000000000E+00 0.  1.
</event>
<event>
12    1  0.9028446E-003  0.1721671E+03  0.7818608E-02  0.1175741E+00
         21   -1    0    0  501  502  0.00000000000E+00  0.00000000000E+00  0.48580458954E+03  0.48580458954E+03  0.00000000000E+00 0.  1.
         21   -1    0    0  502  503 -0.00000000000E+00 -0.00000000000E+00 -0.61942838625E+02  0.61942838625E+02  0.00000000000E+00 0.  1.
          6    2    1    2  501    0 -0.76455468132E+01 -0.60004406818E+01  0.17490794823E+03  0.24506027835E+03  0.17136887114E+03 0.  0.
         24    2    3    3    0    0 -0.63912991039E+02 -0.34157901578E+02  0.10079269819E+03  0.14772565876E+03  0.80075399356E+02 0.  0.
         -6    2    1    2    0  503  0.76455468132E+01  0.60004406818E+01  0.24895380269E+03  0.30268714981E+03  0.17189256853E+03 0.  0.
        -24    2    5    5    0    0  0.65151946232E+02 -0.31706702974E+01  0.21249972677E+03  0.23382435215E+03  0.72545603144E+02 0.  0.
          5    1    3    3  501    0  0.56267444226E+02  0.28157460896E+02  0.74115250034E+02  0.97334619594E+02  0.47000000000E+01 0. -1.
        -11    1    4    4    0    0 -0.16891479574E+02 -0.54282362908E+02  0.52627208380E+02  0.77469478292E+02  0.00000000000E+00 0.  1.
         12    1    4    4    0    0 -0.47021511465E+02  0.20124461330E+02  0.48165489814E+02  0.70256180463E+02  0.00000000000E+00 0. -1.
         -5    1    5    5    0  503 -0.57506399419E+02  0.91711109792E+01  0.36454075921E+02  0.68862797663E+02  0.47000000000E+01 0.  1.
         11    1    6    6    0    0  0.20854751369E+02 -0.32113230286E+02  0.50327906899E+02  0.63238267109E+02  0.00000000000E+00 0. -1.
        -12    1    6    6    0    0  0.44297194864E+02  0.28942559988E+02  0.16217181987E+03  0.17058608504E+03  0.00000000000E+00 0.  1.
</event>
<event>
12    1  0.9028446E-003  0.2044198E+03  0.7818608E-02  0.1146621E+00
         21   -1    0    0  501  502  0.00000000000E+00  0.00000000000E+00  0.13720373829E+03  0.13720373829E+03  0.00000000000E+00 0. -1.
         21   -1    0    0  502  503 -0.00000000000E+00 -0.00000000000E+00 -0.33462700516E+03  0.33462700516E+03  0.00000000000E+00 0. -1.
          6    2    1    2  501    0  0.19251537512E+02 -0.10401470441E+03 -0.17340779540E+03  0.26600505986E+03  0.17175199545E+03 0.  0.
         24    2    3    3    0    0 -0.27519695768E+02 -0.20195041015E+02 -0.27451149686E+02  0.91251757576E+02  0.80050885722E+02 0.  0.
         -6    2    1    2    0  503 -0.19251537512E+02  0.10401470441E+03 -0.24015471477E+02  0.20582568358E+03  0.17492223621E+03 0.  0.
        -24    2    5    5    0    0  0.45327514565E+01 -0.12027535360E+02 -0.26643286071E+02  0.87248749816E+02  0.82080888209E+02 0.  0.
          5    1    3    3  501    0  0.46771233280E+02 -0.83819663390E+02 -0.14595664571E+03  0.17475330229E+03  0.47000000000E+01 0. -1.
        -13    1    4    4    0    0  0.17752313317E+02 -0.90744421693E+01 -0.38487932021E+02  0.43345253951E+02  0.00000000000E+00 0.  1.
         14    1    4    4    0    0 -0.45272009085E+02 -0.11120598846E+02  0.11036782335E+02  0.47906503625E+02  0.00000000000E+00 0. -1.
         -5    1    5    5    0  503 -0.23784288968E+02  0.11604223976E+03  0.26278145938E+01  0.11857693376E+03  0.47000000000E+01 0.  1.
         11    1    6    6    0    0 -0.24441549211E+02 -0.11799038385E+01 -0.45037135231E+02  0.51255488006E+02  0.00000000000E+00 0. -1.
        -12    1    6    6    0    0  0.28974300667E+02 -0.10847631521E+02  0.18393849160E+02  0.35993261810E+02  0.00000000000E+00 0.  1.
</event>
<event>
12    1  0.9028446E-003  0.2105762E+03  0.7818608E-02  0.1141242E+00
         21   -1    0    0  501  502  0.00000000000E+00  0.00000000000E+00  0.14909903063E+03  0.14909903063E+03  0.00000000000E+00 0.  1.
         21   -1    0    0  502  503 -0.00000000000E+00 -0.00000000000E+00 -0.29648403651E+03  0.29648403651E+03  0.00000000000E+00 0.  1.
          6    2    1    2  501    0  0.89594221905E+02  0.80794546688E+02 -0.72058756661E+02  0.22256410645E+03  0.17259036385E+03 0.  0.
         24    2    3    3    0    0  0.10781495883E+03  0.86832336393E+02 -0.10146176649E+03  0.18713703847E+03  0.74577886250E+02 0.  0.
         -6    2    1    2    0  503 -0.89594221905E+02 -0.80794546688E+02 -0.75326249216E+02  0.22301896069E+03  0.17178046930E+03 0.  0.
        -24    2    5    5    0    0 -0.74616472299E+02  0.59183979247E+01 -0.11246981998E+02  0.11406158263E+03  0.85328217231E+02 0.  0.
          5    1    3    3  501    0 -0.18220736920E+02 -0.60377897047E+01  0.29403009831E+02  0.35427067978E+02  0.47000000000E+01 0. -1.
        -11    1    4    4    0    0  0.84346498190E+02  0.28813466294E+02 -0.83230123855E+02  0.12194999432E+03  0.00000000000E+00 0.  1.
         12    1    4    4    0    0  0.23468460635E+02  0.58018870099E+02 -0.18231642636E+02  0.65187044152E+02  0.00000000000E+00 0. -1.
         -5    1    5    5    0  503 -0.14977749606E+02 -0.86712944613E+02 -0.64079267218E+02  0.10895737806E+03  0.47000000000E+01 0.  1.
         13    1    6    6    0    0 -0.18092870068E+02  0.31574540822E+02  0.23115029739E+02  0.43111578204E+02  0.00000000000E+00 0. -1.
        -14    1    6    6    0    0 -0.56523602231E+02 -0.25656142898E+02 -0.34362011737E+02  0.70950004427E+02  0.00000000000E+00 0.  1.
</event>
<event>
12    1  0.9028446E-003  0.2117870E+03  0.7818608E-02  0.1141120E+00
         21   -1    0    0  503  502  0.00000000000E+00  0.00000000000E+00  0.18423228821E+04  0.18423228821E+04  0.00000000000E+00 0.  1.
         21   -1    0    0  501  503 -0.00000000000E+00 -0.00000000000E+00 -0.25163557296E+02  0.25163557296E+02  0.00000000000E+00 0.  1.
          6    2    1    2  501    0 -0.11741759988E+03 -0.15544131535E+02  0.68063199023E+03  0.71139469078E+03  0.16968791107E+03 0.  0.
         24    2    3    3    0    0 -0.92198078216E+02 -0.55369577829E+02  0.31222653636E+03  0.33995592209E+03  0.80736256923E+02 0.  0.
         -6    2    1    2    0  502  0.11741759988E+03  0.15544131535E+02  0.11365273346E+04  0.11560917486E+04  0.17557117131E+03 0.  0.
        -24    2    5    5    0    0  0.80783654981E+02 -0.37911104828E+02  0.96652514728E+03  0.97409630390E+03  0.82033518531E+02 0.  0.
          5    1    3    3  501    0 -0.25219521659E+02  0.39825446293E+02  0.36840545387E+03  0.37143876869E+03  0.47000000000E+01 0. -1.
        -11    1    4    4    0    0 -0.84286608153E+02 -0.66865950821E+01  0.18127062165E+03  0.20001995186E+03  0.00000000000E+00 0.  1.
         12    1    4    4    0    0 -0.79114700628E+01 -0.48682982747E+02  0.13095591471E+03  0.13993597024E+03  0.00000000000E+00 0. -1.
         -5    1    5    5    0  502  0.36633944894E+02  0.53455236363E+02  0.17000218732E+03  0.18199544474E+03  0.47000000000E+01 0.  1.
         13    1    6    6    0    0 -0.86157440898E+01 -0.28981826483E+02  0.18995821691E+03  0.19234942548E+03  0.00000000000E+00 0. -1.
        -14    1    6    6    0    0  0.89399399071E+02 -0.89292783452E+01  0.77656693037E+03  0.78174687842E+03  0.00000000000E+00 0.  1.
</event>
<event>
12    1  0.9028446E-003  0.1889907E+03  0.7818608E-02  0.1159476E+00
         21   -1    0    0  503  502  0.00000000000E+00  0.00000000000E+00  0.66896249539E+03  0.66896249539E+03  0.00000000000E+00 0.  1.
         21   -1    0    0  501  503 -0.00000000000E+00 -0.00000000000E+00 -0.77751013090E+02  0.77751013090E+02  0.00000000000E+00 0.  1.
          6    2    1    2  501    0 -0.77164237177E+02 -0.42732815437E+01  0.86328882902E+02  0.20777433293E+03  0.17246714750E+03 0.  0.
         24    2    3    3    0    0 -0.81531344401E+02 -0.61024982554E+02  0.14418758248E+02  0.11594305709E+03  0.53511524772E+02 0.  0.
         -6    2    1    2    0  502  0.77164237177E+02  0.42732815437E+01  0.50488259940E+03  0.53893917556E+03  0.17197795015E+03 0.  0.
        -24    2    5    5    0    0  0.14468812026E+02  0.48103717582E+02  0.38785806752E+03  0.39905116849E+03  0.79275723711E+02 0.  0.
          5    1    3    3  501    0  0.43671072233E+01  0.56751701010E+02  0.71910124654E+02  0.91831275831E+02  0.47000000000E+01 0. -1.
        -13    1    4    4    0    0 -0.40293273144E+02 -0.61826125398E+02  0.92715566873E+01  0.74377277483E+02  0.00000000000E+00 0.  1.
         14    1    4    4    0    0 -0.41238071257E+02  0.80114284341E+00  0.51472015609E+01  0.41565779612E+02  0.00000000000E+00 0. -1.
         -5    1    5    5    0  502  0.62695425151E+02 -0.43830436038E+02  0.11702453188E+03  0.13988800707E+03  0.47000000000E+01 0.  1.
         13    1    6    6    0    0  0.14900301587E+02  0.17709328138E+02  0.21997757457E+02  0.31930246219E+02  0.00000000000E+00 0. -1.
        -14    1    6    6    0    0 -0.43148956076E+00  0.30394389444E+02  0.36586031006E+03  0.36712092227E+03  0.00000000000E+00 0.  1.
</event>
<event>
12    1  0.9028446E-003  0.1847243E+03  0.7818608E-02  0.1163413E+00
         21   -1    0    0  503  502  0.00000000000E+00  0.00000000000E+00  0.64415624662E+02  0.64415624662E+02  0.00000000000E+00 0.  1.
         21   -1    0    0  501  503 -0.00000000000E+00 -0.00000000000E+00 -0.81161364539E+03  0.81161364539E+03  0.00000000000E+00 0.  1.
          6    2    1    2  501    0  0.41433673750E+02 -0.51638259636E+02 -0.63262114046E+03  0.65903914099E+03  0.17245237842E+03 0.  0.
         24    2    3    3    0    0  0.71446066444E+02 -0.86040773696E+02 -0.49885205816E+03  0.51761589655E+03  0.81026448048E+02 0.  0.
         -6    2    1    2    0  502 -0.41433673750E+02  0.51638259636E+02 -0.11457688027E+03  0.21699012906E+03  0.17196975152E+03 0.  0.
        -24    2    5    5    0    0  0.97919263298E+01 -0.52794492409E+01 -0.11538628776E+03  0.14026703718E+03  0.78975261393E+02 0.  0.
          5    1    3    3  501    0 -0.30012392694E+02  0.34402514060E+02 -0.13376908230E+03  0.14142324444E+03  0.47000000000E+01 0. -1.
        -13    1    4    4    0    0 -0.18140052749E+02 -0.16670489400E+02 -0.79829966121E+02  0.83545138826E+02  0.00000000000E+00 0.  1.
         14    1    4    4    0    0  0.89586119192E+02 -0.69370284296E+02 -0.41902209204E+03  0.43407075773E+03  0.00000000000E+00 0. -1.
         -5    1    5    5    0  502 -0.51225600080E+02  0.56917708877E+02  0.80940748516E+00  0.76723091881E+02  0.47000000000E+01 0.  1.
         11    1    6    6    0    0 -0.33218351104E+02 -0.12898738158E+02 -0.59226524285E+02  0.69120311596E+02  0.00000000000E+00 0. -1.
        -12    1    6    6    0    0  0.43010277434E+02  0.76192889170E+01 -0.56159763471E+02  0.71146725587E+02  0.00000000000E+00 0.  1.
</event>
<event>
12    1  0.9028446E-003  0.1763622E+03  0.7818608E-02  0.1171488E+00
         21   -1    0    0  503  502  0.00000000000E+00  0.00000000000E+00  0.29449022098E+03  0.29449022098E+03  0.00000000000E+00 0.  1.
         21   -1    0    0  501  503 -0.00000000000E+00 -0.00000000000E+00 -0.12213015354E+03  0.12213015354E+03  0.00000000000E+00 0.  1.
          6    2    1    2  501    0  0.29648632709E+02  0.23741838551E+02  0.90352518120E+01  0.17659345753E+03  0.17222339315E+03 0.  0.
         24    2    3    3    0    0 -0.35781311174E+02  0.55579554404E+02  0.63029175555E+01  0.10362583898E+03  0.79556260830E+02 0.  0.
         -6    2    1    2    0  502 -0.29648632709E+02 -0.23741838551E+02  0.16332481563E+03  0.24002691698E+03  0.17174169312E+03 0.  0.
        -24    2    5    5    0    0 -0.51619195721E+02 -0.71859711406E+02  0.13103381524E+03  0.17787521521E+03  0.81494613065E+02 0.  0.
          5    1    3    3  501    0  0.65429943884E+02 -0.31837715852E+02  0.27323342565E+01  0.72967618556E+02  0.47000000000E+01 0. -1.
        -13    1    4    4    0    0 -0.35327927527E+02  0.34189912365E+02 -0.32766750398E+02  0.59081913497E+02  0.00000000000E+00 0.  1.
         14    1    4    4    0    0 -0.45338364698E+00  0.21389642039E+02  0.39069667953E+02  0.44543925481E+02  0.00000000000E+00 0. -1.
         -5    1    5    5    0  502  0.21970563012E+02  0.48117872855E+02  0.32291000392E+02  0.62151701775E+02  0.47000000000E+01 0.  1.
         11    1    6    6    0    0  0.10225621223E+02  0.87726154245E+01  0.37181660568E+02  0.39547414497E+02  0.00000000000E+00 0. -1.
        -12    1    6    6    0    0 -0.61844816944E+02 -0.80632326831E+02  0.93852154669E+02  0.13832780071E+03  0.00000000000E+00 0.  1.
</event>
<event>
12    1  0.9028446E-003  0.2629966E+03  0.7818608E-02  0.1105425E+00
         21   -1    0    0  501  502  0.00000000000E+00  0.00000000000E+00  0.25388470507E+03  0.25388470507E+03  0.00000000000E+00 0. -1.
         21   -1    0    0  502  503 -0.00000000000E+00 -0.00000000000E+00 -0.28611927366E+03  0.28611927366E+03  0.00000000000E+00 0.  1.
          6    2    1    2  501    0 -0.18482529524E+03  0.73053492854E+02  0.43941714252E+02  0.26664220385E+03  0.17224978387E+03 0.  0.
         24    2    3    3    0    0 -0.85770146345E+02 -0.16265826645E+02  0.60697739224E+02  0.13213303044E+03  0.78446332390E+02 0.  0.
         -6    2    1    2    0  503  0.18482529524E+03 -0.73053492854E+02 -0.76176282847E+02  0.27336177489E+03  0.17154192293E+03 0.  0.
        -24    2    5    5    0    0  0.75575860800E+01 -0.89664137542E+01 -0.21446897835E+02  0.77024335763E+02  0.73042899655E+02 0.  0.
          5    1    3    3  501    0 -0.99055148892E+02  0.89319319499E+02 -0.16756024972E+02  0.13450917341E+03  0.47000000000E+01 0. -1.
        -13    1    4    4    0    0 -0.74825703747E+02 -0.10116489582E+02  0.79424525500E+02  0.10958779382E+03  0.00000000000E+00 0.  1.
         14    1    4    4    0    0 -0.10944442597E+02 -0.61493370628E+01 -0.18726786276E+02  0.22545236621E+02  0.00000000000E+00 0. -1.
         -5    1    5    5    0  503  0.17726770916E+03 -0.64087079100E+02 -0.54729385012E+02  0.19633743912E+03  0.47000000000E+01 0.  1.
         13    1    6    6    0    0  0.66380254394E+01 -0.39099143727E+02 -0.24670230860E+02  0.46705746034E+02  0.00000000000E+00 0. -1.
        -14    1    6    6    0    0  0.91956064053E+00  0.30132729973E+02  0.32233330250E+01  0.30318589729E+02  0.00000000000E+00 0.  1.
</event>
<event>
12    1  0.9028446E-003  0.1888921E+03  0.7818608E-02  0.1159818E+00
         21   -1    0    0  501  502  0.00000000000E+00  0.00000000000E+00  0.16970224284E+04  0.16970224284E+04  0.00000000000E+00 0. -1.
         21   -1    0    0  502  503 -0.00000000000E+00 -0.00000000000E+00 -0.33351665476E+02  0.33351665476E+02  0.00000000000E+00 0. -1.
          6    2    1    2  501    0 -0.10951606724E+02  0.75860299173E+02  0.13636129433E+04  0.13766337522E+04  0.17264271140E+03 0.  0.
         24    2    3    3    0    0 -0.71638885696E+02  0.40963143465E+02  0.70390398336E+03  0.71320420872E+03  0.79807997540E+02 0.  0.
         -6    2    1    2    0  503  0.10951606724E+02 -0.75860299173E+02  0.30005781956E+03  0.35374034164E+03  0.17094680911E+03 0.  0.
        -24    2    5    5    0    0 -0.29909447222E+02 -0.93490200740E+02  0.27433880415E+03  0.30212641995E+03  0.79897443647E+02 0.  0.
          5    1    3    3  501    0  0.60687278972E+02  0.34897155708E+02  0.65970895998E+03  0.66342954350E+03  0.47000000000E+01 0. -1.
        -11    1    4    4    0    0  0.99197853774E+01  0.27456633962E+02  0.12126707328E+03  0.12473159966E+03  0.00000000000E+00 0.  1.
         12    1    4    4    0    0 -0.81558671073E+02  0.13506509503E+02  0.58263691008E+03  0.58847260906E+03  0.00000000000E+00 0. -1.
         -5    1    5    5    0  503  0.40861053946E+02  0.17629901567E+02  0.25719015408E+02  0.51613921691E+02  0.47000000000E+01 0.  1.
         13    1    6    6    0    0 -0.53633692858E+02 -0.58866086570E+02  0.13642295402E+03  0.15796522257E+03  0.00000000000E+00 0. -1.
        -14    1    6    6    0    0  0.23724245636E+02 -0.34624114169E+02  0.13791585013E+03  0.14416119738E+03  0.00000000000E+00 0.  1.
</event>
<event>
12    1  0.9028446E-003  0.2116572E+03  0.7818608E-02  0.1140307E+00
         21   -1    0    0  501  502  0.00000000000E+00  0.00000000000E+00  0.19884256398E+03  0.19884256398E+03  0.00000000000E+00 0. -1.
         21   -1    0    0  502  503 -0.00000000000E+00 -0.00000000000E+00 -0.23891580474E+03  0.23891580474E+03  0.00000000000E+00 0.  1.
          6    2    1    2  501    0  0.91923619885E+02  0.81370699041E+02  0.32694843705E+02  0.21416753476E+03  0.17241704552E+03 0.  0.
         24    2    3    3    0    0  0.56264758104E+01  0.27361563565E+02 -0.34933500521E+02  0.91857000741E+02  0.80231207992E+02 0.  0.
         -6    2    1    2    0  503 -0.91923619885E+02 -0.81370699041E+02 -0.72768084467E+02  0.22359083396E+03  0.17212357293E+03 0.  0.
        -24    2    5    5    0    0 -0.34325098116E+02 -0.58332921188E+01  0.22350821043E+02  0.89079920871E+02  0.78888740916E+02 0.  0.
          5    1    3    3  501    0  0.86297144075E+02  0.54009135475E+02  0.67628344226E+02  0.12231053402E+03  0.47000000000E+01 0. -1.
        -13    1    4    4    0    0 -0.21883083319E+02 -0.18163124887E+02 -0.24748918595E+02  0.37699833061E+02  0.00000000000E+00 0.  1.
         14    1    4    4    0    0  0.27509559129E+02  0.45524688452E+02 -0.10184581925E+02  0.54157167680E+02  0.00000000000E+00 0. -1.
         -5    1    5    5    0  503 -0.57598521769E+02 -0.75537406922E+02 -0.95118905510E+02  0.13451091309E+03  0.47000000000E+01 0.  1.
         13    1    6    6    0    0  0.55839734341E+01 -0.14079901505E+02  0.41408450039E+02  0.44091769304E+02  0.00000000000E+00 0. -1.
        -14    1    6    6    0    0 -0.39909071551E+02  0.82466093866E+01 -0.19057628996E+02  0.44988151566E+02  0.00000000000E+00 0.  1.
</event>
<event>
12    1  0.9028446E-003  0.1855070E+03  0.7818608E-02  0.1163320E+00
         21   -1    0    0  501  502  0.00000000000E+00  0.00000000000E+00  0.19596711285E+04  0.19596711285E+04  0.00000000000E+00 0. -1.
         21   -1    0    0  502  503 -0.00000000000E+00 -0.00000000000E+00 -0.19307104392E+02  0.19307104392E+02  0.00000000000E+00 0.  1.
          6    2    1    2  501    0 -0.23038745377E+00  0.65405059706E+02  0.65564825129E+03  0.68138644673E+03  0.17359431285E+03 0.  0.
         24    2    3    3    0    0  0.33473664496E+02  0.97177230163E+02  0.37126223156E+03  0.39321474071E+03  0.78856118663E+02 0.  0.
         -6    2    1    2    0  503  0.23038745377E+00 -0.65405059706E+02  0.12847157728E+04  0.12975917862E+04  0.17021149103E+03 0.  0.
        -24    2    5    5    0    0 -0.39061682330E+02 -0.94598653499E+02  0.81784191169E+03  0.82813526542E+03  0.80423286681E+02 0.  0.
          5    1    3    3  501    0 -0.33704051950E+02 -0.31772170457E+02  0.28438601973E+03  0.28817170602E+03  0.47000000000E+01 0. -1.
        -11    1    4    4    0    0  0.13724979963E+02  0.10356103260E+03  0.34002586459E+03  0.35571175289E+03  0.00000000000E+00 0.  1.
         12    1    4    4    0    0  0.19748684533E+02 -0.63838024392E+01  0.31236366969E+02  0.37502987825E+02  0.00000000000E+00 0. -1.
         -5    1    5    5    0  503  0.39292069784E+02  0.29193593793E+02  0.46687386114E+03  0.46945652076E+03  0.47000000000E+01 0.  1.
         13    1    6    6    0    0  0.70324739185E+01  0.59874149809E+00  0.27469531826E+03  0.27478597500E+03  0.00000000000E+00 0. -1.
        -14    1    6    6    0    0 -0.46094156248E+02 -0.95197394998E+02  0.54314659343E+03  0.55334929042E+03  0.00000000000E+00 0.  1.
</event>
<event>
12    1  0.9028446E-003  0.2472951E+03  0.7818608E-02  0.1115108E+00
         21   -1    0    0  501  502  0.00000000000E+00  0.00000000000E+00  0.13099434484E+03  0.13099434484E+03  0.00000000000E+00 0.  1.
         21   -1    0    0  502  503 -0.00000000000E+00 -0.00000000000E+00 -0.52511650843E+03  0.52511650843E+03  0.00000000000E+00 0.  1.
          6    2    1    2  501    0  0.15918604941E+03  0.77520522084E+02 -0.86713817561E+02  0.26157981851E+03  0.17191592603E+03 0.  0.
         24    2    3    3    0    0  0.17369165118E+03  0.59035669526E+02 -0.10888837416E+03  0.22893164525E+03  0.83060340740E+02 0.  0.
         -6    2    1    2    0  503 -0.15918604941E+03 -0.77520522084E+02 -0.30740834603E+03  0.39453103476E+03  0.17264187357E+03 0.  0.
        -24    2    5    5    0    0 -0.62848472393E+02 -0.10508627383E+03 -0.16215825716E+03  0.21800772828E+03  0.78987428066E+02 0.  0.
          5    1    3    3  501    0 -0.14505601765E+02  0.18484852558E+02  0.22174556601E+02  0.32648173259E+02  0.47000000000E+01 0. -1.
        -11    1    4    4    0    0  0.38191620731E+02 -0.21052112065E+02 -0.29456788699E+02  0.52625979486E+02  0.00000000000E+00 0.  1.
         12    1    4    4    0    0  0.13550003045E+03  0.80087781590E+02 -0.79431585464E+02  0.17630566576E+03  0.00000000000E+00 0. -1.
         -5    1    5    5    0  503 -0.96337577019E+02  0.27565751751E+02 -0.14525008887E+03  0.17652330648E+03  0.47000000000E+01 0.  1.
         11    1    6    6    0    0 -0.54595206226E+01  0.93011086919E+01  0.78767031174E+00  0.10813760347E+02  0.00000000000E+00 0. -1.
        -12    1    6    6    0    0 -0.57388951770E+02 -0.11438738253E+03 -0.16294592748E+03  0.20719396793E+03  0.00000000000E+00 0.  1.
</event>
<event>
12    1  0.9028446E-003  0.2176400E+03  0.7818608E-02  0.1137813E+00
         21   -1    0    0  503  502  0.00000000000E+00  0.00000000000E+00  0.96345527345E+03  0.96345527345E+03  0.00000000000E+00 0. -1.
         21   -1    0    0  501  503 -0.00000000000E+00 -0.00000000000E+00 -0.55172032990E+02  0.55172032990E+02  0.00000000000E+00 0. -1.
          6    2    1    2  501    0  0.31482483208E+02  0.12909295977E+03  0.26453701539E+03  0.34255946401E+03  0.17236883379E+03 0.  0.
         24    2    3    3    0    0  0.71691725169E+02  0.49707990972E+02  0.20067426200E+03  0.23292690643E+03  0.79838565169E+02 0.  0.
         -6    2    1    2    0  502 -0.31482483208E+02 -0.12909295977E+03  0.64374622508E+03  0.67606784243E+03  0.15812142884E+03 0.  0.
        -24    2    5    5    0    0  0.56160864008E+01 -0.21203576542E+02  0.36506433046E+03  0.37489993035E+03  0.82443073191E+02 0.  0.
          5    1    3    3  501    0 -0.40209241961E+02  0.79384968801E+02  0.63862753387E+02  0.10963255758E+03  0.47000000000E+01 0. -1.
        -11    1    4    4    0    0  0.11670170830E+02 -0.14986111676E+02  0.72658612937E+01  0.20336400142E+02  0.00000000000E+00 0.  1.
         12    1    4    4    0    0  0.60021554338E+02  0.64694102648E+02  0.19340840070E+03  0.21259050629E+03  0.00000000000E+00 0. -1.
         -5    1    5    5    0  502 -0.37098569609E+02 -0.10788938323E+03  0.27868189462E+03  0.30116791208E+03  0.47000000000E+01 0.  1.
         11    1    6    6    0    0  0.22021464736E+02 -0.48583507604E+02  0.23462476409E+03  0.24061189091E+03  0.00000000000E+00 0. -1.
        -12    1    6    6    0    0 -0.16405378335E+02  0.27379931061E+02  0.13043956637E+03  0.13428803944E+03  0.00000000000E+00 0.  1.
</event>
<event>
12    1  0.9028446E-003  0.2983391E+03  0.7818608E-02  0.1086084E+00
         21   -1    0    0  501  502  0.00000000000E+00  0.00000000000E+00  0.53792951307E+03  0.53792951307E+03  0.00000000000E+00 0. -1.
         21   -1    0    0  502  503 -0.00000000000E+00 -0.00000000000E+00 -0.16596746494E+03  0.16596746494E+03  0.00000000000E+00 0.  1.
          6    2    1    2  501    0  0.24247804362E+03  0.29292311800E+02  0.20620542156E+03  0.36260318461E+03  0.17119215064E+03 0.  0.
         24    2    3    3    0    0  0.12554239257E+03 -0.19644229592E+02  0.44389951534E+02  0.15699416752E+03  0.80807875543E+02 0.  0.
         -6    2    1    2    0  503 -0.24247804362E+03 -0.29292311800E+02  0.16575662657E+03  0.34129379339E+03  0.17132586783E+03 0.  0.
        -24    2    5    5    0    0 -0.16622138062E+03  0.28729201794E+02  0.15897622293E+03  0.24511875211E+03  0.79717305332E+02 0.  0.
          5    1    3    3  501    0  0.11693565105E+03  0.48936541392E+02  0.16181547003E+03  0.20560901709E+03  0.47000000000E+01 0. -1.
        -13    1    4    4    0    0  0.59160306491E+02  0.30376383755E+02  0.10936898186E+02  0.67396456109E+02  0.00000000000E+00 0.  1.
         14    1    4    4    0    0  0.66382086077E+02 -0.50020613347E+02  0.33453053348E+02  0.89597711409E+02  0.00000000000E+00 0. -1.
         -5    1    5    5    0  503 -0.76256662999E+02 -0.58021513594E+02  0.67804036395E+01  0.96175041279E+02  0.47000000000E+01 0.  1.
         13    1    6    6    0    0 -0.38349957340E+02 -0.23972165904E+02  0.59580814413E+02  0.74801453276E+02  0.00000000000E+00 0. -1.
        -14    1    6    6    0    0 -0.12787142328E+03  0.52701367698E+02  0.99395408516E+02  0.17031729883E+03  0.00000000000E+00 0.  1.
</event>
<event>
12    1  0.9028446E-003  0.2242030E+03  0.7818608E-02  0.1131578E+00
         21   -1    0    0  501  502  0.00000000000E+00  0.00000000000E+00  0.13094201318E+03  0.13094201318E+03  0.00000000000E+00 0.  1.
         21   -1    0    0  502  503 -0.00000000000E+00 -0.00000000000E+00 -0.46560534208E+03  0.46560534208E+03  0.00000000000E+00 0.  1.
          6    2    1    2  501    0 -0.12066484758E+03 -0.65108481175E+02 -0.38205075749E+02  0.22743484285E+03  0.17739182667E+03 0.  0.
         24    2    3    3    0    0 -0.14537933278E+03 -0.20147506030E+02 -0.50359882225E+02  0.17449974689E+03  0.79830893320E+02 0.  0.
         -6    2    1    2    0  503  0.12066484758E+03  0.65108481175E+02 -0.29645825315E+03  0.36911251240E+03  0.17192274773E+03 0.  0.
        -24    2    5    5    0    0  0.94571244646E+02  0.80146589801E+02 -0.30308733311E+03  0.33791867444E+03  0.83426032352E+02 0.  0.
          5    1    3    3  501    0  0.24714485193E+02 -0.44960975145E+02  0.12154806476E+02  0.52935095965E+02  0.47000000000E+01 0. -1.
        -11    1    4    4    0    0 -0.82239865148E+02 -0.43088764166E+02 -0.53669561589E+02  0.10724019236E+03  0.00000000000E+00 0.  1.
         12    1    4    4    0    0 -0.63139467630E+02  0.22941258136E+02  0.33096793646E+01  0.67259554525E+02  0.00000000000E+00 0. -1.
         -5    1    5    5    0  503  0.26093602939E+02 -0.15038108626E+02  0.66290799618E+01  0.31193837957E+02  0.47000000000E+01 0.  1.
         13    1    6    6    0    0  0.22917566544E+02  0.65986739156E+02 -0.19784466286E+03  0.20981414448E+03  0.00000000000E+00 0. -1.
        -14    1    6    6    0    0  0.71653678102E+02  0.14159850646E+02 -0.10524267025E+03  0.12810452996E+03  0.00000000000E+00 0.  1.
</event>
<event>
12    1  0.9028446E-003  0.2179129E+03  0.7818608E-02  0.1135671E+00
         21   -1    0    0  501  502  0.00000000000E+00  0.00000000000E+00  0.41703093095E+03  0.41703093095E+03  0.00000000000E+00 0.  1.
         21   -1    0    0  502  503 -0.00000000000E+00 -0.00000000000E+00 -0.13873622828E+03  0.13873622828E+03  0.00000000000E+00 0.  1.
          6    2    1    2  501    0 -0.77847276154E+02 -0.10669478849E+03  0.25854777482E+03  0.33813160836E+03  0.17332644465E+03 0.  0.
         24    2    3    3    0    0 -0.78300676949E+01 -0.13028229909E+02  0.17862722266E+03  0.19640928008E+03  0.80236375118E+02 0.  0.
         -6    2    1    2    0  503  0.77847276154E+02  0.10669478849E+03  0.19746927843E+02  0.21763555087E+03  0.17184677927E+03 0.  0.
        -24    2    5    5    0    0  0.10921918027E+03  0.67244269733E+02  0.50441311909E+02  0.15843441058E+03  0.78144195940E+02 0.  0.
          5    1    3    3  501    0 -0.70017208460E+02 -0.93666558577E+02  0.79920552168E+02  0.14172232829E+03  0.47000000000E+01 0. -1.
        -13    1    4    4    0    0  0.35645110499E+02 -0.61079708041E+01  0.62372479522E+02  0.72098595073E+02  0.00000000000E+00 0.  1.
         14    1    4    4    0    0 -0.43475178194E+02 -0.69202591052E+01  0.11625474313E+03  0.12431068500E+03  0.00000000000E+00 0. -1.
         -5    1    5    5    0  503 -0.31371904113E+02  0.39450518753E+02 -0.30694384067E+02  0.59201140283E+02  0.47000000000E+01 0.  1.
         13    1    6    6    0    0  0.12032041218E+03  0.52108252623E+02  0.40725567378E+02  0.13729837368E+03  0.00000000000E+00 0. -1.
        -14    1    6    6    0    0 -0.11101231911E+02  0.15136017111E+02  0.97157445315E+01  0.21136036897E+02  0.00000000000E+00 0.  1.
</event>
<event>
12    1  0.9028446E-003  0.2258672E+03  0.7818608E-02  0.1129600E+00
         21   -1    0    0  503  502  0.00000000000E+00  0.00000000000E+00  0.70544068437E+02  0.70544068437E+02  0.00000000000E+00 0.  1.
         21   -1    0    0  501  503 -0.00000000000E+00 -0.00000000000E+00 -0.85044951804E+03  0.85044951804E+03  0.00000000000E+00 0.  1.
          6    2    1    2  501    0  0.10157771876E+03 -0.10506372877E+03 -0.56837337530E+03  0.61160796861E+03  0.17221960825E+03 0.  0.
         24    2    3    3    0    0  0.12567296153E+03 -0.12642254219E+03 -0.47240550019E+03  0.51027336106E+03  0.73726480709E+02 0.  0.
         -6    2    1    2    0  502 -0.10157771876E+03  0.10506372877E+03 -0.21153207430E+03  0.30938561787E+03  0.17209654858E+03 0.  0.
        -24    2    5    5    0    0 -0.38159224266E+02  0.10498255270E+02 -0.16241656091E+03  0.18529308031E+03  0.79925256284E+02 0.  0.
          5    1    3    3  501    0 -0.24095242773E+02  0.21358813423E+02 -0.95967875111E+02  0.10133460756E+03  0.47000000000E+01 0. -1.
        -13    1    4    4    0    0  0.30046701344E+02  0.49188756174E+00 -0.43445501539E+02  0.52825730653E+02  0.00000000000E+00 0.  1.
         14    1    4    4    0    0  0.95626260186E+02 -0.12691442976E+03 -0.42895999865E+03  0.45744763040E+03  0.00000000000E+00 0. -1.
         -5    1    5    5    0  502 -0.63418494492E+02  0.94565473502E+02 -0.49115513393E+02  0.12409253756E+03  0.47000000000E+01 0.  1.
         13    1    6    6    0    0  0.22468356532E+02 -0.10789737248E+02 -0.44418182499E+02  0.50933490079E+02  0.00000000000E+00 0. -1.
        -14    1    6    6    0    0 -0.60627580798E+02  0.21287992518E+02 -0.11799837841E+03  0.13435959023E+03  0.00000000000E+00 0.  1.
</event>
<event>
12    1  0.9028446E-003  0.2864863E+03  0.7818608E-02  0.1092243E+00
         21   -1    0    0  501  502  0.00000000000E+00  0.00000000000E+00  0.20111679067E+03  0.20111679067E+03  0.00000000000E+00 0.  1.
         21   -1    0    0  502  503 -0.00000000000E+00 -0.00000000000E+00 -0.40969716164E+03  0.40969716164E+03  0.00000000000E+00 0.  1.
          6    2    1    2  501    0 -0.64200365130E+02 -0.21943848197E+03 -0.12614909725E+03  0.31303031486E+03  0.17262516918E+03 0.  0.
         24    2    3    3    0    0 -0.43072158348E+02 -0.21389724795E+03 -0.55529829379E+02  0.23896090558E+03  0.80071898568E+02 0.  0.
         -6    2    1    2    0  503  0.64200365130E+02  0.21943848197E+03 -0.82431273724E+02  0.29778363744E+03  0.17206174935E+03 0.  0.
        -24    2    5    5    0    0  0.93898167399E+02  0.21687989662E+03 -0.72997083235E+02  0.26616718969E+03  0.98298745190E+02 0.  0.
          5    1    3    3  501    0 -0.21128206782E+02 -0.55412340190E+01 -0.70619267870E+02  0.74069409278E+02  0.47000000000E+01 0. -1.
        -13    1    4    4    0    0 -0.25102008406E+02 -0.18683456388E+03 -0.18070418963E+02  0.18937741451E+03  0.00000000000E+00 0.  1.
         14    1    4    4    0    0 -0.17970149942E+02 -0.27062684075E+02 -0.37459410416E+02  0.49583491073E+02  0.00000000000E+00 0. -1.
         -5    1    5    5    0  503 -0.29697802269E+02  0.25585853520E+01 -0.94341904891E+01  0.31616447757E+02  0.47000000000E+01 0.  1.
         11    1    6    6    0    0  0.21369829051E+02  0.21734898922E+01 -0.27710681172E+02  0.35061025413E+02  0.00000000000E+00 0. -1.
        -12    1    6    6    0    0  0.72528338348E+02  0.21470640673E+03 -0.45286402062E+02  0.23110616427E+03  0.00000000000E+00 0.  1.
</event>
<event>
12    1  0.9028446E-003  0.2028886E+03  0.7818608E-02  0.1147658E+00
         21   -1    0    0  501  502  0.00000000000E+00  0.00000000000E+00  0.10409155305E+04  0.10409155305E+04  0.00000000000E+00 0. -1.
         21   -1    0    0  502  503 -0.00000000000E+00 -0.00000000000E+00 -0.52894103136E+02  0.52894103136E+02  0.00000000000E+00 0. -1.
          6    2    1    2  501    0  0.85073871824E+02  0.65949213870E+02  0.77339371804E+03  0.79956340015E+03  0.17197943275E+03 0.  0.
         24    2    3    3    0    0  0.89890708412E+02  0.83235301684E+02  0.40087275019E+03  0.42658086406E+03  0.79144278568E+02 0.  0.
         -6    2    1    2    0  503 -0.85073871824E+02 -0.65949213870E+02  0.21462770930E+03  0.29424623346E+03  0.17008506644E+03 0.  0.
        -24    2    5    5    0    0 -0.11126312263E+03 -0.38765610199E+02  0.21281360116E+03  0.25616466108E+03  0.80302240062E+02 0.  0.
          5    1    3    3  501    0 -0.48168365886E+01 -0.17286087813E+02  0.37252096785E+03  0.37298253610E+03  0.47000000000E+01 0. -1.
        -11    1    4    4    0    0  0.32220414934E+02 -0.51636073352E+01  0.46382118591E+02  0.56710835862E+02  0.00000000000E+00 0.  1.
         12    1    4    4    0    0  0.57670293478E+02  0.88398909019E+02  0.35449063160E+03  0.36987002820E+03  0.00000000000E+00 0. -1.
         -5    1    5    5    0  503  0.26189250803E+02 -0.27183603671E+02  0.18141081423E+01  0.38081572374E+02  0.47000000000E+01 0.  1.
         13    1    6    6    0    0 -0.76777368660E+02 -0.15397057213E+02  0.62514285898E+02  0.10019914995E+03  0.00000000000E+00 0. -1.
        -14    1    6    6    0    0 -0.34485753966E+02 -0.23368552986E+02  0.15029931526E+03  0.15596551113E+03  0.00000000000E+00 0.  1.
</event>
<event>
12    1  0.9028446E-003  0.2532478E+03  0.7818608E-02  0.1111271E+00
         21   -1    0    0  503  502  0.00000000000E+00  0.00000000000E+00  0.21496973625E+04  0.21496973625E+04  0.00000000000E+00 0.  1.
         21   -1    0    0  501  503 -0.00000000000E+00 -0.00000000000E+00 -0.31338006542E+02  0.31338006542E+02  0.00000000000E+00 0.  1.
          6    2    1    2  501    0  0.18534594974E+03  0.18316246067E+01  0.82017892898E+03  0.85838390788E+03  0.17254849123E+03 0.  0.
         24    2    3    3    0    0  0.12916241564E+03  0.62725918772E+02  0.62058889038E+03  0.64222892165E+03  0.81914262677E+02 0.  0.
         -6    2    1    2    0  502 -0.18534594974E+03 -0.18316246067E+01  0.12981804270E+04  0.13226514612E+04  0.17256300532E+03 0.  0.
        -24    2    5    5    0    0 -0.54304162662E+02  0.37563399813E+02  0.33975421128E+03  0.35449505911E+03  0.76641188416E+02 0.  0.
          5    1    3    3  501    0  0.56183534094E+02 -0.60894294165E+02  0.19959003860E+03  0.21615498623E+03  0.47000000000E+01 0. -1.
        -13    1    4    4    0    0  0.28945379716E+02  0.53820702180E+02  0.17314931886E+03  0.18361696439E+03  0.00000000000E+00 0.  1.
         14    1    4    4    0    0  0.10021703593E+03  0.89052165914E+01  0.44743957153E+03  0.45861195726E+03  0.00000000000E+00 0. -1.
         -5    1    5    5    0  502 -0.13104178707E+03 -0.39395024419E+02  0.95842621570E+03  0.96815640206E+03  0.47000000000E+01 0.  1.
         13    1    6    6    0    0 -0.15694102636E+02  0.56155288891E+02  0.19471275175E+03  0.20325544770E+03  0.00000000000E+00 0. -1.
        -14    1    6    6    0    0 -0.38610060026E+02 -0.18591889078E+02  0.14504145953E+03  0.15123961140E+03  0.00000000000E+00 0.  1.
</event>
<event>
12    1  0.9028446E-003  0.1907234E+03  0.7818608E-02  0.1157994E+00
         21   -1    0    0  503  502  0.00000000000E+00  0.00000000000E+00  0.32009125375E+03  0.32009125375E+03  0.00000000000E+00 0.  1.
         21   -1    0    0  501  503 -0.00000000000E+00 -0.00000000000E+00 -0.13707824195E+03  0.13707824195E+03  0.00000000000E+00 0. -1.
          6    2    1    2  501    0  0.59271927812E+02  0.52103157173E+02 -0.38255787117E+01  0.19076173062E+03  0.17363036141E+03 0.  0.
         24    2    3    3    0    0 -0.13337889445E+02  0.77763417224E+02 -0.18842110469E+02  0.11216007203E+03  0.77458429348E+02 0.  0.
         -6    2    1    2    0  502 -0.59271927812E+02 -0.52103157173E+02  0.18683859051E+03  0.26640776508E+03  0.17273256200E+03 0.  0.
        -24    2    5    5    0    0  0.16057674165E+02 -0.22035496925E+02  0.14560174504E+03  0.17529695040E+03  0.93732281718E+02 0.  0.
          5    1    3    3  501    0  0.72609817257E+02 -0.25660260051E+02  0.15016531757E+02  0.78601658596E+02  0.47000000000E+01 0. -1.
        -13    1    4    4    0    0 -0.12120423762E+01  0.91451653482E+02 -0.20719480185E+02  0.93777240471E+02  0.00000000000E+00 0.  1.
         14    1    4    4    0    0 -0.12125847069E+02 -0.13688236258E+02  0.18773697164E+01  0.18382831556E+02  0.00000000000E+00 0. -1.
         -5    1    5    5    0  502 -0.75329601977E+02 -0.30067660248E+02  0.41236845473E+02  0.91110814679E+02  0.47000000000E+01 0.  1.
         11    1    6    6    0    0 -0.14488265241E+02 -0.42268434459E+02  0.29478102849E+02  0.53530261805E+02  0.00000000000E+00 0. -1.
        -12    1    6    6    0    0  0.30545939406E+02  0.20232937534E+02  0.11612364219E+03  0.12176668859E+03  0.00000000000E+00 0.  1.
</event>
<event>
12    1  0.9028446E-003  0.2032262E+03  0.7818608E-02  0.1147071E+00
         21   -1    0    0  503  502  0.00000000000E+00  0.00000000000E+00  0.93452083707E+02  0.93452083707E+02  0.00000000000E+00 0. -1.
         21   -1    0    0  501  503 -0.00000000000E+00 -0.00000000000E+00 -0.45818928050E+03  0.45818928050E+03  0.00000000000E+00 0. -1.
          6    2    1    2  501    0 -0.90926462940E+02 -0.55100938080E+02 -0.13006456645E+03  0.24128339758E+03  0.17319685755E+03 0.  0.
         24    2    3    3    0    0 -0.80976664638E+02  0.28366785962E+02 -0.90671526878E+02  0.14833308285E+03  0.80121675714E+02 0.  0.
         -6    2    1    2    0  502  0.90926462940E+02  0.55100938080E+02 -0.23467263034E+03  0.31035796662E+03  0.17305227237E+03 0.  0.
        -24    2    5    5    0    0  0.52901591326E+02  0.25898820142E+02 -0.35637964580E+02  0.10557627132E+03  0.80043471298E+02 0.  0.
          5    1    3    3  501    0 -0.99497983011E+01 -0.83467724042E+02 -0.39393039569E+02  0.92950314736E+02  0.47000000000E+01 0. -1.
        -11    1    4    4    0    0 -0.35836179111E+02 -0.75941284875E+01 -0.82210554861E+02  0.90002654691E+02  0.00000000000E+00 0.  1.
         12    1    4    4    0    0 -0.45140485527E+02  0.35960914449E+02 -0.84609720170E+01  0.58330428158E+02  0.00000000000E+00 0. -1.
         -5    1    5    5    0  502  0.38024871614E+02  0.29202117939E+02 -0.19903466576E+03  0.20478169529E+03  0.47000000000E+01 0.  1.
         11    1    6    6    0    0  0.67627212603E+02  0.90064904358E+01 -0.44525802355E+02  0.81468422286E+02  0.00000000000E+00 0. -1.
        -12    1    6    6    0    0 -0.14725621277E+02  0.16892329706E+02  0.88878377749E+01  0.24107849037E+02  0.00000000000E+00 0.  1.
</event>
<event>
12    1  0.9028446E-003  0.2406119E+03  0.7818608E-02  0.1119582E+00
         21   -1    0    0  501  502  0.00000000000E+00  0.00000000000E+00  0.27364705883E+02  0.27364705883E+02  0.00000000000E+00 0. -1.
         21   -1    0    0  502  503 -0.00000000000E+00 -0.00000000000E+00 -0.23903668783E+04  0.23903668783E+04  0.00000000000E+00 0.  1.
          6    2    1    2  501    0  0.16586289815E+03  0.97198156570E+01 -0.16015259847E+04  0.16194997886E+04  0.17403766741E+03 0.  0.
         24    2    3    3    0    0  0.43929623557E+02  0.46093629202E+02 -0.96706944497E+03  0.97239240291E+03  0.79178528348E+02 0.  0.
         -6    2    1    2    0  503 -0.16586289815E+03 -0.97198156570E+01 -0.76147618771E+03  0.79823179562E+03  0.17240371017E+03 0.  0.
        -24    2    5    5    0    0 -0.74631623152E+01 -0.11935469733E+02 -0.28481725914E+03  0.29591594914E+03  0.79039380191E+02 0.  0.
          5    1    3    3  501    0  0.12193327460E+03 -0.36373813545E+02 -0.63445653972E+03  0.64710738565E+03  0.47000000000E+01 0. -1.
        -13    1    4    4    0    0  0.55206004448E+02  0.10565875393E+02 -0.75358807270E+03  0.75568136404E+03  0.00000000000E+00 0.  1.
         14    1    4    4    0    0 -0.11276380891E+02  0.35527753809E+02 -0.21348137227E+03  0.21671103886E+03  0.00000000000E+00 0. -1.
         -5    1    5    5    0  503 -0.15839973584E+03  0.22156540755E+01 -0.47665892857E+03  0.50231584648E+03  0.47000000000E+01 0.  1.
         11    1    6    6    0    0  0.12897862481E+02 -0.40172074276E+02 -0.19664232655E+03  0.20111776401E+03  0.00000000000E+00 0. -1.
        -12    1    6    6    0    0 -0.20361024796E+02  0.28236604544E+02 -0.88174932586E+02  0.94798185128E+02  0.00000000000E+00 0.  1.
</event>
<event>
12    1  0.9028446E-003  0.3319332E+03  0.7818608E-02  0.1070317E+00
         21   -1    0    0  501  502  0.00000000000E+00  0.00000000000E+00  0.28211625345E+03  0.28211625345E+03  0.00000000000E+00 0. -1.
         21   -1    0    0  502  503 -0.00000000000E+00 -0.00000000000E+00 -0.86231686964E+03  0.86231686964E+03  0.00000000000E+00 0.  1.
          6    2    1    2  501    0 -0.28309125887E+03 -0.23965251582E+02  0.13335994984E+03  0.35744623716E+03  0.17107875996E+03 0.  0.
         24    2    3    3    0    0 -0.14049880353E+03 -0.46307547045E+02  0.11540824665E+02  0.16851827273E+03  0.79880629083E+02 0.  0.
         -6    2    1    2    0  503  0.28309125887E+03  0.23965251582E+02 -0.71356056603E+03  0.78698688593E+03  0.17165279811E+03 0.  0.
        -24    2    5    5    0    0  0.17122860910E+03  0.32963073038E+02 -0.28144850677E+03  0.34051501116E+03  0.79570158364E+02 0.  0.
          5    1    3    3  501    0 -0.14259245534E+03  0.22342295463E+02  0.12181912518E+03  0.18892796443E+03  0.47000000000E+01 0. -1.
        -13    1    4    4    0    0 -0.94879317206E+02 -0.13047466624E+02 -0.27777644285E+02  0.99719199459E+02  0.00000000000E+00 0.  1.
         14    1    4    4    0    0 -0.45619486322E+02 -0.33260080421E+02  0.39318468950E+02  0.68799073268E+02  0.00000000000E+00 0. -1.
         -5    1    5    5    0  503  0.11186264977E+03 -0.89978214563E+01 -0.43211205925E+03  0.44647187477E+03  0.47000000000E+01 0.  1.
         13    1    6    6    0    0  0.46309049373E+02  0.44797837226E+02 -0.11813192726E+03  0.13456049388E+03  0.00000000000E+00 0. -1.
        -14    1    6    6    0    0  0.12491955973E+03 -0.11834764187E+02 -0.16331657951E+03  0.20595451728E+03  0.00000000000E+00 0.  1.
</event>
<event>
12    1  0.9028446E-003  0.2081379E+03  0.7818608E-02  0.1143083E+00
         21   -1    0    0  503  502  0.00000000000E+00  0.00000000000E+00  0.17897434303E+03  0.17897434303E+03  0.00000000000E+00 0. -1.
         21   -1    0    0  501  503 -0.00000000000E+00 -0.00000000000E+00 -0.28861735284E+03  0.28861735284E+03  0.00000000000E+00 0. -1.
          6    2    1    2  501    0  0.24505632202E+02 -0.11488402537E+03 -0.14890938471E+03  0.25578225913E+03  0.17161495837E+03 0.  0.
         24    2    3    3    0    0 -0.18335348146E+02 -0.13567976752E+03 -0.10020226977E+03  0.18750132815E+03  0.79818975734E+02 0.  0.
         -6    2    1    2    0  502 -0.24505632202E+02  0.11488402537E+03  0.39266374894E+02  0.21180943674E+03  0.17182119776E+03 0.  0.
        -24    2    5    5    0    0  0.25267891936E+02  0.11964966320E+03  0.49617516403E+02  0.16053223772E+03  0.91401275405E+02 0.  0.
          5    1    3    3  501    0  0.42840980348E+02  0.20795742153E+02 -0.48707114938E+02  0.68280930972E+02  0.47000000000E+01 0. -1.
        -13    1    4    4    0    0 -0.30744807908E+02 -0.13973417780E+02 -0.35923419341E+02  0.49305087718E+02  0.00000000000E+00 0.  1.
         14    1    4    4    0    0  0.12409459762E+02 -0.12170634974E+03 -0.64278850428E+02  0.13819624044E+03  0.00000000000E+00 0. -1.
         -5    1    5    5    0  502 -0.49773524138E+02 -0.47656378338E+01 -0.10351141509E+02  0.51277199023E+02  0.47000000000E+01 0.  1.
         13    1    6    6    0    0  0.87472810633E+01  0.56878357445E+02 -0.24030622307E+02  0.62362915904E+02  0.00000000000E+00 0. -1.
        -14    1    6    6    0    0  0.16520610873E+02  0.62771305754E+02  0.73648138710E+02  0.98169321813E+02  0.00000000000E+00 0.  1.
</event>
<event>
12    1  0.9028446E-003  0.2765137E+03  0.7818608E-02  0.1097879E+00
         21   -1    0    0  503  502  0.00000000000E+00  0.00000000000E+00  0.50105312590E+03  0.50105312590E+03  0.00000000000E+00 0. -1.
         21   -1    0    0  501  503 -0.00000000000E+00 -0.00000000000E+00 -0.15919875742E+03  0.15919875742E+03  0.00000000000E+00 0. -1.
          6    2    1    2  501    0  0.16328404565E+03  0.13897261002E+03  0.24281272870E+03  0.36653594902E+03  0.17150951812E+03 0.  0.
         24    2    3    3    0    0  0.93021843772E+02  0.14506065193E+03  0.11887839014E+03  0.22386271557E+03  0.79289265521E+02 0.  0.
         -6    2    1    2    0  502 -0.16328404565E+03 -0.13897261002E+03  0.99041639782E+02  0.29371593430E+03  0.17459879080E+03 0.  0.
        -24    2    5    5    0    0 -0.12314112017E+03 -0.11130291921E+03  0.13489381379E+01  0.18443180823E+03  0.80381570965E+02 0.  0.
          5    1    3    3  501    0  0.70262201876E+02 -0.60880419015E+01  0.12393433856E+03  0.14267323344E+03  0.47000000000E+01 0. -1.
        -11    1    4    4    0    0 -0.88854907727E+01  0.34265816110E+02  0.64599127447E+01  0.35983726497E+02  0.00000000000E+00 0.  1.
         12    1    4    4    0    0  0.10190733454E+03  0.11079483582E+03  0.11241847739E+03  0.18787898908E+03  0.00000000000E+00 0. -1.
         -5    1    5    5    0  502 -0.40142925473E+02 -0.27669690813E+02  0.97692701644E+02  0.10928412606E+03  0.47000000000E+01 0.  1.
         13    1    6    6    0    0 -0.95703604194E+02 -0.43469006441E+02  0.24029431734E+02  0.10782461670E+03  0.00000000000E+00 0. -1.
        -14    1    6    6    0    0 -0.27437515981E+02 -0.67833912770E+02 -0.22680493596E+02  0.76607191534E+02  0.00000000000E+00 0.  1.
</event>
<event>
12    1  0.9028446E-003  0.2090250E+03  0.7818608E-02  0.1142427E+00
         21   -1    0    0  501  502  0.00000000000E+00  0.00000000000E+00  0.26153982106E+03  0.26153982106E+03  0.00000000000E+00 0.  1.
         21   -1    0    0  502  503 -0.00000000000E+00 -0.00000000000E+00 -0.20862275746E+03  0.20862275746E+03  0.00000000000E+00 0.  1.
          6    2    1    2  501    0  0.11800895010E+03 -0.15116870711E+02  0.13185110867E+03  0.24713590175E+03  0.17186275627E+03 0.  0.
         24    2    3    3    0    0  0.99101700983E+02 -0.65208137664E+02  0.13022497540E+03  0.19336459524E+03  0.79737532684E+02 0.  0.
         -6    2    1    2    0  503 -0.11800895010E+03  0.15116870711E+02 -0.78934045061E+02  0.22302667678E+03  0.17133500227E+03 0.  0.
        -24    2    5    5    0    0 -0.11085055862E+03  0.32232611657E+02 -0.42460824091E+01  0.14592562023E+03  0.89159799354E+02 0.  0.
          5    1    3    3  501    0  0.18907249112E+02  0.50091266953E+02  0.16261332618E+01  0.53771306506E+02  0.47000000000E+01 0. -1.
        -11    1    4    4    0    0  0.83119419102E+02 -0.23543641484E+02  0.11952215283E+03  0.14747435677E+03  0.00000000000E+00 0.  1.
         12    1    4    4    0    0  0.15982281880E+02 -0.41664496180E+02  0.10702822569E+02  0.45890238472E+02  0.00000000000E+00 0. -1.
         -5    1    5    5    0  503 -0.71583914706E+01 -0.17115740945E+02 -0.74687962652E+02  0.77101056553E+02  0.47000000000E+01 0.  1.
         13    1    6    6    0    0 -0.41776567530E+02  0.58436116295E+02 -0.54347539857E+01  0.72038863353E+02  0.00000000000E+00 0. -1.
        -14    1    6    6    0    0 -0.69073991094E+02 -0.26203504639E+02  0.11886715766E+01  0.73886756873E+02  0.00000000000E+00 0.  1.
</event>
<event>
12    1  0.9028446E-003  0.1837073E+03  0.7818608E-02  0.1164556E+00
         21   -1    0    0  503  502  0.00000000000E+00  0.00000000000E+00  0.33154792815E+03  0.33154792815E+03  0.00000000000E+00 0. -1.
         21   -1    0    0  501  503 -0.00000000000E+00 -0.00000000000E+00 -0.16024047817E+03  0.16024047817E+03  0.00000000000E+00 0. -1.
          6    2    1    2  501    0 -0.33570792623E+02 -0.52440288825E+02 -0.63906309073E+02  0.19333593233E+03  0.17151613446E+03 0.  0.
         24    2    3    3    0    0  0.79507813083E+01 -0.54758129705E+02  0.20599755286E+02  0.99034403170E+02  0.79509718910E+02 0.  0.
         -6    2    1    2    0  502  0.33570792623E+02  0.52440288825E+02  0.23521375905E+03  0.29845247399E+03  0.17283340179E+03 0.  0.
        -24    2    5    5    0    0 -0.92090971417E+01 -0.29587197184E+02  0.71863314816E+02  0.11066513400E+03  0.78244655785E+02 0.  0.
          5    1    3    3  501    0 -0.41521573931E+02  0.23178408806E+01 -0.84506064359E+02  0.94301529158E+02  0.47000000000E+01 0. -1.
        -13    1    4    4    0    0  0.27111021139E+01 -0.12885996921E+02  0.47299564732E+02  0.49098348396E+02  0.00000000000E+00 0.  1.
         14    1    4    4    0    0  0.52396791944E+01 -0.41872132784E+02 -0.26699809446E+02  0.49936054774E+02  0.00000000000E+00 0. -1.
         -5    1    5    5    0  502  0.42779889764E+02  0.82027486009E+02  0.16335044423E+03  0.18778733999E+03  0.47000000000E+01 0.  1.
         13    1    6    6    0    0 -0.79749889057E+01  0.82550444227E+01  0.71892253728E+02  0.72802763358E+02  0.00000000000E+00 0. -1.
        -14    1    6    6    0    0 -0.12341082360E+01 -0.37842241607E+02 -0.28938911629E-01  0.37862370640E+02  0.00000000000E+00 0.  1.
</event>
<event>
12    1  0.9028446E-003  0.2094077E+03  0.7818608E-02  0.1142292E+00
         21   -1    0    0  501  502  0.00000000000E+00  0.00000000000E+00  0.84339975670E+03  0.84339975670E+03  0.00000000000E+00 0. -1.
         21   -1    0    0  502  503 -0.00000000000E+00 -0.00000000000E+00 -0.55639749898E+02  0.55639749898E+02  0.00000000000E+00 0. -1.
          6    2    1    2  501    0 -0.40285393459E+02 -0.10961141001E+03  0.51500189936E+03  0.55594833080E+03  0.17382179391E+03 0.  0.
         24    2    3    3    0    0  0.25045934735E+02 -0.14864970257E+02  0.30121660909E+03  0.31310823809E+03  0.80355814845E+02 0.  0.
         -6    2    1    2    0  503  0.40285393459E+02  0.10961141001E+03  0.27275810744E+03  0.34309117580E+03  0.17227012395E+03 0.  0.
        -24    2    5    5    0    0  0.12717689997E+02 -0.15084223493E+02  0.11603466401E+03  0.14087023967E+03  0.77402246314E+02 0.  0.
          5    1    3    3  501    0 -0.65331328194E+02 -0.94746439758E+02  0.21378529027E+03  0.24284009271E+03  0.47000000000E+01 0. -1.
        -13    1    4    4    0    0 -0.29223699815E+01  0.23857987189E+02  0.33895514652E+02  0.41552974774E+02  0.00000000000E+00 0.  1.
         14    1    4    4    0    0  0.27968304716E+02 -0.38722957446E+02  0.26732109444E+03  0.27155526331E+03  0.00000000000E+00 0. -1.
         -5    1    5    5    0  503  0.27567703463E+02  0.12469563351E+03  0.15672344343E+03  0.20222093613E+03  0.47000000000E+01 0.  1.
         11    1    6    6    0    0  0.89183428158E+01  0.19907326108E+02  0.24425475059E+01  0.21950045778E+02  0.00000000000E+00 0. -1.
        -12    1    6    6    0    0  0.37993471809E+01 -0.34991549601E+02  0.11359211651E+03  0.11892019389E+03  0.00000000000E+00 0.  1.
</event>
<event>
12    1  0.9028446E-003  0.2020734E+03  0.7818608E-02  0.1148035E+00
         21   -1    0    0  503  502  0.00000000000E+00  0.00000000000E+00  0.37805068142E+03  0.37805068142E+03  0.00000000000E+00 0.  1.
         21   -1    0    0  501  503 -0.00000000000E+00 -0.00000000000E+00 -0.12208866029E+03  0.12208866029E+03  0.00000000000E+00 0. -1.
          6    2    1    2  501    0  0.27601434681E+02  0.99621921817E+02  0.42762443439E+02  0.20639160506E+03  0.17344307875E+03 0.  0.
         24    2    3    3    0    0 -0.17269505633E+02  0.11320311095E+03  0.66164264766E+02  0.15378376130E+03  0.78476462427E+02 0.  0.
         -6    2    1    2    0  502 -0.27601434681E+02 -0.99621921817E+02  0.21319957769E+03  0.29374773665E+03  0.17362979687E+03 0.  0.
        -24    2    5    5    0    0  0.29976515449E+01 -0.13213561116E+03  0.18470659073E+03  0.24057458198E+03  0.79314558463E+02 0.  0.
          5    1    3    3  501    0  0.44870940314E+02 -0.13581189134E+02 -0.23401821327E+02  0.52607843754E+02  0.47000000000E+01 0. -1.
        -13    1    4    4    0    0 -0.38953287177E+02  0.27876743783E+02  0.38640448997E+02  0.61543120855E+02  0.00000000000E+00 0.  1.
         14    1    4    4    0    0  0.21683781544E+02  0.85326367168E+02  0.27523815769E+02  0.92240640450E+02  0.00000000000E+00 0. -1.
         -5    1    5    5    0  502 -0.30599086226E+02  0.32513689341E+02  0.28492986959E+02  0.53173154677E+02  0.47000000000E+01 0.  1.
         13    1    6    6    0    0  0.33923637704E+02 -0.23718198625E+02  0.48611616904E+02  0.63847125535E+02  0.00000000000E+00 0. -1.
        -14    1    6    6    0    0 -0.30925986159E+02 -0.10841741253E+03  0.13609497382E+03  0.17672745644E+03  0.00000000000E+00 0.  1.
</event>
<event>
12    1  0.9028446E-003  0.2170925E+03  0.7818608E-02  0.1136078E+00
         21   -1    0    0  503  502  0.00000000000E+00  0.00000000000E+00  0.10210888480E+03  0.10210888480E+03  0.00000000000E+00 0. -1.
         21   -1    0    0  501  503 -0.00000000000E+00 -0.00000000000E+00 -0.48357006624E+03  0.48357006624E+03  0.00000000000E+00 0. -1.
          6    2    1    2  501    0 -0.94709086822E+02 -0.91797998108E+02 -0.25336317073E+03  0.33364961246E+03  0.17243109938E+03 0.  0.
         24    2    3    3    0    0 -0.29108029175E+02 -0.24928121366E+02 -0.18936656691E+03  0.22010343472E+03  0.10543783341E+03 0.  0.
         -6    2    1    2    0  502  0.94709086822E+02  0.91797998108E+02 -0.12809801071E+03  0.25202933857E+03  0.17237460245E+03 0.  0.
        -24    2    5    5    0    0  0.11806076570E+03  0.10163574466E+03 -0.13924731674E+03  0.22394946698E+03  0.80593917567E+02 0.  0.
          5    1    3    3  501    0 -0.65601057646E+02 -0.66869876742E+02 -0.63996603821E+02  0.11354617775E+03  0.47000000000E+01 0. -1.
        -11    1    4    4    0    0  0.12767692084E+02  0.16121097656E+02  0.13172192337E+01  0.20606766299E+02  0.00000000000E+00 0.  1.
         12    1    4    4    0    0 -0.41875721259E+02 -0.41049219022E+02 -0.19068378614E+03  0.19949666842E+03  0.00000000000E+00 0. -1.
         -5    1    5    5    0  502 -0.23351678883E+02 -0.98377465495E+01  0.11149306032E+02  0.28079871596E+02  0.47000000000E+01 0.  1.
         13    1    6    6    0    0  0.90949733286E+02  0.52142791272E+02 -0.44972917564E+02  0.11407579928E+03  0.00000000000E+00 0. -1.
        -14    1    6    6    0    0  0.27111032419E+02  0.49492953386E+02 -0.94274399178E+02  0.10987366770E+03  0.00000000000E+00 0.  1.
</event>
<event>
12    1  0.9028446E-003  0.2344606E+03  0.7818608E-02  0.1123729E+00
         21   -1    0    0  501  502  0.00000000000E+00  0.00000000000E+00  0.48156505308E+02  0.48156505308E+02  0.00000000000E+00 0.  1.
         21   -1    0    0  502  503 -0.00000000000E+00 -0.00000000000E+00 -0.11976793117E+04  0.11976793117E+04  0.00000000000E+00 0. -1.
          6    2    1    2  501    0 -0.73283432124E+02  0.14110997960E+03 -0.43229861507E+03  0.49126156042E+03  0.17080205033E+03 0.  0.
         24    2    3    3    0    0 -0.95428412362E+02  0.10261143548E+03 -0.41171006870E+03  0.44208314757E+03  0.79351371280E+02 0.  0.
         -6    2    1    2    0  503  0.73283432124E+02 -0.14110997960E+03 -0.71722419129E+03  0.75457425655E+03  0.17230577561E+03 0.  0.
        -24    2    5    5    0    0  0.38915679770E+02 -0.12289750233E+03 -0.69065637371E+03  0.70723742458E+03  0.80995814504E+02 0.  0.
          5    1    3    3  501    0  0.22144980237E+02  0.38498544120E+02 -0.20588546370E+02  0.49178412853E+02  0.47000000000E+01 0. -1.
        -13    1    4    4    0    0 -0.86125394814E+02  0.93571453543E+02 -0.25614390513E+03  0.28597709818E+03  0.00000000000E+00 0.  1.
         14    1    4    4    0    0 -0.93030175479E+01  0.90399819344E+01 -0.15556616357E+03  0.15610604939E+03  0.00000000000E+00 0. -1.
         -5    1    5    5    0  503  0.34367752354E+02 -0.18212477270E+02 -0.26567817584E+02  0.47336831975E+02  0.47000000000E+01 0.  1.
         13    1    6    6    0    0  0.44136393626E+02 -0.12440854059E+03 -0.51997313684E+03  0.53646767773E+03  0.00000000000E+00 0. -1.
        -14    1    6    6    0    0 -0.52207138560E+01  0.15110382655E+01 -0.17068323687E+03  0.17076974685E+03  0.00000000000E+00 0.  1.
</event>
<event>
12    1  0.9028446E-003  0.2159671E+03  0.7818608E-02  0.1137608E+00
         21   -1    0    0  501  502  0.00000000000E+00  0.00000000000E+00  0.55059935381E+03  0.55059935381E+03  0.00000000000E+00 0. -1.
         21   -1    0    0  502  503 -0.00000000000E+00 -0.00000000000E+00 -0.11721052377E+03  0.11721052377E+03  0.00000000000E+00 0. -1.
          6    2    1    2  501    0  0.11614487387E+03  0.44099504492E+02  0.38446145149E+02  0.21936244081E+03  0.17665609624E+03 0.  0.
         24    2    3    3    0    0 -0.53897887517E+01  0.41071477743E+02  0.39162636374E+02  0.97697135470E+02  0.79341679364E+02 0.  0.
         -6    2    1    2    0  503 -0.11614487387E+03 -0.44099504492E+02  0.39494268489E+03  0.44844743677E+03  0.17231071113E+03 0.  0.
        -24    2    5    5    0    0 -0.39950692769E+02  0.37225085357E+02  0.17820505183E+03  0.20469236762E+03  0.84617728836E+02 0.  0.
          5    1    3    3  501    0  0.12153466262E+03  0.30280267484E+01 -0.71649122521E+00  0.12166530534E+03  0.47000000000E+01 0. -1.
        -11    1    4    4    0    0 -0.81984332751E+01  0.19181113542E+02  0.62313434133E+02  0.65712202051E+02  0.00000000000E+00 0.  1.
         12    1    4    4    0    0  0.28086445233E+01  0.21890364201E+02 -0.23150797759E+02  0.31984933419E+02  0.00000000000E+00 0. -1.
         -5    1    5    5    0  503 -0.76194181102E+02 -0.81324589849E+02  0.21673763306E+03  0.24375506914E+03  0.47000000000E+01 0.  1.
         11    1    6    6    0    0 -0.28398711393E+02  0.40695560214E+02  0.18452050354E+03  0.19107703069E+03  0.00000000000E+00 0. -1.
        -12    1    6    6    0    0 -0.11551981376E+02 -0.34704748572E+01 -0.63154517137E+01  0.13615336933E+02  0.00000000000E+00 0.  1.
</event>
<event>
12    1  0.9028446E-003  0.1958267E+03  0.7818608E-02  0.1153361E+00
         21   -1    0    0  503  502  0.00000000000E+00  0.00000000000E+00  0.99410356297E+03  0.99410356297E+03  0.00000000000E+00 0.  1.
         21   -1    0    0  501  503 -0.00000000000E+00 -0.00000000000E+00 -0.39662975391E+02  0.39662975391E+02  0.00000000000E+00 0.  1.
          6    2    1    2  501    0 -0.46329023567E+02  0.80623617088E+02  0.56437076590E+03  0.59730053419E+03  0.17206690757E+03 0.  0.
         24    2    3    3    0    0 -0.86503821815E+02  0.20562733490E+02  0.29274524630E+03  0.31618874672E+03  0.79811071450E+02 0.  0.
         -6    2    1    2    0  502  0.46329023567E+02 -0.80623617088E+02  0.39006982167E+03  0.43646600417E+03  0.17234140813E+03 0.  0.
        -24    2    5    5    0    0 -0.34615137524E+02 -0.63213327997E+02  0.18494652279E+03  0.21521335870E+03  0.83171154191E+02 0.  0.
          5    1    3    3  501    0  0.40174798247E+02  0.60060883599E+02  0.27162551960E+03  0.28111178747E+03  0.47000000000E+01 0. -1.
        -11    1    4    4    0    0 -0.61477251265E+02  0.11271011188E+02  0.27947100858E+03  0.28637481166E+03  0.00000000000E+00 0.  1.
         12    1    4    4    0    0 -0.25026570550E+02  0.92917223018E+01  0.13274237717E+02  0.29813935061E+02  0.00000000000E+00 0. -1.
         -5    1    5    5    0  502  0.80944161091E+02 -0.17410289091E+02  0.20512329888E+03  0.22125264547E+03  0.47000000000E+01 0.  1.
         11    1    6    6    0    0 -0.19650209513E+01 -0.31252831466E+01  0.12265389923E+03  0.12270944421E+03  0.00000000000E+00 0. -1.
        -12    1    6    6    0    0 -0.32650116572E+02 -0.60088044850E+02  0.62292623556E+02  0.92503914488E+02  0.00000000000E+00 0.  1.
</event>
<event>
12    1  0.9028446E-003  0.2323365E+03  0.7818608E-02  0.1125121E+00
         21   -1    0    0  503  502  0.00000000000E+00  0.00000000000E+00  0.94311164962E+03  0.94311164962E+03  0.00000000000E+00 0.  1.
         21   -1    0    0  501  503 -0.00000000000E+00 -0.00000000000E+00 -0.94713521502E+02  0.94713521502E+02  0.00000000000E+00 0.  1.
          6    2    1    2  501    0  0.83204760523E+02 -0.13171601156E+03  0.96709751873E+02  0.25104968034E+03  0.17146727389E+03 0.  0.
         24    2    3    3    0    0  0.16268729954E+02 -0.18842757644E+02  0.88884583804E+02  0.11950452880E+03  0.75902187555E+02 0.  0.
         -6    2    1    2    0  502 -0.83204760523E+02  0.13171601156E+03  0.75168837625E+03  0.78677549078E+03  0.17236043059E+03 0.  0.
        -24    2    5    5    0    0 -0.26458302152E+02  0.12557301247E+02  0.45031650659E+03  0.45773741912E+03  0.76686773223E+02 0.  0.
          5    1    3    3  501    0  0.66936030570E+02 -0.11287325392E+03  0.78251680682E+01  0.13154515154E+03  0.47000000000E+01 0. -1.
        -11    1    4    4    0    0  0.23379927628E+02 -0.40578462028E+00 -0.47044918974E+01  0.23852000358E+02  0.00000000000E+00 0.  1.
         12    1    4    4    0    0 -0.71111976744E+01 -0.18436973024E+02  0.93589075702E+02  0.95652528442E+02  0.00000000000E+00 0. -1.
         -5    1    5    5    0  502 -0.56746458371E+02  0.11915871032E+03  0.30137186966E+03  0.32903807166E+03  0.47000000000E+01 0.  1.
         13    1    6    6    0    0 -0.32284445386E+01  0.80937403801E+01  0.21871225771E+01  0.89841523054E+01  0.00000000000E+00 0. -1.
        -14    1    6    6    0    0 -0.23229857614E+02  0.44635608665E+01  0.44812938402E+03  0.44875326682E+03  0.00000000000E+00 0.  1.
</event>
<event>
12    1  0.9028446E-003  0.1885212E+03  0.7818608E-02  0.1164618E+00
         21   -1    0    0  501  502  0.00000000000E+00  0.00000000000E+00  0.12724711816E+03  0.12724711816E+03  0.00000000000E+00 0.  1.
         21   -1    0    0  502  503 -0.00000000000E+00 -0.00000000000E+00 -0.25192784637E+03  0.25192784637E+03  0.00000000000E+00 0. -1.
          6    2    1    2  501    0  0.72780872835E+02 -0.29672144562E+01 -0.51887126489E+02  0.19553138696E+03  0.17388038871E+03 0.  0.
         24    2    3    3    0    0  0.11653266326E+03 -0.13393312410E+02 -0.22743954365E+02  0.14173234267E+03  0.76233372451E+02 0.  0.
         -6    2    1    2    0  503 -0.72780872835E+02  0.29672144562E+01 -0.72793601726E+02  0.18364357757E+03  0.15205326475E+03 0.  0.
        -24    2    5    5    0    0 -0.93644283344E+02  0.30649144834E+02 -0.72192608819E+02  0.14865754665E+03  0.84727041287E+02 0.  0.
          5    1    3    3  501    0 -0.43751790429E+02  0.10426097954E+02 -0.29143172124E+02  0.53799044283E+02  0.47000000000E+01 0. -1.
        -11    1    4    4    0    0  0.64031601331E+02 -0.16582189548E+02  0.24986588597E+02  0.70706043510E+02  0.00000000000E+00 0.  1.
         12    1    4    4    0    0  0.52501061933E+02  0.31888771384E+01 -0.47730542962E+02  0.71026299164E+02  0.00000000000E+00 0. -1.
         -5    1    5    5    0  503  0.20863410509E+02 -0.27681930378E+02 -0.60099290721E+00  0.34986030927E+02  0.47000000000E+01 0.  1.
         11    1    6    6    0    0 -0.90306767435E+02  0.66720696526E+01 -0.82356014038E+02  0.12240237664E+03  0.00000000000E+00 0. -1.
        -12    1    6    6    0    0 -0.33375159092E+01  0.23977075181E+02  0.10163405219E+02  0.26255170012E+02  0.00000000000E+00 0.  1.
</event>
<event>
12    1  0.9028446E-003  0.2267997E+03  0.7818608E-02  0.1129045E+00
         21   -1    0    0  501  502  0.00000000000E+00  0.00000000000E+00  0.51855015654E+03  0.51855015654E+03  0.00000000000E+00 0. -1.
         21   -1    0    0  502  503 -0.00000000000E+00 -0.00000000000E+00 -0.14492786800E+03  0.14492786800E+03  0.00000000000E+00 0. -1.
          6    2    1    2  501    0 -0.68261992513E+02  0.13157905656E+03  0.37360860715E+03  0.43667828295E+03  0.17068035539E+03 0.  0.
         24    2    3    3    0    0 -0.58598264622E+02  0.17067836618E+02  0.11152400171E+03  0.15046745587E+03  0.80484685839E+02 0.  0.
         -6    2    1    2    0  503  0.68261992513E+02 -0.13157905656E+03  0.13681398539E-01  0.22679974160E+03  0.17165481308E+03 0.  0.
        -24    2    5    5    0    0 -0.10439558642E+01 -0.10611903713E+02 -0.25658146867E+02  0.84963570909E+02  0.80291752606E+02 0.  0.
          5    1    3    3  501    0 -0.96637278905E+01  0.11451121994E+03  0.26208460544E+03  0.28621082708E+03  0.47000000000E+01 0. -1.
        -11    1    4    4    0    0  0.16927113309E+02  0.17887509807E+02  0.36322171390E+02  0.43883827392E+02  0.00000000000E+00 0.  1.
         12    1    4    4    0    0 -0.75525377931E+02 -0.81967318857E+00  0.75201830321E+02  0.10658362848E+03  0.00000000000E+00 0. -1.
         -5    1    5    5    0  503  0.69305948377E+02 -0.12096715285E+03  0.25671828266E+02  0.14183617069E+03  0.47000000000E+01 0.  1.
         13    1    6    6    0    0 -0.20352608682E+02 -0.40533391885E+02 -0.15517011066E+02  0.47937064681E+02  0.00000000000E+00 0. -1.
        -14    1    6    6    0    0  0.19308652818E+02  0.29921488172E+02 -0.10141135801E+02  0.37026506227E+02  0.00000000000E+00 0.  1.
</event>
<event>
12    1  0.9028446E-003  0.2306146E+03  0.7818608E-02  0.1126870E+00
         21   -1    0    0  501  502  0.00000000000E+00  0.00000000000E+00  0.10055210092E+03  0.10055210092E+03  0.00000000000E+00 0.  1.
         21   -1    0    0  502  503 -0.00000000000E+00 -0.00000000000E+00 -0.61334755940E+03  0.61334755940E+03  0.00000000000E+00 0. -1.
          6    2    1    2  501    0 -0.24413324161E+01  0.14921885101E+03 -0.11919817764E+03  0.25959830416E+03  0.17581481271E+03 0.  0.
         24    2    3    3    0    0 -0.44243370164E+01  0.86185824134E+02 -0.14857614175E+03  0.18986847152E+03  0.80793536508E+02 0.  0.
         -6    2    1    2    0  503  0.24413324161E+01 -0.14921885101E+03 -0.39359728084E+03  0.45430135617E+03  0.17087620412E+03 0.  0.
        -24    2    5    5    0    0 -0.33246220735E+02 -0.11500466835E+02 -0.19073790231E+03  0.20648293021E+03  0.70828533510E+02 0.  0.
          5    1    3    3  501    0  0.19830046002E+01  0.63033026874E+02  0.29377964110E+02  0.69729832635E+02  0.47000000000E+01 0. -1.
        -13    1    4    4    0    0 -0.36826497023E+02  0.39052396360E+02 -0.39292923650E+02  0.66522284938E+02  0.00000000000E+00 0.  1.
         14    1    4    4    0    0  0.32402160006E+02  0.47133427775E+02 -0.10928321810E+03  0.12334618658E+03  0.00000000000E+00 0. -1.
         -5    1    5    5    0  503  0.35687553151E+02 -0.13771838417E+03 -0.20285937853E+03  0.24781842596E+03  0.47000000000E+01 0.  1.
         13    1    6    6    0    0  0.20976287277E+01  0.20621989828E+02 -0.11564947369E+03  0.11749241370E+03  0.00000000000E+00 0. -1.
        -14    1    6    6    0    0 -0.35343849462E+02 -0.32122456664E+02 -0.75088428618E+02  0.88990516513E+02  0.00000000000E+00 0.  1.
</event>
<event>
12    1  0.9028446E-003  0.1883291E+03  0.7818608E-02  0.1160008E+00
         21   -1    0    0  501  502  0.00000000000E+00  0.00000000000E+00  0.21959778485E+02  0.21959778485E+02  0.00000000000E+00 0.  1.
         21   -1    0    0  502  503 -0.00000000000E+00 -0.00000000000E+00 -0.16871488081E+04  0.16871488081E+04  0.00000000000E+00 0.  1.
          6    2    1    2  501    0  0.67853221910E+02 -0.36190194492E+02 -0.65433360273E+03  0.68085932178E+03  0.17176484647E+03 0.  0.
         24    2    3    3    0    0  0.90820269881E+02 -0.74593407545E+02 -0.53103126260E+03  0.54960442035E+03  0.79109538885E+02 0.  0.
         -6    2    1    2    0  503 -0.67853221910E+02  0.36190194492E+02 -0.10108554269E+04  0.10282492648E+04  0.17191296235E+03 0.  0.
        -24    2    5    5    0    0 -0.86268232832E+02  0.42207825579E+02 -0.45236558662E+03  0.46940374394E+03  0.80508026546E+02 0.  0.
          5    1    3    3  501    0 -0.22967047971E+02  0.38403213052E+02 -0.12330234014E+03  0.13125490143E+03  0.47000000000E+01 0. -1.
        -11    1    4    4    0    0  0.47100374201E+02 -0.39927336834E+02 -0.42803806544E+03  0.43246875372E+03  0.00000000000E+00 0.  1.
         12    1    4    4    0    0  0.43719895680E+02 -0.34666070711E+02 -0.10299319716E+03  0.11713566663E+03  0.00000000000E+00 0. -1.
         -5    1    5    5    0  503  0.18415010922E+02 -0.60176310866E+01 -0.55848984024E+03  0.55884552084E+03  0.47000000000E+01 0.  1.
         11    1    6    6    0    0  0.49294593673E+01  0.22554367616E+02 -0.18064028113E+03  0.18210961050E+03  0.00000000000E+00 0. -1.
        -12    1    6    6    0    0 -0.91197692199E+02  0.19653457963E+02 -0.27172530549E+03  0.28729413345E+03  0.00000000000E+00 0.  1.
</event>
<event>
12    1  0.9028446E-003  0.1975010E+03  0.7818608E-02  0.1151990E+00
         21   -1    0    0  501  502  0.00000000000E+00  0.00000000000E+00  0.46292368644E+03  0.46292368644E+03  0.00000000000E+00 0.  1.
         21   -1    0    0  502  503 -0.00000000000E+00 -0.00000000000E+00 -0.18287267687E+03  0.18287267687E+03  0.00000000000E+00 0.  1.
          6    2    1    2  501    0  0.10153995113E+02 -0.96497617958E+02  0.37734081222E+03  0.42563293496E+03  0.17135464065E+03 0.  0.
         24    2    3    3    0    0 -0.53056335002E+02 -0.74275347775E+02  0.29080204230E+03  0.31608648899E+03  0.83743887832E+02 0.  0.
         -6    2    1    2    0  503 -0.10153995113E+02  0.96497617958E+02 -0.97289802648E+02  0.22016342835E+03  0.17202248573E+03 0.  0.
        -24    2    5    5    0    0  0.10574258634E+02  0.15052661984E+02 -0.11290765068E+03  0.13455415003E+03  0.70839848463E+02 0.  0.
          5    1    3    3  501    0  0.63210330115E+02 -0.22222270183E+02  0.86538769920E+02  0.10954644597E+03  0.47000000000E+01 0. -1.
        -11    1    4    4    0    0 -0.57213101975E+02 -0.61426427294E+02  0.13018141986E+03  0.15489915134E+03  0.00000000000E+00 0.  1.
         12    1    4    4    0    0  0.41567669739E+01 -0.12848920481E+02  0.16062062244E+03  0.16118733766E+03  0.00000000000E+00 0. -1.
         -5    1    5    5    0  503 -0.20728253747E+02  0.81444955974E+02  0.15617848032E+02  0.85609278319E+02  0.47000000000E+01 0.  1.
         13    1    6    6    0    0  0.62562963459E+01 -0.28420258475E+02 -0.52163358938E+02  0.59731636102E+02  0.00000000000E+00 0. -1.
        -14    1    6    6    0    0  0.43179622881E+01  0.43472920458E+02 -0.60744291741E+02  0.74822513929E+02  0.00000000000E+00 0.  1.
</event>
<event>
12    1  0.9028446E-003  0.2195994E+03  0.7818608E-02  0.1135963E+00
         21   -1    0    0  501  502  0.00000000000E+00  0.00000000000E+00  0.45724198521E+02  0.45724198521E+02  0.00000000000E+00 0.  1.
         21   -1    0    0  502  503 -0.00000000000E+00 -0.00000000000E+00 -0.13360219547E+04  0.13360219547E+04  0.00000000000E+00 0.  1.
          6    2    1    2  501    0 -0.58291936213E+02 -0.10506870474E+03 -0.29356432283E+03  0.36110839068E+03  0.17257426122E+03 0.  0.
         24    2    3    3    0    0 -0.95948848178E+02 -0.11666088324E+03 -0.23948990796E+03  0.29403713033E+03  0.79287293154E+02 0.  0.
         -6    2    1    2    0  503  0.58291936213E+02  0.10506870474E+03 -0.99673343333E+03  0.10206377625E+04  0.18381110583E+03 0.  0.
        -24    2    5    5    0    0 -0.20382430391E+02  0.11269907400E+03 -0.67664126828E+03  0.69089701190E+03  0.79867079339E+02 0.  0.
          5    1    3    3  501    0  0.37656911965E+02  0.11592178494E+02 -0.54074414874E+02  0.67071260350E+02  0.47000000000E+01 0. -1.
        -13    1    4    4    0    0 -0.87393895148E+02 -0.47654115471E+02 -0.15987988220E+03  0.18833529771E+03  0.00000000000E+00 0.  1.
         14    1    4    4    0    0 -0.85549530299E+01 -0.69006767764E+02 -0.79610025755E+02  0.10570183262E+03  0.00000000000E+00 0. -1.
         -5    1    5    5    0  503  0.78674366604E+02 -0.76303692574E+01 -0.32009216505E+03  0.32974075062E+03  0.47000000000E+01 0.  1.
         11    1    6    6    0    0 -0.23434141314E+02  0.16759463887E+02 -0.32863714681E+03  0.32989757937E+03  0.00000000000E+00 0. -1.
        -12    1    6    6    0    0  0.30517109229E+01  0.95939610112E+02 -0.34800412147E+03  0.36099943253E+03  0.00000000000E+00 0.  1.
</event>
<event>
12    1  0.9028446E-003  0.1821275E+03  0.7818608E-02  0.1166453E+00
         21   -1    0    0  503  502  0.00000000000E+00  0.00000000000E+00  0.62638681770E+03  0.62638681770E+03  0.00000000000E+00 0. -1.
         21   -1    0    0  501  503 -0.00000000000E+00 -0.00000000000E+00 -0.64006225519E+02  0.64006225519E+02  0.00000000000E+00 0. -1.
          6    2    1    2  501    0 -0.21435188676E+02 -0.50560646737E+02  0.13060726109E+03  0.22177952616E+03  0.17062255203E+03 0.  0.
         24    2    3    3    0    0  0.43955657844E+02  0.47135737240E+01  0.85001861147E+02  0.12465514837E+03  0.79745043631E+02 0.  0.
         -6    2    1    2    0  502  0.21435188676E+02  0.50560646737E+02  0.43177333109E+03  0.46861351706E+03  0.17365072018E+03 0.  0.
        -24    2    5    5    0    0  0.28263486564E+02  0.10012769297E+03  0.28364585047E+03  0.31219306368E+03  0.78645794197E+02 0.  0.
          5    1    3    3  501    0 -0.65390846520E+02 -0.55274220461E+02  0.45605399945E+02  0.97124377786E+02  0.47000000000E+01 0. -1.
        -11    1    4    4    0    0 -0.93515632893E+00  0.27984542331E+02  0.64086069947E+02  0.69935924160E+02  0.00000000000E+00 0.  1.
         12    1    4    4    0    0  0.44890814173E+02 -0.23270968607E+02  0.20915791200E+02  0.54719224213E+02  0.00000000000E+00 0. -1.
         -5    1    5    5    0  502 -0.68282978875E+01 -0.49567046228E+02  0.14812748062E+03  0.15642045339E+03  0.47000000000E+01 0.  1.
         11    1    6    6    0    0 -0.24468060217E+02  0.57923056782E+02  0.13702420007E+03  0.15076272047E+03  0.00000000000E+00 0. -1.
        -12    1    6    6    0    0  0.52731546781E+02  0.42204636183E+02  0.14662165040E+03  0.16143034321E+03  0.00000000000E+00 0.  1.
</event>
<event>
12    1  0.9028446E-003  0.2015774E+03  0.7818608E-02  0.1148671E+00
         21   -1    0    0  503  502  0.00000000000E+00  0.00000000000E+00  0.40608322368E+02  0.40608322368E+02  0.00000000000E+00 0.  1.
         21   -1    0    0  501  503 -0.00000000000E+00 -0.00000000000E+00 -0.10307743818E+04  0.10307743818E+04  0.00000000000E+00 0.  1.
          6    2    1    2  501    0  0.94582540186E+02  0.42681527429E+02 -0.59404531344E+03  0.62692226165E+03  0.17138879205E+03 0.  0.
         24    2    3    3    0    0  0.12776969963E+03  0.52023566668E+02 -0.55656746652E+03  0.57578186413E+03  0.52209794499E+02 0.  0.
         -6    2    1    2    0  502 -0.94582540186E+02 -0.42681527429E+02 -0.39612074600E+03  0.44446044253E+03  0.17281744665E+03 0.  0.
        -24    2    5    5    0    0 -0.62241193001E+02 -0.32740293882E+02 -0.39537564796E+03  0.41029267946E+03  0.84096889757E+02 0.  0.
          5    1    3    3  501    0 -0.33187159440E+02 -0.93420392395E+01 -0.37477846921E+02  0.51140397521E+02  0.47000000000E+01 0. -1.
        -13    1    4    4    0    0  0.70653551229E+01  0.18256667196E+02 -0.11968875760E+03  0.12127911542E+03  0.00000000000E+00 0.  1.
         14    1    4    4    0    0  0.12070434450E+03  0.33766899473E+02 -0.43687870892E+03  0.45450274872E+03  0.00000000000E+00 0. -1.
         -5    1    5    5    0  502 -0.32341347185E+02 -0.99412335465E+01 -0.74509804184E+00  0.34167763071E+02  0.47000000000E+01 0.  1.
         11    1    6    6    0    0 -0.21399342739E+00 -0.46162353449E+02 -0.16532331109E+03  0.17164732989E+03  0.00000000000E+00 0. -1.
        -12    1    6    6    0    0 -0.62027199574E+02  0.13422059567E+02 -0.23005233687E+03  0.23864534956E+03  0.00000000000E+00 0.  1.
</event>
<event>
12    1  0.9028446E-003  0.2433147E+03  0.7818608E-02  0.1117636E+00
         21   -1    0    0  503  502  0.00000000000E+00  0.00000000000E+00  0.15185641374E+03  0.15185641374E+03  0.00000000000E+00 0.  1.
         21   -1    0    0  501  503 -0.00000000000E+00 -0.00000000000E+00 -0.73164715328E+03  0.73164715328E+03  0.00000000000E+00 0.  1.
          6    2    1    2  501    0 -0.17148181874E+03 -0.15502620998E+02 -0.59202435119E+03  0.64007411585E+03  0.17191770114E+03 0.  0.
         24    2    3    3    0    0 -0.17998875239E+03  0.27545373610E+02 -0.48716762502E+03  0.52630891562E+03  0.80709858162E+02 0.  0.
         -6    2    1    2    0  502  0.17148181874E+03  0.15502620998E+02  0.12233611646E+02  0.24342945117E+03  0.17164466502E+03 0.  0.
        -24    2    5    5    0    0  0.19360289946E+03 -0.46581543574E+01  0.24384206137E+02  0.21078705509E+03  0.79578967087E+02 0.  0.
          5    1    3    3  501    0  0.85069336499E+01 -0.43047994608E+02 -0.10485672617E+03  0.11376520022E+03  0.47000000000E+01 0. -1.
        -13    1    4    4    0    0 -0.98933226426E+02  0.42929076838E+02 -0.35002853504E+03  0.36626583825E+03  0.00000000000E+00 0.  1.
         14    1    4    4    0    0 -0.81055525959E+02 -0.15383703227E+02 -0.13713908998E+03  0.16004307737E+03  0.00000000000E+00 0. -1.
         -5    1    5    5    0  502 -0.22121080726E+02  0.20160775355E+02 -0.12150594491E+02  0.32642396081E+02  0.47000000000E+01 0.  1.
         11    1    6    6    0    0  0.17939730639E+02 -0.26312505285E+02  0.91771320848E+01  0.33142142705E+02  0.00000000000E+00 0. -1.
        -12    1    6    6    0    0  0.17566316882E+03  0.21654350928E+02  0.15207074052E+02  0.17764491239E+03  0.00000000000E+00 0.  1.
</event>
<event>
12    1  0.9028446E-003  0.2508088E+03  0.7818608E-02  0.1113271E+00
         21   -1    0    0  501  502  0.00000000000E+00  0.00000000000E+00  0.16153482517E+03  0.16153482517E+03  0.00000000000E+00 0.  1.
         21   -1    0    0  502  503 -0.00000000000E+00 -0.00000000000E+00 -0.38634651375E+03  0.38634651375E+03  0.00000000000E+00 0. -1.
          6    2    1    2  501    0 -0.61827595693E+02  0.17123831283E+03 -0.95574527369E+02  0.26840182217E+03  0.17251039532E+03 0.  0.
         24    2    3    3    0    0  0.16365921553E+02  0.49507081378E+02 -0.78544969218E+02  0.12264581132E+03  0.78446723000E+02 0.  0.
         -6    2    1    2    0  503  0.61827595693E+02 -0.17123831283E+03 -0.12923716120E+03  0.27947951675E+03  0.16811110932E+03 0.  0.
        -24    2    5    5    0    0  0.50905905391E+02 -0.88397846128E+02 -0.53494571219E+01  0.12997339826E+03  0.80367139807E+02 0.  0.
          5    1    3    3  501    0 -0.78193517246E+02  0.12173123145E+03 -0.17029558151E+02  0.14575601085E+03  0.47000000000E+01 0. -1.
        -11    1    4    4    0    0  0.26330399616E+02  0.54239300567E+02 -0.20682660616E+02  0.63741384673E+02  0.00000000000E+00 0.  1.
         12    1    4    4    0    0 -0.99644780626E+01 -0.47322191890E+01 -0.57862308602E+02  0.58904426644E+02  0.00000000000E+00 0. -1.
         -5    1    5    5    0  503  0.10921690302E+02 -0.82840466699E+02 -0.12388770408E+03  0.14950611849E+03  0.47000000000E+01 0.  1.
         11    1    6    6    0    0  0.54205659787E+02 -0.75372606986E+02 -0.33565415995E+02  0.98721429222E+02  0.00000000000E+00 0. -1.
        -12    1    6    6    0    0 -0.32997543962E+01 -0.13025239142E+02  0.28215958873E+02  0.31251969040E+02  0.00000000000E+00 0.  1.
</event>
<event>
12    1  0.9028446E-003  0.1858707E+03  0.7818608E-02  0.1163641E+00
         21   -1    0    0  501  502  0.00000000000E+00  0.00000000000E+00  0.44869770993E+03  0.44869770993E+03  0.00000000000E+00 0.  1.
         21   -1    0    0  502  503 -0.00000000000E+00 -0.00000000000E+00 -0.82700516759E+02  0.82700516759E+02  0.00000000000E+00 0.  1.
          6    2    1    2  501    0  0.63848099418E+02  0.35231327668E+02  0.10230711785E+03  0.21216657866E+03  0.17096808032E+03 0.  0.
         24    2    3    3    0    0  0.67817571653E+02  0.30058138854E+01  0.14687322610E+01  0.10612549955E+03  0.81561060189E+02 0.  0.
         -6    2    1    2    0  503 -0.63848099418E+02 -0.35231327668E+02  0.26369007532E+03  0.31923164803E+03  0.16449487237E+03 0.  0.
        -24    2    5    5    0    0 -0.80348666194E+01 -0.13745014743E+02  0.24206338034E+03  0.25546188612E+03  0.80078777740E+02 0.  0.
          5    1    3    3  501    0 -0.39694722355E+01  0.32225513782E+02  0.10083838559E+03  0.10604107910E+03  0.47000000000E+01 0. -1.
        -13    1    4    4    0    0  0.32045694307E+02  0.31201500066E+02 -0.27160346675E+02  0.52327283146E+02  0.00000000000E+00 0.  1.
         14    1    4    4    0    0  0.35771877346E+02 -0.28195686180E+02  0.28629078936E+02  0.53798216408E+02  0.00000000000E+00 0. -1.
         -5    1    5    5    0  503 -0.55813232798E+02 -0.21486312925E+02  0.21626694971E+02  0.63769761909E+02  0.47000000000E+01 0.  1.
         13    1    6    6    0    0 -0.19027000368E+02  0.23522426803E+02  0.42605486725E+02  0.52254749113E+02  0.00000000000E+00 0. -1.
        -14    1    6    6    0    0  0.10992133749E+02 -0.37267441546E+02  0.19945789362E+03  0.20320713701E+03  0.00000000000E+00 0.  1.
</event>
<event>
12    1  0.9028446E-003  0.2010327E+03  0.7818608E-02  0.1149129E+00
         21   -1    0    0  501  502  0.00000000000E+00  0.00000000000E+00  0.65138557723E+03  0.65138557723E+03  0.00000000000E+00 0.  1.
         21   -1    0    0  502  503 -0.00000000000E+00 -0.00000000000E+00 -0.63699777138E+02  0.63699777138E+02  0.00000000000E+00 0. -1.
          6    2    1    2  501    0 -0.75278646992E+02 -0.72374121927E+02  0.23081206149E+03  0.30608556346E+03  0.17178264235E+03 0.  0.
         24    2    3    3    0    0 -0.67687384474E+02  0.17810195023E+02  0.15580555611E+03  0.18844669174E+03  0.79611552240E+02 0.  0.
         -6    2    1    2    0  503  0.75278646992E+02  0.72374121927E+02  0.35687373860E+03  0.40899979091E+03  0.17034399150E+03 0.  0.
        -24    2    5    5    0    0  0.94707129270E+02  0.63082313807E+02  0.36116663842E+03  0.38654266263E+03  0.77621328726E+02 0.  0.
          5    1    3    3  501    0 -0.75912625175E+01 -0.90184316950E+02  0.75006505384E+02  0.11763887172E+03  0.47000000000E+01 0. -1.
        -11    1    4    4    0    0 -0.52602404047E+02 -0.26556710439E+02  0.92730117669E+02  0.10986876947E+03  0.00000000000E+00 0.  1.
         12    1    4    4    0    0 -0.15084980427E+02  0.44366905462E+02  0.63075438439E+02  0.78577922275E+02  0.00000000000E+00 0. -1.
         -5    1    5    5    0  503 -0.19428482278E+02  0.92918081205E+01 -0.42928998171E+01  0.22457128281E+02  0.47000000000E+01 0.  1.
         11    1    6    6    0    0  0.11254763293E+02 -0.65949628163E+01  0.46988001522E+01  0.13865134482E+02  0.00000000000E+00 0. -1.
        -12    1    6    6    0    0  0.83452365977E+02  0.69677276623E+02  0.35646783827E+03  0.37267752815E+03  0.00000000000E+00 0.  1.
</event>
<event>
12    1  0.9028446E-003  0.1777985E+03  0.7818608E-02  0.1170202E+00
         21   -1    0    0  503  502  0.00000000000E+00  0.00000000000E+00  0.89085364181E+03  0.89085364181E+03  0.00000000000E+00 0.  1.
         21   -1    0    0  501  503 -0.00000000000E+00 -0.00000000000E+00 -0.51416191585E+02  0.51416191585E+02  0.00000000000E+00 0.  1.
          6    2    1    2  501    0  0.36809789035E+02  0.15247876905E+02  0.68446389428E+03  0.70717971331E+03  0.17327684794E+03 0.  0.
         24    2    3    3    0    0  0.69864426173E+02  0.29096756543E+02  0.64030658145E+03  0.65011519912E+03  0.83244186569E+02 0.  0.
         -6    2    1    2    0  502 -0.36809789035E+02 -0.15247876905E+02  0.15497355595E+03  0.23509012009E+03  0.17222979765E+03 0.  0.
        -24    2    5    5    0    0  0.24651684928E+02  0.40233689809E+02  0.90320057450E+02  0.12993365621E+03  0.80613813165E+02 0.  0.
          5    1    3    3  501    0 -0.33054637137E+02 -0.13848879638E+02  0.44157312834E+02  0.57064514194E+02  0.47000000000E+01 0. -1.
        -13    1    4    4    0    0  0.62055138038E+02 -0.16319422604E+02  0.43451488298E+03  0.43922698829E+03  0.00000000000E+00 0.  1.
         14    1    4    4    0    0  0.78092881343E+01  0.45416179146E+02  0.20579169846E+03  0.21088821083E+03  0.00000000000E+00 0. -1.
         -5    1    5    5    0  502 -0.61461473963E+02 -0.55481566714E+02  0.64653498500E+02  0.10515646388E+03  0.47000000000E+01 0.  1.
         13    1    6    6    0    0  0.10578688323E+02  0.98974449890E+01  0.95060292166E+02  0.96157824490E+02  0.00000000000E+00 0. -1.
        -14    1    6    6    0    0  0.14072996605E+02  0.30336244820E+02 -0.47402347164E+01  0.33775831720E+02  0.00000000000E+00 0.  1.
</event>
<event>
12    1  0.9028446E-003  0.1826402E+03  0.7818608E-02  0.1165406E+00
         21   -1    0    0  501  502  0.00000000000E+00  0.00000000000E+00  0.14755307934E+03  0.14755307934E+03  0.00000000000E+00 0.  1.
         21   -1    0    0  502  503 -0.00000000000E+00 -0.00000000000E+00 -0.22639871673E+03  0.22639871673E+03  0.00000000000E+00 0.  1.
          6    2    1    2  501    0  0.15587910887E+02 -0.60334945568E+02 -0.26788410258E+02  0.18403756802E+03  0.17108161472E+03 0.  0.
         24    2    3    3    0    0 -0.34573039686E+02 -0.15767176059E+02  0.36597390627E+02  0.91613237914E+02  0.74898047014E+02 0.  0.
         -6    2    1    2    0  503 -0.15587910887E+02  0.60334945568E+02 -0.52057227125E+02  0.18991422805E+03  0.17168043132E+03 0.  0.
        -24    2    5    5    0    0 -0.19867895829E+02  0.10571134558E+03 -0.22920249600E+02  0.13561515431E+03  0.79350553667E+02 0.  0.
          5    1    3    3  501    0  0.50160950573E+02 -0.44567769509E+02 -0.63385800884E+02  0.92424330104E+02  0.47000000000E+01 0. -1.
        -13    1    4    4    0    0 -0.60198324342E+01 -0.43452596959E+02  0.15034224854E+02  0.46372346091E+02  0.00000000000E+00 0.  1.
         14    1    4    4    0    0 -0.28553207252E+02  0.27685420901E+02  0.21563165773E+02  0.45240891823E+02  0.00000000000E+00 0. -1.
         -5    1    5    5    0  503  0.42799849423E+01 -0.45376400017E+02 -0.29136977525E+02  0.54299073739E+02  0.47000000000E+01 0.  1.
         11    1    6    6    0    0 -0.25732879964E+02  0.45137464578E+02  0.25469789118E+02  0.57864341157E+02  0.00000000000E+00 0. -1.
        -12    1    6    6    0    0  0.58649841350E+01  0.60573881007E+02 -0.48390038718E+02  0.77750813155E+02  0.00000000000E+00 0.  1.
</event>
<event>
12    1  0.9028446E-003  0.2181646E+03  0.7818608E-02  0.1135296E+00
         21   -1    0    0  501  502  0.00000000000E+00  0.00000000000E+00  0.88372885503E+02  0.88372885503E+02  0.00000000000E+00 0.  1.
         21   -1    0    0  502  503 -0.00000000000E+00 -0.00000000000E+00 -0.62641791115E+03  0.62641791115E+03  0.00000000000E+00 0. -1.
          6    2    1    2  501    0 -0.11568367138E+03 -0.68408825124E+02 -0.40333328396E+03  0.45855590081E+03  0.17185254446E+03 0.  0.
         24    2    3    3    0    0 -0.41533929371E+02 -0.74707061168E+02 -0.34354769430E+03  0.36298258472E+03  0.80156885384E+02 0.  0.
         -6    2    1    2    0  503  0.11568367138E+03  0.68408825124E+02 -0.13471174169E+03  0.25623489585E+03  0.17160008544E+03 0.  0.
        -24    2    5    5    0    0  0.12739344657E+03  0.76982761301E+01 -0.69879674850E+02  0.16652326625E+03  0.80984415536E+02 0.  0.
          5    1    3    3  501    0 -0.74149742009E+02  0.62982360440E+01 -0.59785589660E+02  0.95573316089E+02  0.47000000000E+01 0. -1.
        -13    1    4    4    0    0  0.53587075754E+01  0.14253681038E+02 -0.29064669380E+02  0.32812165064E+02  0.00000000000E+00 0.  1.
         14    1    4    4    0    0 -0.46892636947E+02 -0.88960742206E+02 -0.31448302492E+03  0.33017041966E+03  0.00000000000E+00 0. -1.
         -5    1    5    5    0  503 -0.11709775195E+02  0.60710548994E+02 -0.64832066842E+02  0.89711629599E+02  0.47000000000E+01 0.  1.
         11    1    6    6    0    0  0.10262994558E+02  0.12099601253E+02 -0.43604410160E+02  0.46401228359E+02  0.00000000000E+00 0. -1.
        -12    1    6    6    0    0  0.11713045202E+03 -0.44013251227E+01 -0.26275264690E+02  0.12012203789E+03  0.00000000000E+00 0.  1.
</event>
