<event>
12    1  0.1623092E-001  0.1761954E+03  0.7818608E-02  0.1171663E+00
         21   -1    0    0  501  502  0.00000000000E+00  0.00000000000E+00  0.70579623786E+02  0.70579623786E+02  0.00000000000E+00 0.  1.
         21   -1    0    0  502  503 -0.00000000000E+00 -0.00000000000E+00 -0.81195681598E+03  0.81195681598E+03  0.00000000000E+00 0.  1.
         -6    2    1    2    0  503  0.32919371479E+02  0.18897870644E+02 -0.67020584258E+03  0.69297956827E+03  0.17205811833E+03 0.  0.
        -24    2    3    3    0    0 -0.46421436978E+02  0.44484631186E+01 -0.42128765310E+03  0.43128106939E+03  0.79657614343E+02 0.  0.
          6    2    1    2  501    0 -0.32919371479E+02 -0.18897870644E+02 -0.71171349613E+02  0.18955687149E+03  0.17153901011E+03 0.  0.
         24    2    5    5    0    0 -0.31063139582E+02 -0.68132693318E+02 -0.84552932755E+02  0.13828631339E+03  0.79793004046E+02 0.  0.
          5    1    5    5  501    0 -0.18562318972E+01  0.49234822674E+02  0.13381583142E+02  0.51270558101E+02  0.47000000000E+01 0. -1.
        -11    1    6    6    0    0 -0.30603532099E+02 -0.51116760263E+00 -0.76929158358E+00  0.30617466891E+02  0.00000000000E+00 0.  1.
         12    1    6    6    0    0 -0.45960748283E+00 -0.67621525715E+02 -0.83783641171E+02  0.10766884650E+03  0.00000000000E+00 0. -1.
         -5    1    3    3    0  503  0.79340808457E+02  0.14449407525E+02 -0.24891818947E+03  0.26169849888E+03  0.47000000000E+01 0.  1.
         11    1    4    4    0    0 -0.53184399285E+02  0.30801756620E+02 -0.23007417321E+03  0.23814166732E+03  0.00000000000E+00 0. -1.
        -12    1    4    4    0    0  0.67629623070E+01 -0.26353293501E+02 -0.19121347990E+03  0.19313940207E+03  0.00000000000E+00 0.  1.
</event>
<event>
12    1  0.1623092E-001  0.1933834E+03  0.7818608E-02  0.1155643E+00
         21   -1    0    0  503  502  0.00000000000E+00  0.00000000000E+00  0.44071253121E+02  0.44071253121E+02  0.00000000000E+00 0. -1.
         21   -1    0    0  501  503 -0.00000000000E+00 -0.00000000000E+00 -0.10045958257E+04  0.10045958257E+04  0.00000000000E+00 0. -1.
          6    2    1    2  501    0 -0.33720580651E+02  0.80089821159E+02 -0.68855216360E+03  0.71495143745E+03  0.17175569542E+03 0.  0.
         24    2    3    3    0    0  0.57932180537E+01  0.19679066901E+02 -0.57134897783E+03  0.57722171564E+03  0.79526269138E+02 0.  0.
         -6    2    1    2    0  502  0.33720580651E+02 -0.80089821159E+02 -0.27197240897E+03  0.33371564136E+03  0.17275902591E+03 0.  0.
        -24    2    5    5    0    0  0.18804133339E+01 -0.37451846370E+02 -0.42473649342E+02  0.98081255453E+02  0.80060883283E+02 0.  0.
          5    1    3    3  501    0 -0.39513798704E+02  0.60410754258E+02 -0.11720318576E+03  0.13772972182E+03  0.47000000000E+01 0. -1.
        -13    1    4    4    0    0  0.35325247206E+02  0.32434634057E+02 -0.40142738481E+03  0.40428186189E+03  0.00000000000E+00 0.  1.
         14    1    4    4    0    0 -0.29532029152E+02 -0.12755567155E+02 -0.16992159302E+03  0.17293985375E+03  0.00000000000E+00 0. -1.
         -5    1    5    5    0  502  0.31840167317E+02 -0.42637974789E+02 -0.22949875963E+03  0.23563438591E+03  0.47000000000E+01 0.  1.
         11    1    6    6    0    0  0.28667576420E+01 -0.59759838965E+02 -0.46008475955E+02  0.75473415930E+02  0.00000000000E+00 0. -1.
        -12    1    6    6    0    0 -0.98634430805E+00  0.22307992595E+02  0.35348266132E+01  0.22607839523E+02  0.00000000000E+00 0.  1.
</event>
<event>
12    1  0.1623092E-001  0.2247495E+03  0.7818608E-02  0.1130678E+00
         21   -1    0    0  501  502  0.00000000000E+00  0.00000000000E+00  0.13564583808E+04  0.13564583808E+04  0.00000000000E+00 0.  1.
         21   -1    0    0  502  503 -0.00000000000E+00 -0.00000000000E+00 -0.69319421082E+02  0.69319421082E+02  0.00000000000E+00 0.  1.
         -6    2    1    2    0  503 -0.14042018122E+03  0.25694356872E+02  0.15783855285E+03  0.27463678891E+03  0.17359242433E+03 0.  0.
        -24    2    3    3    0    0 -0.76042043163E+00 -0.18722013659E+02  0.62012581436E+02  0.99472952592E+02  0.75486528642E+02 0.  0.
          6    2    1    2  501    0  0.14042018122E+03 -0.25694356872E+02  0.11293004069E+04  0.11511410130E+04  0.17154648212E+03 0.  0.
         24    2    5    5    0    0  0.16476090539E+03 -0.40404181983E+02  0.92803609716E+03  0.94782288253E+03  0.91315744180E+02 0.  0.
          5    1    5    5  501    0 -0.24340724169E+02  0.14709825112E+02  0.20126430972E+03  0.20331813046E+03  0.47000000000E+01 0. -1.
        -13    1    6    6    0    0  0.14826000716E+03 -0.24804929963E+02  0.89619534017E+03  0.90871469781E+03  0.00000000000E+00 0.  1.
         14    1    6    6    0    0  0.16500898227E+02 -0.15599252020E+02  0.31840756998E+02  0.39108184720E+02  0.00000000000E+00 0. -1.
         -5    1    3    3    0  503 -0.13965976079E+03  0.44416370531E+02  0.95825971411E+02  0.17516383631E+03  0.47000000000E+01 0.  1.
         11    1    4    4    0    0  0.13547174813E+02  0.21246184634E+02  0.48953383564E+02  0.55057788453E+02  0.00000000000E+00 0. -1.
        -12    1    4    4    0    0 -0.14307595244E+02 -0.39968198293E+02  0.13059197872E+02  0.44415164140E+02  0.00000000000E+00 0.  1.
</event>
<event>
12    1  0.1623092E-001  0.1743999E+03  0.7818608E-02  0.1173357E+00
         21   -1    0    0  501  502  0.00000000000E+00  0.00000000000E+00  0.16370899792E+04  0.16370899792E+04  0.00000000000E+00 0.  1.
         21   -1    0    0  502  503 -0.00000000000E+00 -0.00000000000E+00 -0.20305578008E+02  0.20305578008E+02  0.00000000000E+00 0.  1.
         -6    2    1    2    0  503  0.31203749960E+02  0.11641966923E+01  0.10505089709E+04  0.10648728144E+04  0.17149339244E+03 0.  0.
        -24    2    3    3    0    0 -0.25408704037E+02  0.44985359417E+02  0.64630153549E+03  0.65434753497E+03  0.88293470569E+02 0.  0.
          6    2    1    2  501    0 -0.31203749960E+02 -0.11641966923E+01  0.56627543035E+03  0.59252274281E+03  0.17158178333E+03 0.  0.
         24    2    5    5    0    0 -0.73890232432E+02 -0.15837207477E+02  0.50060225500E+03  0.51269487179E+03  0.80887763366E+02 0.  0.
          5    1    5    5  501    0  0.42686482472E+02  0.14673010784E+02  0.65673175347E+02  0.79827871019E+02  0.47000000000E+01 0. -1.
        -11    1    6    6    0    0 -0.57667747101E+02 -0.47765997616E+02  0.33938223951E+03  0.34754490944E+03  0.00000000000E+00 0.  1.
         12    1    6    6    0    0 -0.16222485331E+02  0.31928790140E+02  0.16122001549E+03  0.16514996235E+03  0.00000000000E+00 0. -1.
         -5    1    3    3    0  503  0.56612453997E+02 -0.43821162724E+02  0.40420743537E+03  0.41052527944E+03  0.47000000000E+01 0. -1.
         11    1    4    4    0    0 -0.30451096527E+02 -0.19994254888E+02  0.19641801977E+03  0.19976755993E+03  0.00000000000E+00 0. -1.
        -12    1    4    4    0    0  0.50423924897E+01  0.64979614304E+02  0.44988351572E+03  0.45457997505E+03  0.00000000000E+00 0.  1.
</event>
<event>
12    1  0.1623092E-001  0.2860616E+03  0.7818608E-02  0.1093520E+00
         21   -1    0    0  501  502  0.00000000000E+00  0.00000000000E+00  0.10109097889E+04  0.10109097889E+04  0.00000000000E+00 0.  1.
         21   -1    0    0  502  503 -0.00000000000E+00 -0.00000000000E+00 -0.13516928354E+03  0.13516928354E+03  0.00000000000E+00 0.  1.
         -6    2    1    2    0  503  0.22194492262E+03  0.22097044635E+02  0.63717300132E+02  0.28514183308E+03  0.16582563908E+03 0.  0.
        -24    2    3    3    0    0  0.79344331212E+02  0.81919479707E+01 -0.26028946977E+02  0.11601241739E+03  0.80117064348E+02 0.  0.
          6    2    1    2  501    0 -0.22194492262E+03 -0.22097044635E+02  0.81202320521E+03  0.86093723934E+03  0.17911844190E+03 0.  0.
         24    2    5    5    0    0 -0.14371153700E+03 -0.69194601981E+02  0.65626050115E+03  0.68031954223E+03  0.81950810620E+02 0.  0.
          5    1    5    5  501    0 -0.78233385622E+02  0.47097557346E+02  0.15576270406E+03  0.18061769711E+03  0.47000000000E+01 0. -1.
        -11    1    6    6    0    0 -0.41125128443E+02 -0.38657981789E+02  0.37786309688E+03  0.38205527837E+03  0.00000000000E+00 0.  1.
         12    1    6    6    0    0 -0.10258640856E+03 -0.30536620192E+02  0.27839740428E+03  0.29826426387E+03  0.00000000000E+00 0. -1.
         -5    1    3    3    0  503  0.14260059141E+03  0.13905096664E+02  0.89746247109E+02  0.16912941570E+03  0.47000000000E+01 0.  1.
         11    1    4    4    0    0 -0.35399019279E+01  0.27292802270E+02 -0.10999491721E+02  0.29638096760E+02  0.00000000000E+00 0. -1.
        -12    1    4    4    0    0  0.82884233140E+02 -0.19100854300E+02 -0.15029455255E+02  0.86374320625E+02  0.00000000000E+00 0.  1.
</event>
<event>
12    1  0.1623092E-001  0.1739722E+03  0.7818608E-02  0.1174334E+00
         21   -1    0    0  501  502  0.00000000000E+00  0.00000000000E+00  0.64257841012E+03  0.64257841012E+03  0.00000000000E+00 0. -1.
         21   -1    0    0  502  503 -0.00000000000E+00 -0.00000000000E+00 -0.56658637624E+02  0.56658637624E+02  0.00000000000E+00 0. -1.
         -6    2    1    2    0  503  0.66192667236E+01 -0.27596930479E+02  0.14338239305E+03  0.22373134630E+03  0.16938653847E+03 0.  0.
        -24    2    3    3    0    0  0.48799701713E+02  0.44852396887E+01  0.29299214718E+02  0.97852371417E+02  0.79467693729E+02 0.  0.
          6    2    1    2  501    0 -0.66192667236E+01  0.27596930479E+02  0.44253737944E+03  0.47550570144E+03  0.17164187903E+03 0.  0.
         24    2    5    5    0    0 -0.22935671776E+02 -0.42334972457E+02  0.16472693687E+03  0.18852586222E+03  0.78030391898E+02 0.  0.
          5    1    5    5  501    0  0.16316405053E+02  0.69931902936E+02  0.27781044257E+03  0.28697983923E+03  0.47000000000E+01 0. -1.
        -11    1    6    6    0    0 -0.13886073304E+01  0.52439054730E+01 -0.71004843549E+01  0.89355275727E+01  0.00000000000E+00 0.  1.
         12    1    6    6    0    0 -0.21547064446E+02 -0.47578877930E+02  0.17182742123E+03  0.17959033464E+03  0.00000000000E+00 0. -1.
         -5    1    3    3    0  503 -0.42180434989E+02 -0.32082170168E+02  0.11408317834E+03  0.12587897488E+03  0.47000000000E+01 0.  1.
         13    1    4    4    0    0  0.19175648350E+01  0.11577561437E+02 -0.23878010710E+02  0.26605946312E+02  0.00000000000E+00 0. -1.
        -14    1    4    4    0    0  0.46882136878E+02 -0.70923217479E+01  0.53177225428E+02  0.71246425105E+02  0.00000000000E+00 0.  1.
</event>
<event>
12    1  0.1623092E-001  0.1749021E+03  0.7818608E-02  0.1173043E+00
         21   -1    0    0  503  502  0.00000000000E+00  0.00000000000E+00  0.19794505594E+03  0.19794505594E+03  0.00000000000E+00 0. -1.
         21   -1    0    0  501  503 -0.00000000000E+00 -0.00000000000E+00 -0.51851500191E+03  0.51851500191E+03  0.00000000000E+00 0. -1.
          6    2    1    2  501    0  0.31890328251E+02  0.37159357967E+00 -0.46084240277E+03  0.49291628228E+03  0.17196979395E+03 0.  0.
         24    2    3    3    0    0  0.44991856483E+02 -0.54294313173E+02 -0.37944272495E+03  0.39388088986E+03  0.78697104689E+02 0.  0.
         -6    2    1    2    0  502 -0.31890328251E+02 -0.37159357967E+00  0.14027245680E+03  0.22354377557E+03  0.17110910655E+03 0.  0.
        -24    2    5    5    0    0  0.87482022817E+00  0.61308240288E+02  0.10909226978E+03  0.14691316209E+03  0.76960302958E+02 0.  0.
          5    1    3    3  501    0 -0.13101528232E+02  0.54665906752E+02 -0.81399677817E+02  0.99035392420E+02  0.47000000000E+01 0. -1.
        -13    1    4    4    0    0  0.58722396115E+02 -0.52400535072E+02 -0.21670721573E+03  0.23055618237E+03  0.00000000000E+00 0.  1.
         14    1    4    4    0    0 -0.13730539633E+02 -0.18937781005E+01 -0.16273550922E+03  0.16332470749E+03  0.00000000000E+00 0. -1.
         -5    1    5    5    0  502 -0.32765148479E+02 -0.61679833867E+02  0.31180187015E+02  0.76630613485E+02  0.47000000000E+01 0.  1.
         11    1    6    6    0    0  0.98310510346E+01 -0.15184189980E+02  0.38071506396E+02  0.42150311849E+02  0.00000000000E+00 0. -1.
        -12    1    6    6    0    0 -0.89562308064E+01  0.76492430267E+02  0.71020763386E+02  0.10476285024E+03  0.00000000000E+00 0.  1.
</event>
<event>
12    1  0.1623092E-001  0.1933382E+03  0.7818608E-02  0.1155544E+00
         21   -1    0    0  503  502  0.00000000000E+00  0.00000000000E+00  0.94915805612E+02  0.94915805612E+02  0.00000000000E+00 0.  1.
         21   -1    0    0  501  503 -0.00000000000E+00 -0.00000000000E+00 -0.42897460032E+03  0.42897460032E+03  0.00000000000E+00 0. -1.
          6    2    1    2  501    0 -0.49452326711E+02  0.71071255486E+02 -0.24249274770E+03  0.30996515357E+03  0.17256595193E+03 0.  0.
         24    2    3    3    0    0 -0.93449099482E+02  0.15208058655E+02 -0.16427460098E+03  0.20415125443E+03  0.75680716936E+02 0.  0.
         -6    2    1    2    0  502  0.49452326711E+02 -0.71071255486E+02 -0.91566047013E+02  0.21392525237E+03  0.17286704909E+03 0.  0.
        -24    2    5    5    0    0 -0.40253148852E+01 -0.80373477912E+02 -0.10833634102E+03  0.15691891716E+03  0.80066751318E+02 0.  0.
          5    1    3    3  501    0  0.43996772771E+02  0.55863196832E+02 -0.78218146716E+02  0.10581389914E+03  0.47000000000E+01 0. -1.
        -11    1    4    4    0    0 -0.11883825180E+02  0.24142016415E+02 -0.88361893097E+02  0.92368211031E+02  0.00000000000E+00 0.  1.
         12    1    4    4    0    0 -0.81565274302E+02 -0.89339577609E+01 -0.75912707886E+02  0.11178304340E+03  0.00000000000E+00 0. -1.
         -5    1    5    5    0  502  0.53477641596E+02  0.93022224257E+01  0.16770294004E+02  0.57006335207E+02  0.47000000000E+01 0.  1.
         11    1    6    6    0    0 -0.11066226945E+02 -0.13284341249E+01 -0.66076924883E+02  0.67010343366E+02  0.00000000000E+00 0. -1.
        -12    1    6    6    0    0  0.70409120600E+01 -0.79045043787E+02 -0.42259416134E+02  0.89908573795E+02  0.00000000000E+00 0.  1.
</event>
<event>
12    1  0.1623092E-001  0.2151631E+03  0.7818608E-02  0.1137923E+00
         21   -1    0    0  501  502  0.00000000000E+00  0.00000000000E+00  0.19636966252E+03  0.19636966252E+03  0.00000000000E+00 0.  1.
         21   -1    0    0  502  503 -0.00000000000E+00 -0.00000000000E+00 -0.24521328447E+03  0.24521328447E+03  0.00000000000E+00 0.  1.
         -6    2    1    2    0  503 -0.11162235778E+03  0.62447726531E+02  0.23751671601E+02  0.21450317680E+03  0.17055263601E+03 0.  0.
        -24    2    3    3    0    0 -0.22205327090E+02  0.52743821761E+02  0.60401234398E+02  0.11726711560E+03  0.82633407288E+02 0.  0.
          6    2    1    2  501    0  0.11162235778E+03 -0.62447726531E+02 -0.72595293552E+02  0.22707977019E+03  0.17301987192E+03 0.  0.
         24    2    5    5    0    0  0.56096087409E+02 -0.44312737220E+02  0.27870037711E+02  0.11077234427E+03  0.79896079691E+02 0.  0.
          5    1    5    5  501    0  0.55526270367E+02 -0.18134989311E+02 -0.10046533126E+03  0.11630742592E+03  0.47000000000E+01 0. -1.
        -13    1    6    6    0    0  0.67209759717E+02 -0.74695214015E+01  0.25308214481E+02  0.72204233058E+02  0.00000000000E+00 0.  1.
         14    1    6    6    0    0 -0.11113672308E+02 -0.36843215818E+02  0.25618232294E+01  0.38568111210E+02  0.00000000000E+00 0. -1.
         -5    1    3    3    0  503 -0.89417030686E+02  0.97039047696E+01 -0.36649562796E+02  0.97236061200E+02  0.47000000000E+01 0.  1.
         11    1    4    4    0    0 -0.51936394021E+02  0.19889527046E+02  0.27269655654E+02  0.61940426455E+02  0.00000000000E+00 0. -1.
        -12    1    4    4    0    0  0.29731066931E+02  0.32854294715E+02  0.33131578744E+02  0.55326689148E+02  0.00000000000E+00 0.  1.
</event>
<event>
12    1  0.1623092E-001  0.2338183E+03  0.7818608E-02  0.1123989E+00
         21   -1    0    0  501  502  0.00000000000E+00  0.00000000000E+00  0.32881040546E+03  0.32881040546E+03  0.00000000000E+00 0. -1.
         21   -1    0    0  502  503 -0.00000000000E+00 -0.00000000000E+00 -0.40597112192E+03  0.40597112192E+03  0.00000000000E+00 0. -1.
         -6    2    1    2    0  503  0.14866767620E+03  0.54707297048E+02 -0.32090346376E+03  0.39702195374E+03  0.17190820923E+03 0.  0.
        -24    2    3    3    0    0  0.10455722141E+03 -0.39192031936E+01 -0.10165621233E+03  0.16577696242E+03  0.78742892126E+02 0.  0.
          6    2    1    2  501    0 -0.14866767620E+03 -0.54707297048E+02  0.24374274730E+03  0.33775957363E+03  0.17197684850E+03 0.  0.
         24    2    5    5    0    0 -0.44613659850E+02 -0.71331194260E+02  0.17903354750E+03  0.21401401688E+03  0.81672947605E+02 0.  0.
          5    1    5    5  501    0 -0.10405401635E+03  0.16623897212E+02  0.64709199802E+02  0.12374555676E+03  0.47000000000E+01 0. -1.
        -11    1    6    6    0    0 -0.28751190291E+02 -0.46662051947E+02  0.17622444378E+03  0.18455089439E+03  0.00000000000E+00 0.  1.
         12    1    6    6    0    0 -0.15862469559E+02 -0.24669142312E+02  0.28091037185E+01  0.29463122486E+02  0.00000000000E+00 0. -1.
         -5    1    3    3    0  503  0.44110454790E+02  0.58626500242E+02 -0.21924725143E+03  0.23124499132E+03  0.47000000000E+01 0.  1.
         11    1    4    4    0    0  0.32509628157E+02 -0.37159395323E+02 -0.54224974979E+02  0.73335151838E+02  0.00000000000E+00 0. -1.
        -12    1    4    4    0    0  0.72047593256E+02  0.33240192129E+02 -0.47431237352E+02  0.92441810581E+02  0.00000000000E+00 0.  1.
</event>
<event>
12    1  0.1623092E-001  0.1994110E+03  0.7818608E-02  0.1150306E+00
         21   -1    0    0  503  502  0.00000000000E+00  0.00000000000E+00  0.38183280062E+02  0.38183280062E+02  0.00000000000E+00 0. -1.
         21   -1    0    0  501  503 -0.00000000000E+00 -0.00000000000E+00 -0.10806219340E+04  0.10806219340E+04  0.00000000000E+00 0. -1.
          6    2    1    2  501    0  0.83465502698E+02  0.57587188012E+02 -0.63047159301E+03  0.66125577009E+03  0.17170320185E+03 0.  0.
         24    2    3    3    0    0  0.11475984011E+03  0.14702250511E+02 -0.38022811548E+03  0.40539967487E+03  0.79934344983E+02 0.  0.
         -6    2    1    2    0  502 -0.83465502698E+02 -0.57587188012E+02 -0.41196706095E+03  0.45754944399E+03  0.17132384546E+03 0.  0.
        -24    2    5    5    0    0 -0.60238635962E+02 -0.64094490322E+02 -0.13456768226E+03  0.17906364970E+03  0.78857672954E+02 0.  0.
          5    1    3    3  501    0 -0.31294337416E+02  0.42884937501E+02 -0.25024347752E+03  0.25585609522E+03  0.47000000000E+01 0. -1.
        -13    1    4    4    0    0 -0.10848514313E+02 -0.73263284053E+01 -0.36771846108E+02  0.39032473876E+02  0.00000000000E+00 0.  1.
         14    1    4    4    0    0  0.12560835443E+03  0.22028578916E+02 -0.34345626937E+03  0.36636720099E+03  0.00000000000E+00 0. -1.
         -5    1    5    5    0  502 -0.23226866736E+02  0.65073023105E+01 -0.27739937869E+03  0.27848579429E+03  0.47000000000E+01 0.  1.
         11    1    6    6    0    0 -0.65423717173E+00 -0.44913939875E+02 -0.94801380900E+02  0.10490467979E+03  0.00000000000E+00 0. -1.
        -12    1    6    6    0    0 -0.59584398790E+02 -0.19180550448E+02 -0.39766301361E+02  0.74158969913E+02  0.00000000000E+00 0.  1.
</event>
<event>
12    1  0.1623092E-001  0.3904401E+03  0.7818608E-02  0.1047147E+00
         21   -1    0    0  503  502  0.00000000000E+00  0.00000000000E+00  0.10037826748E+04  0.10037826748E+04  0.00000000000E+00 0.  1.
         21   -1    0    0  501  503 -0.00000000000E+00 -0.00000000000E+00 -0.16520326087E+03  0.16520326087E+03  0.00000000000E+00 0. -1.
          6    2    1    2  501    0  0.15668109679E+03 -0.31322700355E+03  0.25310791952E+03  0.46530325886E+03  0.17257862538E+03 0.  0.
         24    2    3    3    0    0  0.61783532073E+02 -0.22814388272E+03  0.22237029890E+03  0.33411036057E+03  0.79462866494E+02 0.  0.
         -6    2    1    2    0  502 -0.15668109679E+03  0.31322700355E+03  0.58547149438E+03  0.70368267677E+03  0.17243061507E+03 0.  0.
        -24    2    5    5    0    0 -0.11019630042E+03  0.28366874657E+03  0.39349134515E+03  0.50390030882E+03  0.80429472878E+02 0.  0.
          5    1    3    3  501    0  0.94897564719E+02 -0.85083120825E+02  0.30737620620E+02  0.13119289828E+03  0.47000000000E+01 0. -1.
        -13    1    4    4    0    0 -0.91730209734E+01 -0.45847800794E+02  0.15168172846E+02  0.49155250166E+02  0.00000000000E+00 0.  1.
         14    1    4    4    0    0  0.70956553047E+02 -0.18229608193E+03  0.20720212605E+03  0.28495511041E+03  0.00000000000E+00 0. -1.
         -5    1    5    5    0  502 -0.46484796369E+02  0.29558256977E+02  0.19198014922E+03  0.19978236795E+03  0.47000000000E+01 0.  1.
         11    1    6    6    0    0 -0.74351795024E+02  0.91316247582E+02  0.17083145617E+03  0.20748550049E+03  0.00000000000E+00 0. -1.
        -12    1    6    6    0    0 -0.35844505399E+02  0.19235249899E+03  0.22265988898E+03  0.29641480833E+03  0.00000000000E+00 0.  1.
</event>
<event>
12    1  0.1623092E-001  0.3613133E+03  0.7818608E-02  0.1058211E+00
         21   -1    0    0  503  502  0.00000000000E+00  0.00000000000E+00  0.16191850594E+04  0.16191850594E+04  0.00000000000E+00 0. -1.
         21   -1    0    0  501  503 -0.00000000000E+00 -0.00000000000E+00 -0.81330220778E+02  0.81330220778E+02  0.00000000000E+00 0. -1.
          6    2    1    2  501    0  0.27091080792E+03 -0.16358468260E+03  0.86634967332E+03  0.93867410678E+03  0.17434078138E+03 0.  0.
         24    2    3    3    0    0  0.10309014960E+03 -0.99690169591E+02  0.56531561765E+03  0.58811758520E+03  0.75728710564E+02 0.  0.
         -6    2    1    2    0  502 -0.27091080792E+03  0.16358468260E+03  0.67150516533E+03  0.76184117343E+03  0.17126053905E+03 0.  0.
        -24    2    5    5    0    0 -0.99037331645E+02  0.12430767995E+03  0.40537722640E+03  0.44257741936E+03  0.79267169038E+02 0.  0.
          5    1    3    3  501    0  0.16782065832E+03 -0.63894513005E+02  0.30103405567E+03  0.35055652158E+03  0.47000000000E+01 0. -1.
        -13    1    4    4    0    0  0.17802560871E+02 -0.63773307533E+02  0.29701777175E+03  0.30430826913E+03  0.00000000000E+00 0.  1.
         14    1    4    4    0    0  0.85287588729E+02 -0.35916862058E+02  0.26829784590E+03  0.28380931607E+03  0.00000000000E+00 0. -1.
         -5    1    5    5    0  502 -0.17187347627E+03  0.39277002641E+02  0.26612793893E+03  0.31926375407E+03  0.47000000000E+01 0.  1.
         11    1    6    6    0    0 -0.51024963360E+02  0.84756527636E+01  0.13386327392E+03  0.14350874426E+03  0.00000000000E+00 0. -1.
        -12    1    6    6    0    0 -0.48012368285E+02  0.11583202719E+03  0.27151395248E+03  0.29906867509E+03  0.00000000000E+00 0.  1.
</event>
<event>
12    1  0.1623092E-001  0.1923287E+03  0.7818608E-02  0.1156502E+00
         21   -1    0    0  503  502  0.00000000000E+00  0.00000000000E+00  0.16380812776E+03  0.16380812776E+03  0.00000000000E+00 0. -1.
         21   -1    0    0  501  503 -0.00000000000E+00 -0.00000000000E+00 -0.30549663551E+03  0.30549663551E+03  0.00000000000E+00 0. -1.
          6    2    1    2  501    0 -0.77001687886E+02 -0.34656216936E+02 -0.19110171594E+03  0.27072987988E+03  0.17217574950E+03 0.  0.
         24    2    3    3    0    0 -0.31322474985E+02  0.20287307653E+02 -0.17760361184E+03  0.19786239605E+03  0.78827739674E+02 0.  0.
         -6    2    1    2    0  502  0.77001687886E+02  0.34656216936E+02  0.49413208192E+02  0.19857488339E+03  0.17280047992E+03 0.  0.
        -24    2    5    5    0    0  0.93719825050E+01 -0.21364535738E+02 -0.21111740740E+02  0.85845294539E+02  0.79871343760E+02 0.  0.
          5    1    3    3  501    0 -0.45679212901E+02 -0.54943524589E+02 -0.13498104100E+02  0.72867483831E+02  0.47000000000E+01 0. -1.
        -13    1    4    4    0    0  0.18728867191E+02  0.10138603044E+02 -0.11748446486E+02  0.24322576607E+02  0.00000000000E+00 0.  1.
         14    1    4    4    0    0 -0.50051342176E+02  0.10148704609E+02 -0.16585516535E+03  0.17353981945E+03  0.00000000000E+00 0. -1.
         -5    1    5    5    0  502  0.67629705381E+02  0.56020752674E+02  0.70524948932E+02  0.11272958885E+03  0.47000000000E+01 0.  1.
         11    1    6    6    0    0  0.35810229433E+01  0.29516766122E+02  0.17058096460E+01  0.29782091837E+02  0.00000000000E+00 0. -1.
        -12    1    6    6    0    0  0.57909595616E+01 -0.50881301860E+02 -0.22817550386E+02  0.56063202702E+02  0.00000000000E+00 0.  1.
</event>
<event>
12    1  0.1623092E-001  0.1837590E+03  0.7818608E-02  0.1164452E+00
         21   -1    0    0  503  502  0.00000000000E+00  0.00000000000E+00  0.24905458446E+02  0.24905458446E+02  0.00000000000E+00 0. -1.
         21   -1    0    0  501  503 -0.00000000000E+00 -0.00000000000E+00 -0.17966562159E+04  0.17966562159E+04  0.00000000000E+00 0. -1.
          6    2    1    2  501    0 -0.55751422519E+02  0.26508201508E+02 -0.13426312054E+04  0.13551479337E+04  0.17307935390E+03 0.  0.
         24    2    3    3    0    0 -0.98710004665E+02 -0.32442128278E+01 -0.10675195431E+04  0.10750780091E+04  0.80253105071E+02 0.  0.
         -6    2    1    2    0  502  0.55751422519E+02 -0.26508201508E+02 -0.42911955209E+03  0.46641374064E+03  0.17200953931E+03 0.  0.
        -24    2    5    5    0    0  0.83082253072E+02 -0.86771926018E+01 -0.16952136160E+03  0.20473028744E+03  0.78734008578E+02 0.  0.
          5    1    3    3  501    0  0.42958582147E+02  0.29752414336E+02 -0.27511166230E+03  0.28006992461E+03  0.47000000000E+01 0. -1.
        -11    1    4    4    0    0 -0.60573395138E+02 -0.82339129400E+01 -0.27888677221E+03  0.28550790749E+03  0.00000000000E+00 0.  1.
         12    1    4    4    0    0 -0.38136609527E+02  0.49897001121E+01 -0.78863277086E+03  0.78957010162E+03  0.00000000000E+00 0. -1.
         -5    1    5    5    0  502 -0.27330830553E+02 -0.17831008906E+02 -0.25959819048E+03  0.26168345320E+03  0.47000000000E+01 0.  1.
         13    1    6    6    0    0  0.89693871809E+02  0.11482435335E+02 -0.11546474206E+03  0.14665927731E+03  0.00000000000E+00 0. -1.
        -14    1    6    6    0    0 -0.66116187377E+01 -0.20159627937E+02 -0.54056619540E+02  0.58071010126E+02  0.00000000000E+00 0.  1.
</event>
<event>
12    1  0.1623092E-001  0.2078261E+03  0.7818608E-02  0.1143605E+00
         21   -1    0    0  501  502  0.00000000000E+00  0.00000000000E+00  0.25630606969E+03  0.25630606969E+03  0.00000000000E+00 0. -1.
         21   -1    0    0  502  503 -0.00000000000E+00 -0.00000000000E+00 -0.18056844786E+03  0.18056844786E+03  0.00000000000E+00 0.  1.
         -6    2    1    2    0  503  0.90178270998E+02  0.70504641848E+02 -0.21498012177E+02  0.20742637212E+03  0.17164064274E+03 0.  0.
        -24    2    3    3    0    0  0.78242589754E+02  0.86512355245E+02 -0.68305588513E+02  0.15632112212E+03  0.78513370441E+02 0.  0.
          6    2    1    2  501    0 -0.90178270998E+02 -0.70504641848E+02  0.97235634002E+02  0.22944814543E+03  0.17346082508E+03 0.  0.
         24    2    5    5    0    0 -0.48311437749E+02  0.33806868914E+01 -0.90162004993E+01  0.93347389135E+02  0.79290725344E+02 0.  0.
          5    1    5    5  501    0 -0.41866833249E+02 -0.73885328740E+02  0.10625183450E+03  0.13610075629E+03  0.47000000000E+01 0. -1.
        -11    1    6    6    0    0 -0.60137083323E+02 -0.10732928573E+02 -0.27736434204E+02  0.67089301149E+02  0.00000000000E+00 0.  1.
         12    1    6    6    0    0  0.11825645574E+02  0.14113615464E+02  0.18720233704E+02  0.26258087986E+02  0.00000000000E+00 0. -1.
         -5    1    3    3    0  503  0.11935681244E+02 -0.16007713397E+02  0.46807576336E+02  0.51105249999E+02  0.47000000000E+01 0.  1.
         11    1    4    4    0    0  0.37002882959E+01  0.41633091054E+02  0.55864326795E+01  0.42168882298E+02  0.00000000000E+00 0. -1.
        -12    1    4    4    0    0  0.74542301458E+02  0.44879264191E+02 -0.73892021193E+02  0.11415223982E+03  0.00000000000E+00 0.  1.
</event>
<event>
12    1  0.1623092E-001  0.1933401E+03  0.7818608E-02  0.1156417E+00
         21   -1    0    0  503  502  0.00000000000E+00  0.00000000000E+00  0.23802867567E+03  0.23802867567E+03  0.00000000000E+00 0.  1.
         21   -1    0    0  501  503 -0.00000000000E+00 -0.00000000000E+00 -0.15596641202E+03  0.15596641202E+03  0.00000000000E+00 0.  1.
          6    2    1    2  501    0 -0.57609369207E+02 -0.60676511757E+02  0.17515310340E+02  0.19413190315E+03  0.17429839708E+03 0.  0.
         24    2    3    3    0    0 -0.24266386190E+02 -0.64132990020E+02  0.73462083342E+02  0.12874204791E+03  0.80473221035E+02 0.  0.
         -6    2    1    2    0  502  0.57609369207E+02  0.60676511757E+02  0.64546953306E+02  0.19986318454E+03  0.16964228498E+03 0.  0.
        -24    2    5    5    0    0 -0.16526996235E+02  0.48718979346E+02 -0.86810501888E+01  0.94869785899E+02  0.79235314672E+02 0.  0.
          5    1    3    3  501    0 -0.33342983017E+02  0.34564782634E+01 -0.55946773002E+02  0.65389855236E+02  0.47000000000E+01 0. -1.
        -13    1    4    4    0    0 -0.53446615477E+02 -0.38257669000E+02  0.37396792147E+02  0.75622152880E+02  0.00000000000E+00 0.  1.
         14    1    4    4    0    0  0.29180229288E+02 -0.25875321020E+02  0.36065291195E+02  0.53119895032E+02  0.00000000000E+00 0. -1.
         -5    1    5    5    0  502  0.74136365442E+02  0.11957532411E+02  0.73228003495E+02  0.10499339864E+03  0.47000000000E+01 0.  1.
         11    1    6    6    0    0 -0.24087009796E+02  0.25937301425E+02  0.31946476302E+02  0.47681285577E+02  0.00000000000E+00 0. -1.
        -12    1    6    6    0    0  0.75600135604E+01  0.22781677921E+02 -0.40627526491E+02  0.47188500323E+02  0.00000000000E+00 0.  1.
</event>
<event>
12    1  0.1623092E-001  0.2021552E+03  0.7818608E-02  0.1148087E+00
         21   -1    0    0  503  502  0.00000000000E+00  0.00000000000E+00  0.99371465922E+03  0.99371465922E+03  0.00000000000E+00 0.  1.
         21   -1    0    0  501  503 -0.00000000000E+00 -0.00000000000E+00 -0.43455252308E+02  0.43455252308E+02  0.00000000000E+00 0.  1.
          6    2    1    2  501    0  0.44916535138E+02  0.96927599891E+02  0.59820321012E+03  0.63120155388E+03  0.17075088952E+03 0.  0.
         24    2    3    3    0    0  0.38909028007E+02  0.36255842441E+02  0.53318130276E+03  0.54194299277E+03  0.81188097837E+02 0.  0.
         -6    2    1    2    0  502 -0.44916535138E+02 -0.96927599891E+02  0.35205619679E+03  0.40596835765E+03  0.17162251298E+03 0.  0.
        -24    2    5    5    0    0 -0.89340074727E+02 -0.44862185149E+02  0.18012014265E+03  0.22085121907E+03  0.79609864760E+02 0.  0.
          5    1    3    3  501    0  0.60075071310E+01  0.60671757450E+02  0.65021907354E+02  0.89258561102E+02  0.47000000000E+01 0. -1.
        -13    1    4    4    0    0  0.31413491674E+02  0.31997102078E+02  0.11156843205E+03  0.12024199363E+03  0.00000000000E+00 0.  1.
         14    1    4    4    0    0  0.74955363332E+01  0.42587403624E+01  0.42161287071E+03  0.42170099915E+03  0.00000000000E+00 0. -1.
         -5    1    5    5    0  502  0.44423539589E+02 -0.52065414742E+02  0.17193605414E+03  0.18511713858E+03  0.47000000000E+01 0.  1.
         13    1    6    6    0    0 -0.57724275049E+02  0.61335848889E+01  0.13108109861E+03  0.14335957312E+03  0.00000000000E+00 0. -1.
        -14    1    6    6    0    0 -0.31615799678E+02 -0.50995770038E+02  0.49039044047E+02  0.77491645950E+02  0.00000000000E+00 0.  1.
</event>
<event>
12    1  0.1623092E-001  0.2045262E+03  0.7818608E-02  0.1146037E+00
         21   -1    0    0  503  502  0.00000000000E+00  0.00000000000E+00  0.17365801252E+03  0.17365801252E+03  0.00000000000E+00 0. -1.
         21   -1    0    0  501  503 -0.00000000000E+00 -0.00000000000E+00 -0.27447809518E+03  0.27447809518E+03  0.00000000000E+00 0. -1.
          6    2    1    2  501    0 -0.10704762652E+03 -0.28367180841E+02 -0.12924880446E+03  0.24194257363E+03  0.17195076094E+03 0.  0.
         24    2    3    3    0    0 -0.61401278991E+02 -0.79622221638E+02 -0.52878868043E+02  0.13915577760E+03  0.80363801018E+02 0.  0.
         -6    2    1    2    0  502  0.10704762652E+03  0.28367180841E+02  0.28428721799E+02  0.20619353407E+03  0.17159163726E+03 0.  0.
        -24    2    5    5    0    0  0.37917703633E+02  0.77708754297E+02  0.21934027885E+02  0.12088346340E+03  0.81580067423E+02 0.  0.
          5    1    3    3  501    0 -0.45646347526E+02  0.51255040797E+02 -0.76369936420E+02  0.10278679603E+03  0.47000000000E+01 0. -1.
        -13    1    4    4    0    0  0.13607699592E+01  0.14828556867E+02 -0.99050593533E+01  0.17884294631E+02  0.00000000000E+00 0.  1.
         14    1    4    4    0    0 -0.62762048950E+02 -0.94450778505E+02 -0.42973808689E+02  0.12127148297E+03  0.00000000000E+00 0. -1.
         -5    1    5    5    0  502  0.69129922884E+02 -0.49341573456E+02  0.64946939140E+01  0.85310070672E+02  0.47000000000E+01 0.  1.
         11    1    6    6    0    0  0.38295546936E+02  0.10065729563E+02  0.33977009780E+02  0.52175712936E+02  0.00000000000E+00 0. -1.
        -12    1    6    6    0    0 -0.37784330287E+00  0.67643024734E+02 -0.12042981895E+02  0.68707750463E+02  0.00000000000E+00 0.  1.
</event>
<event>
12    1  0.1623092E-001  0.2159909E+03  0.7818608E-02  0.1137408E+00
         21   -1    0    0  503  502  0.00000000000E+00  0.00000000000E+00  0.44067713802E+03  0.44067713802E+03  0.00000000000E+00 0.  1.
         21   -1    0    0  501  503 -0.00000000000E+00 -0.00000000000E+00 -0.19278724405E+03  0.19278724405E+03  0.00000000000E+00 0.  1.
          6    2    1    2  501    0  0.10614348182E+03 -0.74775632367E+02 -0.90688807999E+02  0.23185810228E+03  0.16933955760E+03 0.  0.
         24    2    3    3    0    0  0.14077359042E+02 -0.57612113399E+02 -0.96725506144E+02  0.13789380549E+03  0.78368044542E+02 0.  0.
         -6    2    1    2    0  502 -0.10614348182E+03  0.74775632367E+02  0.33857870197E+03  0.40160627978E+03  0.17261005940E+03 0.  0.
        -24    2    5    5    0    0 -0.42145330099E+02 -0.18192389443E+02  0.11526902176E+03  0.15135017141E+03  0.86676035474E+02 0.  0.
          5    1    3    3  501    0  0.92066122780E+02 -0.17163518967E+02  0.60366981451E+01  0.93964296792E+02  0.47000000000E+01 0. -1.
        -13    1    4    4    0    0  0.35669904686E+02 -0.42761332777E+02 -0.24085634483E+02  0.60671174949E+02  0.00000000000E+00 0.  1.
         14    1    4    4    0    0 -0.21592545644E+02 -0.14850780622E+02 -0.72639871662E+02  0.77222630540E+02  0.00000000000E+00 0. -1.
         -5    1    5    5    0  502 -0.63998151723E+02  0.92968021810E+02  0.22330968021E+03  0.25025610837E+03  0.47000000000E+01 0.  1.
         13    1    6    6    0    0 -0.56337917981E+02 -0.21025496112E+02  0.12152066779E+03  0.13558504781E+03  0.00000000000E+00 0. -1.
        -14    1    6    6    0    0  0.14192587882E+02  0.28331066686E+01 -0.62516460275E+01  0.15765123603E+02  0.00000000000E+00 0.  1.
</event>
<event>
12    1  0.1623092E-001  0.2327222E+03  0.7818608E-02  0.1124910E+00
         21   -1    0    0  501  502  0.00000000000E+00  0.00000000000E+00  0.14177131482E+04  0.14177131482E+04  0.00000000000E+00 0.  1.
         21   -1    0    0  502  503 -0.00000000000E+00 -0.00000000000E+00 -0.61468656509E+02  0.61468656509E+02  0.00000000000E+00 0.  1.
         -6    2    1    2    0  503  0.49644608308E+02 -0.14783638037E+03  0.22062355326E+03  0.31996027471E+03  0.17140490845E+03 0.  0.
        -24    2    3    3    0    0  0.65718809399E+02 -0.40361816302E+02  0.15851056222E+03  0.19470343650E+03  0.82678846894E+02 0.  0.
          6    2    1    2  501    0 -0.49644608308E+02  0.14783638037E+03  0.11356209384E+04  0.11592215300E+04  0.17274101228E+03 0.  0.
         24    2    5    5    0    0 -0.14694769697E+02  0.14963918769E+03  0.63328265328E+03  0.65564374648E+03  0.78828805633E+02 0.  0.
          5    1    5    5  501    0 -0.34949838611E+02 -0.18028073228E+01  0.50233828515E+03  0.50357778352E+03  0.47000000000E+01 0. -1.
        -13    1    6    6    0    0  0.17163416071E+02  0.17822878620E+02  0.20285336122E+03  0.20435685458E+03  0.00000000000E+00 0.  1.
         14    1    6    6    0    0 -0.31858185768E+02  0.13181630907E+03  0.43042929206E+03  0.45128689190E+03  0.00000000000E+00 0. -1.
         -5    1    3    3    0  503 -0.16074201091E+02 -0.10747456407E+03  0.62112991036E+02  0.12525683821E+03  0.47000000000E+01 0.  1.
         11    1    4    4    0    0 -0.72802976561E+01 -0.10098150672E+02  0.87750638320E+02  0.88629283572E+02  0.00000000000E+00 0. -1.
        -12    1    4    4    0    0  0.72999107055E+02 -0.30263665630E+02  0.70759923905E+02  0.10607415293E+03  0.00000000000E+00 0.  1.
</event>
<event>
12    1  0.1623092E-001  0.1943630E+03  0.7818608E-02  0.1154738E+00
         21   -1    0    0  503  502  0.00000000000E+00  0.00000000000E+00  0.14093538994E+03  0.14093538994E+03  0.00000000000E+00 0. -1.
         21   -1    0    0  501  503 -0.00000000000E+00 -0.00000000000E+00 -0.47647797434E+03  0.47647797434E+03  0.00000000000E+00 0. -1.
          6    2    1    2  501    0  0.39679070276E+02  0.82233623132E+02 -0.37225182265E+03  0.41961411904E+03  0.17078580749E+03 0.  0.
         24    2    3    3    0    0 -0.39356462434E+02  0.99275167934E+01 -0.17021390806E+03  0.19088677617E+03  0.76272538267E+02 0.  0.
         -6    2    1    2    0  502 -0.39679070276E+02 -0.82233623132E+02  0.36709238255E+02  0.19779924524E+03  0.17158139717E+03 0.  0.
        -24    2    5    5    0    0  0.20417338437E+02 -0.10013152300E+03  0.36669237292E+02  0.13491836770E+03  0.80094590163E+02 0.  0.
          5    1    3    3  501    0  0.79035532710E+02  0.72306106339E+02 -0.20203791459E+03  0.22872734287E+03  0.47000000000E+01 0. -1.
        -11    1    4    4    0    0  0.11232777638E+01 -0.10547998918E+02 -0.12949491980E+03  0.12992865846E+03  0.00000000000E+00 0.  1.
         12    1    4    4    0    0 -0.40479740197E+02  0.20475515711E+02 -0.40718988261E+02  0.60958117713E+02  0.00000000000E+00 0. -1.
         -5    1    5    5    0  502 -0.60096408713E+02  0.17897899867E+02  0.40000963110E-01  0.62880877538E+02  0.47000000000E+01 0.  1.
         13    1    6    6    0    0 -0.12537893700E+02 -0.80801554116E+02  0.48316231508E+02  0.94976566337E+02  0.00000000000E+00 0. -1.
        -14    1    6    6    0    0  0.32955232136E+02 -0.19329968883E+02 -0.11646994216E+02  0.39941801367E+02  0.00000000000E+00 0.  1.
</event>
<event>
12    1  0.1623092E-001  0.1847451E+03  0.7818608E-02  0.1163597E+00
         21   -1    0    0  503  502  0.00000000000E+00  0.00000000000E+00  0.42687920804E+02  0.42687920804E+02  0.00000000000E+00 0.  1.
         21   -1    0    0  501  503 -0.00000000000E+00 -0.00000000000E+00 -0.80308550364E+03  0.80308550364E+03  0.00000000000E+00 0.  1.
          6    2    1    2  501    0  0.46601564976E+02 -0.46478595256E+02 -0.33622643937E+03  0.38363912866E+03  0.17262328010E+03 0.  0.
         24    2    3    3    0    0  0.53057550622E+02 -0.89424810429E+02 -0.17415776266E+03  0.21578680333E+03  0.73628240498E+02 0.  0.
         -6    2    1    2    0  502 -0.46601564976E+02  0.46478595256E+02 -0.42417114346E+03  0.46213429578E+03  0.17121618706E+03 0.  0.
        -24    2    5    5    0    0 -0.79736794148E+01  0.16082468595E+02 -0.39787014646E+03  0.40618905021E+03  0.79791388641E+02 0.  0.
          5    1    3    3  501    0 -0.64559856460E+01  0.42946215173E+02 -0.16206867671E+03  0.16785232533E+03  0.47000000000E+01 0. -1.
        -11    1    4    4    0    0  0.53979706826E+01 -0.59825932793E+02 -0.13383301853E+03  0.14669545722E+03  0.00000000000E+00 0.  1.
         12    1    4    4    0    0  0.47659579939E+02 -0.29598877636E+02 -0.40324744127E+02  0.69091346102E+02  0.00000000000E+00 0. -1.
         -5    1    5    5    0  502 -0.38627885561E+02  0.30396126661E+02 -0.26300997001E+02  0.55945245573E+02  0.47000000000E+01 0.  1.
         13    1    6    6    0    0  0.35616016062E+02  0.13603449456E+02 -0.18545384426E+03  0.18933220220E+03  0.00000000000E+00 0. -1.
        -14    1    6    6    0    0 -0.43589695477E+02  0.24790191384E+01 -0.21241630220E+03  0.21685684801E+03  0.00000000000E+00 0.  1.
</event>
<event>
12    1  0.1623092E-001  0.2158175E+03  0.7818608E-02  0.1137668E+00
         21   -1    0    0  501  502  0.00000000000E+00  0.00000000000E+00  0.50489075327E+03  0.50489075327E+03  0.00000000000E+00 0.  1.
         21   -1    0    0  502  503 -0.00000000000E+00 -0.00000000000E+00 -0.10633199770E+03  0.10633199770E+03  0.00000000000E+00 0.  1.
         -6    2    1    2    0  503 -0.10579559603E+03 -0.66959470604E+02  0.84020512147E+02  0.23159581435E+03  0.17578650665E+03 0.  0.
        -24    2    3    3    0    0 -0.61919945515E+02 -0.43208238088E+02  0.12535076715E+03  0.16663833801E+03  0.79715051133E+02 0.  0.
          6    2    1    2  501    0  0.10579559603E+03  0.66959470604E+02  0.31453824343E+03  0.37962693662E+03  0.17177318063E+03 0.  0.
         24    2    5    5    0    0  0.12763960028E+03  0.95957267083E+02  0.25255583895E+03  0.30764123535E+03  0.73205281473E+02 0.  0.
          5    1    5    5  501    0 -0.21844004246E+02 -0.28997796478E+02  0.61982404481E+02  0.71985701270E+02  0.47000000000E+01 0. -1.
        -13    1    6    6    0    0  0.69179819497E+02  0.14718768491E+02  0.70359424075E+02  0.99764413133E+02  0.00000000000E+00 0.  1.
         14    1    6    6    0    0  0.58459780780E+02  0.81238498591E+02  0.18219641487E+03  0.20787682222E+03  0.00000000000E+00 0. -1.
         -5    1    3    3    0  503 -0.43875650516E+02 -0.23751232516E+02 -0.41330255004E+02  0.64957476344E+02  0.47000000000E+01 0.  1.
         13    1    4    4    0    0 -0.12497803107E+02 -0.49579127005E+02  0.96102891634E+02  0.10885793815E+03  0.00000000000E+00 0. -1.
        -14    1    4    4    0    0 -0.49422142408E+02  0.63708889167E+01  0.29247875517E+02  0.57780399861E+02  0.00000000000E+00 0.  1.
</event>
<event>
12    1  0.1623092E-001  0.1793119E+03  0.7818608E-02  0.1168859E+00
         21   -1    0    0  501  502  0.00000000000E+00  0.00000000000E+00  0.25094648712E+03  0.25094648712E+03  0.00000000000E+00 0. -1.
         21   -1    0    0  502  503 -0.00000000000E+00 -0.00000000000E+00 -0.12795946397E+03  0.12795946397E+03  0.00000000000E+00 0.  1.
         -6    2    1    2    0  503  0.49651920276E+02  0.69965488884E+01  0.77694804142E+02  0.19396236354E+03  0.17050117593E+03 0.  0.
        -24    2    3    3    0    0  0.49467101128E+02  0.48033475057E+02  0.10302760676E+03  0.14550718470E+03  0.76180340153E+02 0.  0.
          6    2    1    2  501    0 -0.49651920276E+02 -0.69965488884E+01  0.45292219010E+02  0.18494358755E+03  0.17215830097E+03 0.  0.
         24    2    5    5    0    0 -0.64485246805E+02  0.53791978202E+02  0.30056329056E+02  0.12037196109E+03  0.80833793216E+02 0.  0.
          5    1    5    5  501    0  0.14833326529E+02 -0.60788527090E+02  0.15235889954E+02  0.64571626466E+02  0.47000000000E+01 0. -1.
        -13    1    6    6    0    0 -0.76130033651E+02  0.63090356788E+02  0.16529970455E+02  0.10024677085E+03  0.00000000000E+00 0.  1.
         14    1    6    6    0    0  0.11644786846E+02 -0.92983785857E+01  0.13526358601E+02  0.20125190235E+02  0.00000000000E+00 0. -1.
         -5    1    3    3    0  503  0.18481914804E+00 -0.41036926168E+02 -0.25332802616E+02  0.48455178834E+02  0.47000000000E+01 0.  1.
         11    1    4    4    0    0  0.48488723508E+02 -0.55045405266E+01  0.55576319925E+02  0.73960689628E+02  0.00000000000E+00 0. -1.
        -12    1    4    4    0    0  0.97837761935E+00  0.53538015583E+02  0.47451286833E+02  0.71546495075E+02  0.00000000000E+00 0.  1.
</event>
<event>
12    1  0.1623092E-001  0.1938201E+03  0.7818608E-02  0.1155623E+00
         21   -1    0    0  503  502  0.00000000000E+00  0.00000000000E+00  0.86062132509E+02  0.86062132509E+02  0.00000000000E+00 0. -1.
         21   -1    0    0  501  503 -0.00000000000E+00 -0.00000000000E+00 -0.68074839159E+03  0.68074839159E+03  0.00000000000E+00 0. -1.
          6    2    1    2  501    0  0.78500699629E+02 -0.36511637630E+02 -0.53090508671E+03  0.56517825517E+03  0.17340931202E+03 0.  0.
         24    2    3    3    0    0  0.87056852781E+02 -0.79255194068E+00 -0.50794387944E+03  0.52160799147E+03  0.80550532907E+02 0.  0.
         -6    2    1    2    0  502 -0.78500699629E+02  0.36511637630E+02 -0.63781172371E+02  0.20163226893E+03  0.17056398917E+03 0.  0.
        -24    2    5    5    0    0 -0.11972841156E+03  0.34396620204E+02 -0.53501564484E+02  0.15883089199E+03  0.82745482236E+02 0.  0.
          5    1    3    3  501    0 -0.85561531519E+01 -0.35719085690E+02 -0.22961207270E+02  0.43570263696E+02  0.47000000000E+01 0. -1.
        -11    1    4    4    0    0  0.17240023933E+02  0.19216213404E+02 -0.37116030004E+02  0.45211513645E+02  0.00000000000E+00 0.  1.
         12    1    4    4    0    0  0.69816828848E+02 -0.20008765345E+02 -0.47082784944E+03  0.47639647783E+03  0.00000000000E+00 0. -1.
         -5    1    5    5    0  502  0.41227711933E+02  0.21150174265E+01 -0.10279607888E+02  0.42801376944E+02  0.47000000000E+01 0.  1.
         11    1    6    6    0    0 -0.78898989833E+02  0.20089279326E+02  0.99619600958E+01  0.82023596541E+02  0.00000000000E+00 0. -1.
        -12    1    6    6    0    0 -0.40829421730E+02  0.14307340878E+02 -0.63463524579E+02  0.76807295447E+02  0.00000000000E+00 0.  1.
</event>
<event>
12    1  0.1623092E-001  0.1709031E+03  0.7818608E-02  0.1177919E+00
         21   -1    0    0  503  502  0.00000000000E+00  0.00000000000E+00  0.20187743687E+03  0.20187743687E+03  0.00000000000E+00 0. -1.
         21   -1    0    0  501  503 -0.00000000000E+00 -0.00000000000E+00 -0.18505622857E+03  0.18505622857E+03  0.00000000000E+00 0. -1.
          6    2    1    2  501    0 -0.15676978784E+02 -0.78291768169E+01  0.10225879453E+03  0.19586447709E+03  0.16612937325E+03 0.  0.
         24    2    3    3    0    0 -0.11407848852E+02  0.33041575782E+02  0.12221864137E+03  0.14993921852E+03  0.79514075532E+02 0.  0.
         -6    2    1    2    0  502  0.15676978784E+02  0.78291768169E+01 -0.85437586229E+02  0.19106918835E+03  0.17000232328E+03 0.  0.
        -24    2    5    5    0    0 -0.35817373860E+02  0.33131498713E+02 -0.94440378751E+02  0.13280242148E+03  0.79604758249E+02 0.  0.
          5    1    3    3  501    0 -0.42691299315E+01 -0.40870752599E+02 -0.19959846844E+02  0.45925258567E+02  0.47000000000E+01 0. -1.
        -13    1    4    4    0    0 -0.42398040482E+02  0.20167236287E+02  0.97644643012E+02  0.10834568549E+03  0.00000000000E+00 0.  1.
         14    1    4    4    0    0  0.30990191629E+02  0.12874339495E+02  0.24573998358E+02  0.41593533030E+02  0.00000000000E+00 0. -1.
         -5    1    5    5    0  502  0.51494352644E+02 -0.25302321896E+02  0.90027925222E+01  0.58266766864E+02  0.47000000000E+01 0.  1.
         13    1    6    6    0    0  0.16573664690E+02  0.32368855609E+02 -0.59804188418E+02  0.69992643377E+02  0.00000000000E+00 0. -1.
        -14    1    6    6    0    0 -0.52391038550E+02  0.76264310421E+00 -0.34636190333E+02  0.62809778105E+02  0.00000000000E+00 0.  1.
</event>
<event>
12    1  0.1623092E-001  0.2605740E+03  0.7818608E-02  0.1106890E+00
         21   -1    0    0  501  502  0.00000000000E+00  0.00000000000E+00  0.20042190185E+04  0.20042190185E+04  0.00000000000E+00 0. -1.
         21   -1    0    0  502  503 -0.00000000000E+00 -0.00000000000E+00 -0.34268617062E+02  0.34268617062E+02  0.00000000000E+00 0.  1.
         -6    2    1    2    0  503 -0.15132349941E+03 -0.12292995850E+03  0.86452904601E+03  0.90276971179E+03  0.17196541793E+03 0.  0.
        -24    2    3    3    0    0 -0.80648003354E+01 -0.64653204707E+02  0.36429372100E+03  0.37915085682E+03  0.82464411627E+02 0.  0.
          6    2    1    2  501    0  0.15132349941E+03  0.12292995850E+03  0.11054213554E+04  0.11357179237E+04  0.17288219444E+03 0.  0.
         24    2    5    5    0    0  0.15891901557E+03  0.14186556403E+03  0.95086338318E+03  0.97974835684E+03  0.10190474714E+03 0.  0.
          5    1    5    5  501    0 -0.75955161511E+01 -0.18935605527E+02  0.15455797221E+03  0.15596956689E+03  0.47000000000E+01 0. -1.
        -11    1    6    6    0    0  0.11354635573E+03  0.76964452982E+02  0.39210750538E+03  0.41540895236E+03  0.00000000000E+00 0.  1.
         12    1    6    6    0    0  0.45372659834E+02  0.64901111049E+02  0.55875587779E+03  0.56433940448E+03  0.00000000000E+00 0. -1.
         -5    1    3    3    0  503 -0.14325869908E+03 -0.58276753797E+02  0.50023532501E+03  0.52361885497E+03  0.47000000000E+01 0.  1.
         11    1    4    4    0    0  0.20382444231E+02  0.34594364851E+01  0.27734154542E+02  0.34591835189E+02  0.00000000000E+00 0. -1.
        -12    1    4    4    0    0 -0.28447244566E+02 -0.68112641192E+02  0.33655956646E+03  0.34455902163E+03  0.00000000000E+00 0.  1.
</event>
<event>
12    1  0.1623092E-001  0.1908137E+03  0.7818608E-02  0.1157960E+00
         21   -1    0    0  501  502  0.00000000000E+00  0.00000000000E+00  0.14233700696E+03  0.14233700696E+03  0.00000000000E+00 0.  1.
         21   -1    0    0  502  503 -0.00000000000E+00 -0.00000000000E+00 -0.27506238446E+03  0.27506238446E+03  0.00000000000E+00 0.  1.
         -6    2    1    2    0  503  0.24959073227E+02 -0.77179813909E+02 -0.93682034714E+01  0.19104356538E+03  0.17271421952E+03 0.  0.
        -24    2    3    3    0    0  0.27176285115E+02 -0.11629325430E+03 -0.32139481817E+02  0.14548702507E+03  0.76621515930E+02 0.  0.
          6    2    1    2  501    0 -0.24959073227E+02  0.77179813909E+02 -0.12335717403E+03  0.22635582604E+03  0.17158172567E+03 0.  0.
         24    2    5    5    0    0 -0.33492438908E+02  0.40265060208E+01 -0.56090168786E+01  0.87392005932E+02  0.80423537697E+02 0.  0.
          5    1    5    5  501    0  0.85333656811E+01  0.73153307888E+02 -0.11774815715E+03  0.13896382010E+03  0.47000000000E+01 0. -1.
        -11    1    6    6    0    0 -0.11065824910E+01 -0.31747912849E+02 -0.19376644920E+02  0.37210332751E+02  0.00000000000E+00 0.  1.
         12    1    6    6    0    0 -0.32385856417E+02  0.35774418870E+02  0.13767628041E+02  0.50181673181E+02  0.00000000000E+00 0. -1.
         -5    1    3    3    0  503 -0.22172118880E+01  0.39113440391E+02  0.22771278346E+02  0.45556540313E+02  0.47000000000E+01 0.  1.
         11    1    4    4    0    0  0.10748135982E+01 -0.39680548044E+02 -0.48746036557E+02  0.62863957856E+02  0.00000000000E+00 0. -1.
        -12    1    4    4    0    0  0.26101471516E+02 -0.76612706256E+02  0.16606554739E+02  0.82623067212E+02  0.00000000000E+00 0.  1.
</event>
<event>
12    1  0.1623092E-001  0.2111107E+03  0.7818608E-02  0.1140765E+00
         21   -1    0    0  503  502  0.00000000000E+00  0.00000000000E+00  0.13500635249E+03  0.13500635249E+03  0.00000000000E+00 0. -1.
         21   -1    0    0  501  503 -0.00000000000E+00 -0.00000000000E+00 -0.38981455011E+03  0.38981455011E+03  0.00000000000E+00 0.  1.
          6    2    1    2  501    0  0.31718034746E+02  0.11804768833E+03 -0.23070430680E+03  0.31271741925E+03  0.17212326014E+03 0.  0.
         24    2    3    3    0    0  0.14341156167E+01  0.59593201024E+02 -0.22552292279E+03  0.24651334396E+03  0.79717211159E+02 0.  0.
         -6    2    1    2    0  502 -0.31718034746E+02 -0.11804768833E+03 -0.24103890823E+02  0.21210348335E+03  0.17165546786E+03 0.  0.
        -24    2    5    5    0    0  0.33151765904E+01 -0.23023844001E+02 -0.23101747328E+02  0.11071338926E+03  0.10574817276E+03 0.  0.
          5    1    3    3  501    0  0.30283919130E+02  0.58454487310E+02 -0.51813840110E+01  0.66204075289E+02  0.47000000000E+01 0. -1.
        -13    1    4    4    0    0 -0.56284743419E+00  0.16938437632E+02 -0.19059367575E+03  0.19134569946E+03  0.00000000000E+00 0.  1.
         14    1    4    4    0    0  0.19969630509E+01  0.42654763392E+02 -0.34929247033E+02  0.55167644501E+02  0.00000000000E+00 0. -1.
         -5    1    5    5    0  502 -0.35033211337E+02 -0.95023844334E+02 -0.10021434952E+01  0.10139009409E+03  0.47000000000E+01 0.  1.
         11    1    6    6    0    0 -0.36317695938E+02 -0.28014562671E+02  0.21655841566E+02  0.50722443098E+02  0.00000000000E+00 0. -1.
        -12    1    6    6    0    0  0.39632872528E+02  0.49907186706E+01 -0.44757588894E+02  0.59990946161E+02  0.00000000000E+00 0.  1.
</event>
<event>
12    1  0.1623092E-001  0.2484444E+03  0.7818608E-02  0.1114404E+00
         21   -1    0    0  503  502  0.00000000000E+00  0.00000000000E+00  0.91355567534E+02  0.91355567534E+02  0.00000000000E+00 0. -1.
         21   -1    0    0  501  503 -0.00000000000E+00 -0.00000000000E+00 -0.68730255360E+03  0.68730255360E+03  0.00000000000E+00 0.  1.
          6    2    1    2  501    0 -0.33057707095E+02 -0.17545310380E+03 -0.24285907687E+03  0.34692244037E+03  0.17174994842E+03 0.  0.
         24    2    3    3    0    0 -0.43382047635E+01 -0.19284406634E+03 -0.18577976657E+03  0.28053424069E+03  0.83532536113E+02 0.  0.
         -6    2    1    2    0  502  0.33057707095E+02  0.17545310380E+03 -0.35308790919E+03  0.43173568076E+03  0.17276580332E+03 0.  0.
        -24    2    5    5    0    0  0.59134254606E+02  0.40753379292E+02 -0.80603508878E+02  0.12662284831E+03  0.66171913073E+02 0.  0.
          5    1    3    3  501    0 -0.28719502332E+02  0.17390962540E+02 -0.57079310299E+02  0.66388199678E+02  0.47000000000E+01 0. -1.
        -11    1    4    4    0    0  0.17936903476E+02 -0.18151937279E+03 -0.14637051483E+03  0.23387035472E+03  0.00000000000E+00 0.  1.
         12    1    4    4    0    0 -0.22275108239E+02 -0.11324693546E+02 -0.39409251740E+02  0.46663885969E+02  0.00000000000E+00 0. -1.
         -5    1    5    5    0  502 -0.26076547511E+02  0.13469972451E+03 -0.27248440031E+03  0.30511283245E+03  0.47000000000E+01 0.  1.
         11    1    6    6    0    0  0.50949787192E+01  0.12009160593E+02  0.10583019747E+02  0.16798186011E+02  0.00000000000E+00 0. -1.
        -12    1    6    6    0    0  0.54039275887E+02  0.28744218699E+02 -0.91186528625E+02  0.10982466230E+03  0.00000000000E+00 0.  1.
</event>
<event>
12    1  0.1623092E-001  0.1832494E+03  0.7818608E-02  0.1165877E+00
         21   -1    0    0  503  502  0.00000000000E+00  0.00000000000E+00  0.65503299079E+03  0.65503299079E+03  0.00000000000E+00 0. -1.
         21   -1    0    0  501  503 -0.00000000000E+00 -0.00000000000E+00 -0.19285093710E+03  0.19285093710E+03  0.00000000000E+00 0. -1.
          6    2    1    2  501    0 -0.36549244649E+02  0.45255856057E+02 -0.13308782629E+03  0.22647890476E+03  0.17377107068E+03 0.  0.
         24    2    3    3    0    0 -0.53706682657E+02  0.30452275153E+02 -0.12465755397E+02  0.10365668498E+03  0.82325964671E+02 0.  0.
         -6    2    1    2    0  502  0.36549244649E+02 -0.45255856057E+02  0.59526987998E+03  0.62140502313E+03  0.16856462551E+03 0.  0.
        -24    2    5    5    0    0  0.59291246903E+02 -0.80178338505E+02  0.35978473607E+03  0.38221446845E+03  0.81846353986E+02 0.  0.
          5    1    3    3  501    0  0.17157438008E+02  0.14803580904E+02 -0.12062207089E+03  0.12282221978E+03  0.47000000000E+01 0. -1.
        -13    1    4    4    0    0  0.19483907781E+02  0.10518605827E+02 -0.16621468449E+02  0.27686403601E+02  0.00000000000E+00 0.  1.
         14    1    4    4    0    0 -0.73190590438E+02  0.19933669326E+02  0.41557130520E+01  0.75970281377E+02  0.00000000000E+00 0. -1.
         -5    1    5    5    0  502 -0.22742002254E+02  0.34922482448E+02  0.23548514391E+03  0.23919055468E+03  0.47000000000E+01 0.  1.
         13    1    6    6    0    0  0.26578439168E+02  0.12225545763E+02  0.11166223847E+03  0.11543107423E+03  0.00000000000E+00 0. -1.
        -14    1    6    6    0    0  0.32712807735E+02 -0.92403884268E+02  0.24812249760E+03  0.26678339423E+03  0.00000000000E+00 0.  1.
</event>
<event>
12    1  0.1623092E-001  0.2179018E+03  0.7818608E-02  0.1137469E+00
         21   -1    0    0  503  502  0.00000000000E+00  0.00000000000E+00  0.33078791246E+03  0.33078791246E+03  0.00000000000E+00 0.  1.
         21   -1    0    0  501  503 -0.00000000000E+00 -0.00000000000E+00 -0.14138348453E+03  0.14138348453E+03  0.00000000000E+00 0.  1.
          6    2    1    2  501    0 -0.93343246538E+02  0.87704862910E+02  0.54354208979E+02  0.22457870567E+03  0.17628417499E+03 0.  0.
         24    2    3    3    0    0  0.21504136860E+02  0.39395463802E+02  0.38248622972E+02  0.98859974300E+02  0.79346750967E+02 0.  0.
         -6    2    1    2    0  502  0.93343246538E+02 -0.87704862910E+02  0.13505021896E+03  0.24759269133E+03  0.16327423099E+03 0.  0.
        -24    2    5    5    0    0  0.87663885468E+02 -0.15518898231E+02  0.38219851553E+02  0.12659153972E+03  0.81479248026E+02 0.  0.
          5    1    3    3  501    0 -0.11484738340E+03  0.48309399107E+02  0.16105586006E+02  0.12571873137E+03  0.47000000000E+01 0. -1.
        -13    1    4    4    0    0 -0.24164035470E+02  0.23310112385E+02 -0.49923489998E+01  0.33943858033E+02  0.00000000000E+00 0.  1.
         14    1    4    4    0    0  0.45668172330E+02  0.16085351417E+02  0.43240971972E+02  0.64916116268E+02  0.00000000000E+00 0. -1.
         -5    1    5    5    0  502  0.56793610705E+01 -0.72185964678E+02  0.96830367403E+02  0.12100115161E+03  0.47000000000E+01 0.  1.
         11    1    6    6    0    0  0.53082062118E+02  0.31837613272E+02  0.22749917762E+02  0.65946172715E+02  0.00000000000E+00 0. -1.
        -12    1    6    6    0    0  0.34581823350E+02 -0.47356511503E+02  0.15469933791E+02  0.60645367007E+02  0.00000000000E+00 0.  1.
</event>
<event>
12    1  0.1623092E-001  0.1866321E+03  0.7818608E-02  0.1162350E+00
         21   -1    0    0  501  502  0.00000000000E+00  0.00000000000E+00  0.95533414073E+02  0.95533414073E+02  0.00000000000E+00 0.  1.
         21   -1    0    0  502  503 -0.00000000000E+00 -0.00000000000E+00 -0.36967828348E+03  0.36967828348E+03  0.00000000000E+00 0.  1.
         -6    2    1    2    0  503  0.69368407761E+01 -0.69588575615E+02 -0.18002034491E+03  0.25930458015E+03  0.17303424832E+03 0.  0.
        -24    2    3    3    0    0  0.52825060974E+02 -0.14402897959E+02 -0.15592757848E+03  0.18345117439E+03  0.79642910033E+02 0.  0.
          6    2    1    2  501    0 -0.69368407761E+01  0.69588575615E+02 -0.94124524499E+02  0.20590711740E+03  0.16925609374E+03 0.  0.
         24    2    5    5    0    0 -0.68651832672E+02  0.47515316697E+02 -0.46824376962E+02  0.12494192154E+03  0.80294346189E+02 0.  0.
          5    1    5    5  501    0  0.61714991895E+02  0.22073258917E+02 -0.47300147537E+02  0.80965195862E+02  0.47000000000E+01 0. -1.
        -11    1    6    6    0    0 -0.43727867286E+02  0.38464869247E+02  0.12852321273E+02  0.59639372110E+02  0.00000000000E+00 0.  1.
         12    1    6    6    0    0 -0.24923965386E+02  0.90504474502E+01 -0.59676698235E+02  0.65302549429E+02  0.00000000000E+00 0. -1.
         -5    1    3    3    0  503 -0.45888220198E+02 -0.55185677656E+02 -0.24092766424E+02  0.75853405759E+02  0.47000000000E+01 0.  1.
         11    1    4    4    0    0  0.48695249041E+02  0.25219905711E+02 -0.71604705176E+02  0.90191489214E+02  0.00000000000E+00 0. -1.
        -12    1    4    4    0    0  0.41298119330E+01 -0.39622803670E+02 -0.84322873307E+02  0.93259685181E+02  0.00000000000E+00 0.  1.
</event>
<event>
12    1  0.1623092E-001  0.1769394E+03  0.7818608E-02  0.1170865E+00
         21   -1    0    0  503  502  0.00000000000E+00  0.00000000000E+00  0.49235811286E+03  0.49235811286E+03  0.00000000000E+00 0.  1.
         21   -1    0    0  501  503 -0.00000000000E+00 -0.00000000000E+00 -0.75980474199E+02  0.75980474199E+02  0.00000000000E+00 0.  1.
          6    2    1    2  501    0  0.11090822683E+02  0.26210047550E+02  0.32353399649E+03  0.36875710238E+03  0.17463556549E+03 0.  0.
         24    2    3    3    0    0  0.21149020861E+02  0.66907718122E+02  0.30475912955E+03  0.32258293895E+03  0.79105635865E+02 0.  0.
         -6    2    1    2    0  502 -0.11090822683E+02 -0.26210047550E+02  0.92843642169E+02  0.19958148467E+03  0.17436414251E+03 0.  0.
        -24    2    5    5    0    0 -0.65814110008E+02 -0.83599664202E+01  0.80545118531E+02  0.14053398468E+03  0.94132346278E+02 0.  0.
          5    1    3    3  501    0 -0.10058198178E+02 -0.40697670572E+02  0.18774866937E+02  0.46174163436E+02  0.47000000000E+01 0. -1.
        -13    1    4    4    0    0  0.21132570188E+00 -0.10442517929E+02  0.12895157664E+03  0.12937387664E+03  0.00000000000E+00 0.  1.
         14    1    4    4    0    0  0.20937695159E+02  0.77350236050E+02  0.17580755292E+03  0.19320906231E+03  0.00000000000E+00 0. -1.
         -5    1    5    5    0  502  0.54723287326E+02 -0.17850081130E+02  0.12298523637E+02  0.59047499996E+02  0.47000000000E+01 0.  1.
         13    1    6    6    0    0  0.47643999434E+01 -0.37668420318E+02  0.34569386154E+02  0.51348338387E+02  0.00000000000E+00 0. -1.
        -14    1    6    6    0    0 -0.70578509952E+02  0.29308453898E+02  0.45975732377E+02  0.89185646292E+02  0.00000000000E+00 0.  1.
</event>
<event>
12    1  0.1623092E-001  0.1900036E+03  0.7818608E-02  0.1158468E+00
         21   -1    0    0  503  502  0.00000000000E+00  0.00000000000E+00  0.52898942426E+03  0.52898942426E+03  0.00000000000E+00 0.  1.
         21   -1    0    0  501  503 -0.00000000000E+00 -0.00000000000E+00 -0.51655772919E+03  0.51655772919E+03  0.00000000000E+00 0.  1.
          6    2    1    2  501    0 -0.57885549717E+02  0.55849458009E+02 -0.48080941822E+03  0.51699037373E+03  0.17213788383E+03 0.  0.
         24    2    3    3    0    0 -0.13065315086E+02  0.90678196592E+02 -0.22997047052E+03  0.25976642043E+03  0.78733335235E+02 0.  0.
         -6    2    1    2    0  502  0.57885549717E+02 -0.55849458009E+02  0.49324111329E+03  0.52855677973E+03  0.17209176254E+03 0.  0.
        -24    2    5    5    0    0 -0.27079560165E+02 -0.10323564361E+02  0.31781341824E+03  0.32833529467E+03  0.77193382827E+02 0.  0.
          5    1    3    3  501    0 -0.44820234631E+02 -0.34828738584E+02 -0.25083894771E+03  0.25722395330E+03  0.47000000000E+01 0. -1.
        -11    1    4    4    0    0  0.13359397388E+02 -0.12066948225E+01 -0.85360414315E+02  0.86407927547E+02  0.00000000000E+00 0.  1.
         12    1    4    4    0    0 -0.26424712474E+02  0.91884891415E+02 -0.14461005620E+03  0.17335849288E+03  0.00000000000E+00 0. -1.
         -5    1    5    5    0  502  0.84965109882E+02 -0.45525893648E+02  0.17542769505E+03  0.20022148506E+03  0.47000000000E+01 0.  1.
         11    1    6    6    0    0 -0.13456069757E+02 -0.41368563443E+02  0.23245677899E+03  0.23649223656E+03  0.00000000000E+00 0. -1.
        -12    1    6    6    0    0 -0.13623490408E+02  0.31044999082E+02  0.85356639255E+02  0.91843058114E+02  0.00000000000E+00 0.  1.
</event>
<event>
12    1  0.1623092E-001  0.2017818E+03  0.7818608E-02  0.1148248E+00
         21   -1    0    0  501  502  0.00000000000E+00  0.00000000000E+00  0.11156995491E+03  0.11156995491E+03  0.00000000000E+00 0. -1.
         21   -1    0    0  502  503 -0.00000000000E+00 -0.00000000000E+00 -0.71895264505E+03  0.71895264505E+03  0.00000000000E+00 0. -1.
         -6    2    1    2    0  503  0.72837631252E+02 -0.75229969177E+02 -0.59509308018E+03  0.62836692258E+03  0.17246549372E+03 0.  0.
        -24    2    3    3    0    0  0.21266657811E+02 -0.45203985803E+02 -0.53633259466E+03  0.54448599723E+03  0.79477531520E+02 0.  0.
          6    2    1    2  501    0 -0.72837631252E+02  0.75229969177E+02 -0.12289609954E+02  0.20215567737E+03  0.17248482424E+03 0.  0.
         24    2    5    5    0    0 -0.23466276549E+02 -0.19551099945E+02 -0.35363008910E+02  0.92723262300E+02  0.80088384478E+02 0.  0.
          5    1    5    5  501    0 -0.49371354703E+02  0.94781069122E+02  0.23073398956E+02  0.10943241507E+03  0.47000000000E+01 0. -1.
        -13    1    6    6    0    0 -0.23080593614E+02  0.76331329514E+01 -0.54365760885E+02  0.59553458983E+02  0.00000000000E+00 0.  1.
         14    1    6    6    0    0 -0.38568293503E+00 -0.27184232896E+02  0.19002751975E+02  0.33169803317E+02  0.00000000000E+00 0. -1.
         -5    1    3    3    0  503  0.51570973441E+02 -0.30025983374E+02 -0.58760485524E+02  0.83880925354E+02  0.47000000000E+01 0.  1.
         13    1    4    4    0    0  0.10080486159E+02 -0.55060161784E+02 -0.19624832072E+03  0.20407508668E+03  0.00000000000E+00 0. -1.
        -14    1    4    4    0    0  0.11186171652E+02  0.98561759808E+01 -0.34008427394E+03  0.34041091055E+03  0.00000000000E+00 0.  1.
</event>
<event>
12    1  0.1623092E-001  0.2016940E+03  0.7818608E-02  0.1148640E+00
         21   -1    0    0  501  502  0.00000000000E+00  0.00000000000E+00  0.23146098504E+03  0.23146098504E+03  0.00000000000E+00 0.  1.
         21   -1    0    0  502  503 -0.00000000000E+00 -0.00000000000E+00 -0.18210886512E+03  0.18210886512E+03  0.00000000000E+00 0. -1.
         -6    2    1    2    0  503  0.10020225857E+03 -0.21215270669E+01 -0.17910529887E+02  0.20095579742E+03  0.17325545284E+03 0.  0.
        -24    2    3    3    0    0 -0.15758251021E+02 -0.10735707277E+02 -0.67691733325E+01  0.84048724449E+02  0.81576886972E+02 0.  0.
          6    2    1    2  501    0 -0.10020225857E+03  0.21215270669E+01  0.67262649806E+02  0.21261405273E+03  0.17502993418E+03 0.  0.
         24    2    5    5    0    0 -0.53588686717E+02  0.20155274775E+02 -0.30551336350E+02  0.10266994409E+03  0.79559731154E+02 0.  0.
          5    1    5    5  501    0 -0.46613571854E+02 -0.18033747708E+02  0.97813986155E+02  0.10994410864E+03  0.47000000000E+01 0. -1.
        -13    1    6    6    0    0 -0.49746210834E+02 -0.17985854339E+02  0.11734403135E+01  0.52910806182E+02  0.00000000000E+00 0.  1.
         14    1    6    6    0    0 -0.38424758831E+01  0.38141129114E+02 -0.31724776663E+02  0.49759137908E+02  0.00000000000E+00 0. -1.
         -5    1    3    3    0  503  0.11596050959E+03  0.86141802097E+01 -0.11141356555E+02  0.11690707298E+03  0.47000000000E+01 0.  1.
         11    1    4    4    0    0 -0.11040911883E+01  0.34239127357E+02 -0.12357740160E+02  0.36417723726E+02  0.00000000000E+00 0. -1.
        -12    1    4    4    0    0 -0.14654159833E+02 -0.44974834633E+02  0.55885668280E+01  0.47631000723E+02  0.00000000000E+00 0.  1.
</event>
<event>
12    1  0.1623092E-001  0.2588893E+03  0.7818608E-02  0.1108210E+00
         21   -1    0    0  501  502  0.00000000000E+00  0.00000000000E+00  0.75177729804E+02  0.75177729804E+02  0.00000000000E+00 0. -1.
         21   -1    0    0  502  503 -0.00000000000E+00 -0.00000000000E+00 -0.13150087704E+04  0.13150087704E+04  0.00000000000E+00 0.  1.
         -6    2    1    2    0  503 -0.17696499341E+03 -0.74237488927E+02 -0.10206476692E+04  0.10529697656E+04  0.17376952794E+03 0.  0.
        -24    2    3    3    0    0 -0.92684925608E+02 -0.11166827196E+03 -0.61830310850E+03  0.64016541857E+03  0.80328891193E+02 0.  0.
          6    2    1    2  501    0  0.17696499341E+03  0.74237488927E+02 -0.21918337134E+03  0.33721673461E+03  0.16984099086E+03 0.  0.
         24    2    5    5    0    0  0.74891170638E+02 -0.18930613417E+02 -0.14491251980E+03  0.18025301276E+03  0.74326675229E+02 0.  0.
          5    1    5    5  501    0  0.10207382277E+03  0.93168102344E+02 -0.74270851542E+02  0.15696372185E+03  0.47000000000E+01 0. -1.
        -13    1    6    6    0    0 -0.86787463887E+01 -0.15406928160E+02 -0.53503669349E+02  0.56350126069E+02  0.00000000000E+00 0.  1.
         14    1    6    6    0    0  0.83569917027E+02 -0.35236852576E+01 -0.91408850451E+02  0.12390288669E+03  0.00000000000E+00 0. -1.
         -5    1    3    3    0  503 -0.84280067799E+02  0.37430783038E+02 -0.40234456073E+03  0.41280434699E+03  0.47000000000E+01 0.  1.
         11    1    4    4    0    0 -0.17244838058E+02  0.81346752915E+00 -0.18676375666E+02  0.25433308418E+02  0.00000000000E+00 0. -1.
        -12    1    4    4    0    0 -0.75440087550E+02 -0.11248173949E+03 -0.59962673283E+03  0.61473211016E+03  0.00000000000E+00 0.  1.
</event>
<event>
12    1  0.1623092E-001  0.2133012E+03  0.7818608E-02  0.1139101E+00
         21   -1    0    0  503  502  0.00000000000E+00  0.00000000000E+00  0.12956271299E+03  0.12956271299E+03  0.00000000000E+00 0.  1.
         21   -1    0    0  501  503 -0.00000000000E+00 -0.00000000000E+00 -0.47921581358E+03  0.47921581358E+03  0.00000000000E+00 0.  1.
          6    2    1    2  501    0  0.11378709084E+03  0.50517753763E+02 -0.33262376738E+03  0.39479858222E+03  0.17241752930E+03 0.  0.
         24    2    3    3    0    0  0.63006139260E+01  0.31752406618E+02 -0.22918629047E+03  0.24437623480E+03  0.78393082199E+02 0.  0.
         -6    2    1    2    0  502 -0.11378709084E+03 -0.50517753763E+02 -0.17029333211E+02  0.21397994435E+03  0.17319894026E+03 0.  0.
        -24    2    5    5    0    0 -0.11651501841E+02 -0.66818123010E+02 -0.30600020678E+02  0.10955947636E+03  0.80414541819E+02 0.  0.
          5    1    3    3  501    0  0.10748647691E+03  0.18765347146E+02 -0.10343747691E+03  0.15042234742E+03  0.47000000000E+01 0. -1.
        -11    1    4    4    0    0  0.42037604530E+02  0.11907407930E+02 -0.10910849651E+03  0.11753131739E+03  0.00000000000E+00 0.  1.
         12    1    4    4    0    0 -0.35736990604E+02  0.19844998688E+02 -0.12007779396E+03  0.12684491741E+03  0.00000000000E+00 0. -1.
         -5    1    5    5    0  502 -0.10213558900E+03  0.16300369247E+02  0.13570687468E+02  0.10442046799E+03  0.47000000000E+01 0.  1.
         11    1    6    6    0    0  0.31717624048E+02 -0.18661301424E+02  0.23147148480E+01  0.36872886392E+02  0.00000000000E+00 0. -1.
        -12    1    6    6    0    0 -0.43369125889E+02 -0.48156821586E+02 -0.32914735526E+02  0.72686589963E+02  0.00000000000E+00 0.  1.
</event>
<event>
12    1  0.1623092E-001  0.3271327E+03  0.7818608E-02  0.1072487E+00
         21   -1    0    0  503  502  0.00000000000E+00  0.00000000000E+00  0.75764789552E+03  0.75764789552E+03  0.00000000000E+00 0. -1.
         21   -1    0    0  501  503 -0.00000000000E+00 -0.00000000000E+00 -0.14109091880E+03  0.14109091880E+03  0.00000000000E+00 0.  1.
          6    2    1    2  501    0  0.18793846478E+02  0.27759555961E+03  0.32154440647E+03  0.45822980412E+03  0.17079591525E+03 0.  0.
         24    2    3    3    0    0 -0.14092530011E+02  0.26798558722E+03  0.31796946584E+03  0.42346293011E+03  0.78748953068E+02 0.  0.
         -6    2    1    2    0  502 -0.18793846478E+02 -0.27759555961E+03  0.29501257026E+03  0.44050901020E+03  0.17205600273E+03 0.  0.
        -24    2    5    5    0    0  0.69725836119E+01 -0.12593506587E+03  0.22793369515E+03  0.27262071470E+03  0.80374292897E+02 0.  0.
          5    1    3    3  501    0  0.32886376489E+02  0.96099723940E+01  0.35749406329E+01  0.34766874011E+02  0.47000000000E+01 0. -1.
        -11    1    4    4    0    0  0.19527471601E+00 -0.45565592645E+01  0.17575217450E+00  0.45641267919E+01  0.00000000000E+00 0.  1.
         12    1    4    4    0    0 -0.14287804727E+02  0.27254214648E+03  0.31779371366E+03  0.41889880331E+03  0.00000000000E+00 0. -1.
         -5    1    5    5    0  502 -0.25766430090E+02 -0.15166049374E+03  0.67078875105E+02  0.16788829550E+03  0.47000000000E+01 0.  1.
         11    1    6    6    0    0 -0.16900610530E+02  0.35343556284E+01  0.19049159971E+02  0.25709780271E+02  0.00000000000E+00 0. -1.
        -12    1    6    6    0    0  0.23873194142E+02 -0.12946942150E+03  0.20888453518E+03  0.24691093443E+03  0.00000000000E+00 0.  1.
</event>
<event>
12    1  0.1623092E-001  0.2055923E+03  0.7818608E-02  0.1145338E+00
         21   -1    0    0  501  502  0.00000000000E+00  0.00000000000E+00  0.36209968632E+03  0.36209968632E+03  0.00000000000E+00 0.  1.
         21   -1    0    0  502  503 -0.00000000000E+00 -0.00000000000E+00 -0.11955228137E+03  0.11955228137E+03  0.00000000000E+00 0. -1.
         -6    2    1    2    0  503 -0.55467213395E+02  0.96636898952E+02  0.16262335584E+03  0.26213460532E+03  0.17277989884E+03 0.  0.
        -24    2    3    3    0    0 -0.40415020024E+02  0.60761485595E+02  0.18709801368E+03  0.21593165427E+03  0.79344064801E+02 0.  0.
          6    2    1    2  501    0  0.55467213395E+02 -0.96636898952E+02  0.79924049113E+02  0.21951736236E+03  0.17141970934E+03 0.  0.
         24    2    5    5    0    0  0.10409544962E+03 -0.40024847319E+02  0.54282131212E+02  0.14046530545E+03  0.65924966670E+02 0.  0.
          5    1    5    5  501    0 -0.48628236229E+02 -0.56612051634E+02  0.25641917901E+02  0.79052056915E+02  0.47000000000E+01 0. -1.
        -11    1    6    6    0    0  0.11554383794E+02  0.16646065862E+02  0.14378925723E+02  0.24846504754E+02  0.00000000000E+00 0.  1.
         12    1    6    6    0    0  0.92541065830E+02 -0.56670913181E+02  0.39903205489E+02  0.11561880069E+03  0.00000000000E+00 0. -1.
         -5    1    3    3    0  503 -0.15052193371E+02  0.35875413357E+02 -0.24474657843E+02  0.46202951046E+02  0.47000000000E+01 0.  1.
         13    1    4    4    0    0 -0.18182475499E+02  0.37944237577E+02  0.21411864643E+02  0.47210544671E+02  0.00000000000E+00 0. -1.
        -14    1    4    4    0    0 -0.22232544525E+02  0.22817248018E+02  0.16568614904E+03  0.16872110960E+03  0.00000000000E+00 0.  1.
</event>
<event>
12    1  0.1623092E-001  0.2055690E+03  0.7818608E-02  0.1145355E+00
         21   -1    0    0  501  502  0.00000000000E+00  0.00000000000E+00  0.13564141219E+04  0.13564141219E+04  0.00000000000E+00 0.  1.
         21   -1    0    0  502  503 -0.00000000000E+00 -0.00000000000E+00 -0.35203104139E+02  0.35203104139E+02  0.00000000000E+00 0.  1.
         -6    2    1    2    0  503  0.10138317910E+03  0.47867250850E+02  0.41809420411E+03  0.46539987723E+03  0.17095162916E+03 0.  0.
        -24    2    3    3    0    0  0.36273965688E+02  0.87933977707E+02  0.29845512894E+03  0.32334302038E+03  0.80168945460E+02 0.  0.
          6    2    1    2  501    0 -0.10138317910E+03 -0.47867250850E+02  0.90311681365E+03  0.92621734880E+03  0.17230431049E+03 0.  0.
         24    2    5    5    0    0 -0.62171953630E+02 -0.26460283239E+02  0.85104453375E+03  0.85744678243E+03  0.79829116629E+02 0.  0.
          5    1    5    5  501    0 -0.39211225471E+02 -0.21406967611E+02  0.52072279897E+02  0.68770566371E+02  0.47000000000E+01 0. -1.
        -13    1    6    6    0    0 -0.73269593932E+02 -0.42781224250E+02  0.69345512166E+03  0.69862627513E+03  0.00000000000E+00 0.  1.
         14    1    6    6    0    0  0.11097640302E+02  0.16320941011E+02  0.15758941210E+03  0.15882050731E+03  0.00000000000E+00 0. -1.
         -5    1    3    3    0  503  0.65109213414E+02 -0.40066726857E+02  0.11963907517E+03  0.14205685685E+03  0.47000000000E+01 0.  1.
         13    1    4    4    0    0  0.45071137188E+01  0.33606862010E+02  0.22080093652E+03  0.22338932118E+03  0.00000000000E+00 0. -1.
        -14    1    4    4    0    0  0.31766851969E+02  0.54327115696E+02  0.77654192420E+02  0.99953699203E+02  0.00000000000E+00 0.  1.
</event>
<event>
12    1  0.1623092E-001  0.2201547E+03  0.7818608E-02  0.1134475E+00
         21   -1    0    0  501  502  0.00000000000E+00  0.00000000000E+00  0.23774978049E+03  0.23774978049E+03  0.00000000000E+00 0.  1.
         21   -1    0    0  502  503 -0.00000000000E+00 -0.00000000000E+00 -0.20313739989E+03  0.20313739989E+03  0.00000000000E+00 0. -1.
         -6    2    1    2    0  503 -0.25797682448E+02 -0.13292077319E+03 -0.84631247026E+01  0.21655795942E+03  0.16879654304E+03 0.  0.
        -24    2    3    3    0    0 -0.45904149163E+02 -0.17063536794E+02  0.15952458915E+02  0.96369025013E+02  0.81450309012E+02 0.  0.
          6    2    1    2  501    0  0.25797682448E+02  0.13292077319E+03  0.43075505308E+02  0.22432922096E+03  0.17359334047E+03 0.  0.
         24    2    5    5    0    0  0.80649291223E+02  0.60251852403E+02  0.18803723385E+02  0.12998580343E+03  0.80050828775E+02 0.  0.
          5    1    5    5  501    0 -0.54851608775E+02  0.72668920790E+02  0.24271781923E+02  0.94343417532E+02  0.47000000000E+01 0. -1.
        -11    1    6    6    0    0  0.87132992040E+02  0.71189229111E+02  0.71590309133E+01  0.11274447378E+03  0.00000000000E+00 0.  1.
         12    1    6    6    0    0 -0.64837008172E+01 -0.10937376707E+02  0.11644692472E+02  0.17241329655E+02  0.00000000000E+00 0. -1.
         -5    1    3    3    0  503  0.20106466715E+02 -0.11585723640E+03 -0.24415583618E+02  0.12018893440E+03  0.47000000000E+01 0.  1.
         11    1    4    4    0    0 -0.18800809328E+02 -0.49327654136E+02  0.11203025311E+02  0.53964763226E+02  0.00000000000E+00 0. -1.
        -12    1    4    4    0    0 -0.27103339835E+02  0.32264117342E+02  0.47494336043E+01  0.42404261786E+02  0.00000000000E+00 0.  1.
</event>
<event>
12    1  0.1623092E-001  0.1746596E+03  0.7818608E-02  0.1173218E+00
         21   -1    0    0  503  502  0.00000000000E+00  0.00000000000E+00  0.33533205926E+03  0.33533205926E+03  0.00000000000E+00 0. -1.
         21   -1    0    0  501  503 -0.00000000000E+00 -0.00000000000E+00 -0.10532148816E+03  0.10532148816E+03  0.00000000000E+00 0. -1.
          6    2    1    2  501    0  0.23327056904E+02  0.11470180594E+02  0.19700667457E+03  0.26290307122E+03  0.17213563955E+03 0.  0.
         24    2    3    3    0    0  0.43081201187E+01  0.50426183366E+02  0.19808285895E+03  0.21928497542E+03  0.79295154745E+02 0.  0.
         -6    2    1    2    0  502 -0.23327056904E+02 -0.11470180594E+02  0.33003896527E+02  0.17775047620E+03  0.17271438266E+03 0.  0.
        -24    2    5    5    0    0  0.45612145305E+02 -0.34347847956E+02  0.12452816883E+01  0.98335736499E+02  0.80050758196E+02 0.  0.
          5    1    3    3  501    0  0.19018936785E+02 -0.38956002772E+02 -0.10761843790E+01  0.43618095800E+02  0.47000000000E+01 0. -1.
        -11    1    4    4    0    0  0.27833825619E+02 -0.45829065316E+01  0.31501762446E+02  0.42285764958E+02  0.00000000000E+00 0.  1.
         12    1    4    4    0    0 -0.23525705500E+02  0.55009089897E+02  0.16658109650E+03  0.17699921046E+03  0.00000000000E+00 0. -1.
         -5    1    5    5    0  502 -0.68939202209E+02  0.22877667363E+02  0.31758614838E+02  0.79414739700E+02  0.47000000000E+01 0.  1.
         13    1    6    6    0    0  0.42348705027E+02  0.70228027493E+01  0.25831843571E+02  0.50100067047E+02  0.00000000000E+00 0. -1.
        -14    1    6    6    0    0  0.32634402786E+01 -0.41370650706E+02 -0.24586561883E+02  0.48235669452E+02  0.00000000000E+00 0.  1.
</event>
<event>
12    1  0.1623092E-001  0.1945070E+03  0.7818608E-02  0.1154485E+00
         21   -1    0    0  501  502  0.00000000000E+00  0.00000000000E+00  0.18033618816E+03  0.18033618816E+03  0.00000000000E+00 0.  1.
         21   -1    0    0  502  503 -0.00000000000E+00 -0.00000000000E+00 -0.26820907327E+03  0.26820907327E+03  0.00000000000E+00 0.  1.
         -6    2    1    2    0  503 -0.89921442979E+02 -0.56961228669E+01  0.60860169506E+02  0.20368916140E+03  0.17224111738E+03 0.  0.
        -24    2    3    3    0    0 -0.12021503064E+03  0.86775517296E+01  0.14013742248E+02  0.14588793545E+03  0.80993525913E+02 0.  0.
          6    2    1    2  501    0  0.89921442979E+02  0.56961228669E+01 -0.14873305461E+03  0.24485610003E+03  0.17237945488E+03 0.  0.
         24    2    5    5    0    0  0.78109188721E+01  0.54091665252E+02 -0.57996120033E+02  0.11317638258E+03  0.80364326235E+02 0.  0.
          5    1    5    5  501    0  0.82110524107E+02 -0.48395542386E+02 -0.90736934575E+02  0.13167971745E+03  0.47000000000E+01 0. -1.
        -11    1    6    6    0    0 -0.81050083273E+01  0.94915779375E+01 -0.64213363897E+02  0.65415115338E+02  0.00000000000E+00 0.  1.
         12    1    6    6    0    0  0.15915927199E+02  0.44600087315E+02  0.62172438635E+01  0.47761267240E+02  0.00000000000E+00 0. -1.
         -5    1    3    3    0  503  0.30293587666E+02 -0.14373674596E+02  0.46846427258E+02  0.57801225955E+02  0.47000000000E+01 0.  1.
         13    1    4    4    0    0 -0.51591475630E+02  0.43728662218E+02  0.36421358291E+00  0.67631419537E+02  0.00000000000E+00 0. -1.
        -14    1    4    4    0    0 -0.68623555015E+02 -0.35051110488E+02  0.13649528665E+02  0.78256515908E+02  0.00000000000E+00 0.  1.
</event>
<event>
12    1  0.1623092E-001  0.2098129E+03  0.7818608E-02  0.1143822E+00
         21   -1    0    0  501  502  0.00000000000E+00  0.00000000000E+00  0.15534240054E+03  0.15534240054E+03  0.00000000000E+00 0. -1.
         21   -1    0    0  502  503 -0.00000000000E+00 -0.00000000000E+00 -0.27578442478E+03  0.27578442478E+03  0.00000000000E+00 0. -1.
         -6    2    1    2    0  503  0.96355428137E+02  0.22817456115E+02 -0.29383816850E+02  0.21186044988E+03  0.18497685448E+03 0.  0.
        -24    2    3    3    0    0 -0.24907221043E+02  0.21306657381E+02 -0.56724779135E+01  0.88202736033E+02  0.81689670885E+02 0.  0.
          6    2    1    2  501    0 -0.96355428137E+02 -0.22817456115E+02 -0.91058207392E+02  0.21926637545E+03  0.17315063220E+03 0.  0.
         24    2    5    5    0    0  0.36588877010E+01  0.28693348107E+02 -0.73405091828E+02  0.10529291883E+03  0.69725142985E+02 0.  0.
          5    1    5    5  501    0 -0.10001431584E+03 -0.51510804223E+02 -0.17653115564E+02  0.11397345662E+03  0.47000000000E+01 0. -1.
        -13    1    6    6    0    0  0.33543843107E+02  0.29634286507E+02 -0.36223407792E+02  0.57580514232E+02  0.00000000000E+00 0.  1.
         14    1    6    6    0    0 -0.29884955406E+02 -0.94093839942E+00 -0.37181684036E+02  0.47712404597E+02  0.00000000000E+00 0. -1.
         -5    1    3    3    0  503  0.12126264918E+03  0.15107987341E+01 -0.23711338936E+02  0.12365771384E+03  0.47000000000E+01 0.  1.
         11    1    4    4    0    0 -0.47184991196E+02  0.18881710051E+02  0.19559133172E+02  0.54456423487E+02  0.00000000000E+00 0. -1.
        -12    1    4    4    0    0  0.22277770153E+02  0.24249473307E+01 -0.25231611085E+02  0.33746312546E+02  0.00000000000E+00 0.  1.
</event>
<event>
12    1  0.1623092E-001  0.1876036E+03  0.7818608E-02  0.1161115E+00
         21   -1    0    0  501  502  0.00000000000E+00  0.00000000000E+00  0.36549240490E+03  0.36549240490E+03  0.00000000000E+00 0.  1.
         21   -1    0    0  502  503 -0.00000000000E+00 -0.00000000000E+00 -0.96532012199E+02  0.96532012199E+02  0.00000000000E+00 0. -1.
         -6    2    1    2    0  503 -0.39552833320E+02  0.63312529012E+02  0.10705717852E+03  0.21421851872E+03  0.16986886511E+03 0.  0.
        -24    2    3    3    0    0  0.26732652910E+02  0.81449082851E+02  0.64421622173E+02  0.13320876045E+03  0.79030630945E+02 0.  0.
          6    2    1    2  501    0  0.39552833320E+02 -0.63312529012E+02  0.16190321418E+03  0.24780589838E+03  0.17211103845E+03 0.  0.
         24    2    5    5    0    0  0.54769702694E+02 -0.83792742168E+02  0.17618038061E+03  0.21819306796E+03  0.80918134079E+02 0.  0.
          5    1    5    5  501    0 -0.15216869374E+02  0.20480213156E+02 -0.14277166423E+02  0.29612830421E+02  0.47000000000E+01 0. -1.
        -13    1    6    6    0    0 -0.15847712703E+02 -0.22503335486E+02  0.77526772973E+02  0.82267555169E+02  0.00000000000E+00 0.  1.
         14    1    6    6    0    0  0.70617415397E+02 -0.61289406682E+02  0.98653607633E+02  0.13592551279E+03  0.00000000000E+00 0. -1.
         -5    1    3    3    0  503 -0.66285486230E+02 -0.18136553839E+02  0.42635556346E+02  0.81009758270E+02  0.47000000000E+01 0.  1.
         13    1    4    4    0    0  0.15635860259E+01  0.89927317840E+02  0.47443460995E+02  0.10168701631E+03  0.00000000000E+00 0. -1.
        -14    1    4    4    0    0  0.25169066884E+02 -0.84782349891E+01  0.16978161178E+02  0.31521744135E+02  0.00000000000E+00 0.  1.
</event>
<event>
12    1  0.1623092E-001  0.1776209E+03  0.7818608E-02  0.1170134E+00
         21   -1    0    0  501  502  0.00000000000E+00  0.00000000000E+00  0.13775952607E+03  0.13775952607E+03  0.00000000000E+00 0.  1.
         21   -1    0    0  502  503 -0.00000000000E+00 -0.00000000000E+00 -0.52876059602E+03  0.52876059602E+03  0.00000000000E+00 0.  1.
         -6    2    1    2    0  503 -0.16728417980E+02 -0.35805448141E+02 -0.44644346011E+03  0.48047989917E+03  0.17316841616E+03 0.  0.
        -24    2    3    3    0    0 -0.10931376389E+02  0.29614554007E+02 -0.12299992329E+03  0.15040234181E+03  0.80593836561E+02 0.  0.
          6    2    1    2  501    0  0.16728417980E+02  0.35805448141E+02  0.55442390148E+02  0.18604022292E+03  0.17313357801E+03 0.  0.
         24    2    5    5    0    0  0.63502318581E+02 -0.49270542267E+00  0.72898579667E+02  0.12413576199E+03  0.77863324259E+02 0.  0.
          5    1    5    5  501    0 -0.46773900602E+02  0.36298153564E+02 -0.17456189519E+02  0.61904460923E+02  0.47000000000E+01 0. -1.
        -13    1    6    6    0    0  0.11990024055E+02  0.28661544663E+02  0.53465710704E+02  0.61837100841E+02  0.00000000000E+00 0.  1.
         14    1    6    6    0    0  0.51512294527E+02 -0.29154250085E+02  0.19432868963E+02  0.62298661154E+02  0.00000000000E+00 0. -1.
         -5    1    3    3    0  503 -0.57970415900E+01 -0.65420002148E+02 -0.32344353681E+03  0.33007755737E+03  0.47000000000E+01 0.  1.
         13    1    4    4    0    0 -0.21223635948E+02  0.36386150634E+02 -0.12970649784E+03  0.13637510866E+03  0.00000000000E+00 0. -1.
        -14    1    4    4    0    0  0.10292259559E+02 -0.67715966269E+01  0.67065745417E+01  0.14027233148E+02  0.00000000000E+00 0.  1.
</event>
<event>
12    1  0.1623092E-001  0.1743510E+03  0.7818608E-02  0.1173507E+00
         21   -1    0    0  501  502  0.00000000000E+00  0.00000000000E+00  0.11300978422E+04  0.11300978422E+04  0.00000000000E+00 0. -1.
         21   -1    0    0  502  503 -0.00000000000E+00 -0.00000000000E+00 -0.27084377930E+02  0.27084377930E+02  0.00000000000E+00 0. -1.
         -6    2    1    2    0  503  0.20716154045E+02  0.16472352529E+02  0.49403247315E+03  0.52373440653E+03  0.17184046854E+03 0.  0.
        -24    2    3    3    0    0 -0.68965550982E+01 -0.21575309793E+02  0.45458919664E+03  0.46218809571E+03  0.80333315953E+02 0.  0.
          6    2    1    2  501    0 -0.20716154045E+02 -0.16472352529E+02  0.60898099111E+03  0.63344781358E+03  0.17233046034E+03 0.  0.
         24    2    5    5    0    0  0.52150299109E+02 -0.97497226081E+01  0.26083415116E+03  0.27766272970E+03  0.79040662083E+02 0.  0.
          5    1    5    5  501    0 -0.72866453154E+02 -0.67226299211E+01  0.34814683995E+03  0.35578508388E+03  0.47000000000E+01 0. -1.
        -11    1    6    6    0    0  0.24008846068E+02 -0.35438231837E+02  0.62829669042E+02  0.76025392319E+02  0.00000000000E+00 0.  1.
         12    1    6    6    0    0  0.28141453041E+02  0.25688509229E+02  0.19800448212E+03  0.20163733738E+03  0.00000000000E+00 0. -1.
         -5    1    3    3    0  503  0.27612709143E+02  0.38047662322E+02  0.39443276508E+02  0.61546310824E+02  0.47000000000E+01 0.  1.
         13    1    4    4    0    0 -0.28675630513E+02 -0.81400199931E+00  0.38866013280E+03  0.38971740173E+03  0.00000000000E+00 0. -1.
        -14    1    4    4    0    0  0.21779075414E+02 -0.20761307794E+02  0.65929063835E+02  0.72470693976E+02  0.00000000000E+00 0.  1.
</event>
<event>
12    1  0.1623092E-001  0.1904770E+03  0.7818608E-02  0.1158149E+00
         21   -1    0    0  503  502  0.00000000000E+00  0.00000000000E+00  0.81446604410E+03  0.81446604410E+03  0.00000000000E+00 0.  1.
         21   -1    0    0  501  503 -0.00000000000E+00 -0.00000000000E+00 -0.18534777175E+03  0.18534777175E+03  0.00000000000E+00 0.  1.
          6    2    1    2  501    0 -0.81920061121E+02  0.16318584543E+02 -0.12123752553E+03  0.22578757877E+03  0.17118498917E+03 0.  0.
         24    2    3    3    0    0 -0.10684029738E+03  0.52490249729E+02 -0.10975488547E+03  0.18014386551E+03  0.78965827649E+02 0.  0.
         -6    2    1    2    0  502  0.81920061121E+02 -0.16318584543E+02  0.75035579787E+03  0.77402623708E+03  0.17060363322E+03 0.  0.
        -24    2    5    5    0    0  0.75522082707E+02 -0.55498299660E+02  0.26609243348E+03  0.28811566887E+03  0.58496232795E+02 0.  0.
          5    1    3    3  501    0  0.24920236258E+02 -0.36171665186E+02 -0.11482640056E+02  0.45643713260E+02  0.47000000000E+01 0. -1.
        -13    1    4    4    0    0 -0.17830310236E+02  0.12919474860E+02  0.11311959543E+02  0.24754660621E+02  0.00000000000E+00 0.  1.
         14    1    4    4    0    0 -0.89009987144E+02  0.39570774869E+02 -0.12106684501E+03  0.15538920489E+03  0.00000000000E+00 0. -1.
         -5    1    5    5    0  502  0.63979784144E+01  0.39179715117E+02  0.48426336439E+03  0.48591056820E+03  0.47000000000E+01 0.  1.
         13    1    6    6    0    0  0.59635500567E+02 -0.67377156520E+02  0.22918848533E+03  0.24621826893E+03  0.00000000000E+00 0. -1.
        -14    1    6    6    0    0  0.15886582140E+02  0.11878856860E+02  0.36903948156E+02  0.41897399942E+02  0.00000000000E+00 0.  1.
</event>
<event>
12    1  0.1623092E-001  0.1839761E+03  0.7818608E-02  0.1164132E+00
         21   -1    0    0  503  502  0.00000000000E+00  0.00000000000E+00  0.26656631865E+03  0.26656631865E+03  0.00000000000E+00 0. -1.
         21   -1    0    0  501  503 -0.00000000000E+00 -0.00000000000E+00 -0.19480318667E+03  0.19480318667E+03  0.00000000000E+00 0. -1.
          6    2    1    2  501    0  0.46568549630E+02  0.48478750850E+02 -0.10063208215E+03  0.20924393890E+03  0.17069678060E+03 0.  0.
         24    2    3    3    0    0  0.70135408368E+02  0.25012600920E+02 -0.66633952712E+01  0.10945285143E+03  0.79943230724E+02 0.  0.
         -6    2    1    2    0  502 -0.46568549630E+02 -0.48478750850E+02  0.17239521413E+03  0.25212556642E+03  0.17125528397E+03 0.  0.
        -24    2    5    5    0    0  0.15249357873E+02 -0.80003950318E+02  0.11510301025E+03  0.16201575277E+03  0.79794900811E+02 0.  0.
          5    1    3    3  501    0 -0.23566858738E+02  0.23466149930E+02 -0.93968686880E+02  0.99791087464E+02  0.47000000000E+01 0. -1.
        -13    1    4    4    0    0  0.59782843498E+02 -0.19943883723E+02 -0.15924979211E+01  0.63041914028E+02  0.00000000000E+00 0.  1.
         14    1    4    4    0    0  0.10352564869E+02  0.44956484643E+02 -0.50708973501E+01  0.46410937405E+02  0.00000000000E+00 0. -1.
         -5    1    5    5    0  502 -0.61817907503E+02  0.31525199468E+02  0.57292203879E+02  0.90109813643E+02  0.47000000000E+01 0.  1.
         13    1    6    6    0    0  0.13442056744E+02 -0.60820294847E+02  0.12551007977E+03  0.14011629912E+03  0.00000000000E+00 0. -1.
        -14    1    6    6    0    0  0.18073011295E+01 -0.19183655471E+02 -0.10407069514E+02  0.21899453657E+02  0.00000000000E+00 0.  1.
</event>
<event>
12    1  0.1623092E-001  0.1737914E+03  0.7818608E-02  0.1174327E+00
         21   -1    0    0  503  502  0.00000000000E+00  0.00000000000E+00  0.84750640103E+03  0.84750640103E+03  0.00000000000E+00 0. -1.
         21   -1    0    0  501  503 -0.00000000000E+00 -0.00000000000E+00 -0.38234135369E+02  0.38234135369E+02  0.00000000000E+00 0. -1.
          6    2    1    2  501    0  0.57036826741E+00 -0.17570487621E+02  0.28429728839E+03  0.33320924014E+03  0.17289997737E+03 0.  0.
         24    2    3    3    0    0  0.53838408583E+02 -0.51353461751E+02  0.15470245868E+03  0.18900215520E+03  0.79077251312E+02 0.  0.
         -6    2    1    2    0  502 -0.57036826741E+00  0.17570487621E+02  0.52497497727E+03  0.55253129626E+03  0.17141487459E+03 0.  0.
        -24    2    5    5    0    0  0.75297839113E+01  0.67260041256E+02  0.45286261222E+03  0.46445776222E+03  0.77819384084E+02 0.  0.
          5    1    3    3  501    0 -0.53268040316E+02  0.33782974130E+02  0.12959482971E+03  0.14420708494E+03  0.47000000000E+01 0. -1.
        -11    1    4    4    0    0  0.31165133302E+02  0.17737391566E+02  0.50586694861E+02  0.62007211598E+02  0.00000000000E+00 0.  1.
         12    1    4    4    0    0  0.22673275281E+02 -0.69090853317E+02  0.10411576382E+03  0.12699494360E+03  0.00000000000E+00 0. -1.
         -5    1    5    5    0  502 -0.81001521788E+01 -0.49689553635E+02  0.72112365045E+02  0.88073534039E+02  0.47000000000E+01 0.  1.
         13    1    6    6    0    0  0.21958512542E+02  0.72456257951E+02  0.25500845355E+03  0.26601014449E+03  0.00000000000E+00 0. -1.
        -14    1    6    6    0    0 -0.14428728630E+02 -0.51962166948E+01  0.19785415867E+03  0.19844761773E+03  0.00000000000E+00 0.  1.
</event>
<event>
12    1  0.1623092E-001  0.2191639E+03  0.7818608E-02  0.1135155E+00
         21   -1    0    0  503  502  0.00000000000E+00  0.00000000000E+00  0.50836758740E+03  0.50836758740E+03  0.00000000000E+00 0. -1.
         21   -1    0    0  501  503 -0.00000000000E+00 -0.00000000000E+00 -0.99395290776E+02  0.99395290776E+02  0.00000000000E+00 0.  1.
          6    2    1    2  501    0 -0.24203741235E+02 -0.13382282160E+03  0.28298917335E+03  0.35793254404E+03  0.17186758036E+03 0.  0.
         24    2    3    3    0    0  0.50724173124E+02 -0.55721497069E+02  0.14726020907E+03  0.18427065707E+03  0.81192850085E+02 0.  0.
         -6    2    1    2    0  502  0.24203741235E+02  0.13382282160E+03  0.12598312327E+03  0.24983033413E+03  0.16747859515E+03 0.  0.
        -24    2    5    5    0    0  0.16994011197E+02  0.22279364296E+02  0.10689217291E+03  0.13633814295E+03  0.79856033601E+02 0.  0.
          5    1    3    3  501    0 -0.74927914359E+02 -0.78101324529E+02  0.13572896428E+03  0.17366188697E+03  0.47000000000E+01 0. -1.
        -13    1    4    4    0    0  0.38506625959E+02 -0.19164243533E+01  0.15735567031E+02  0.41641817862E+02  0.00000000000E+00 0.  1.
         14    1    4    4    0    0  0.12217547165E+02 -0.53805072716E+02  0.13152464204E+03  0.14262883920E+03  0.00000000000E+00 0. -1.
         -5    1    5    5    0  502  0.72097300375E+01  0.11154345730E+03  0.19090950356E+02  0.11349219118E+03  0.47000000000E+01 0.  1.
         13    1    6    6    0    0  0.44628440888E+02  0.44658422716E+01  0.87080029958E+02  0.97951891767E+02  0.00000000000E+00 0. -1.
        -14    1    6    6    0    0 -0.27634429691E+02  0.17813522024E+02  0.19812142956E+02  0.38386251182E+02  0.00000000000E+00 0.  1.
</event>
<event>
12    1  0.1623092E-001  0.2130481E+03  0.7818608E-02  0.1139469E+00
         21   -1    0    0  503  502  0.00000000000E+00  0.00000000000E+00  0.12763012196E+04  0.12763012196E+04  0.00000000000E+00 0.  1.
         21   -1    0    0  501  503 -0.00000000000E+00 -0.00000000000E+00 -0.11239469617E+03  0.11239469617E+03  0.00000000000E+00 0. -1.
          6    2    1    2  501    0  0.97130853467E+02 -0.79743017695E+02  0.75844535408E+01  0.21318308640E+03  0.17203532435E+03 0.  0.
         24    2    3    3    0    0  0.13771749204E+02 -0.41000446802E+02  0.57882476388E+02  0.10829405854E+03  0.80663029501E+02 0.  0.
         -6    2    1    2    0  502 -0.97130853467E+02  0.79743017695E+02  0.11563220699E+04  0.11755128294E+04  0.17016559915E+03 0.  0.
        -24    2    5    5    0    0 -0.64900078291E+01  0.28821685267E+02  0.80743482296E+03  0.81143434049E+03  0.74845747085E+02 0.  0.
          5    1    3    3  501    0  0.83359104264E+02 -0.38742570893E+02 -0.50298022848E+02  0.10488902786E+03  0.47000000000E+01 0. -1.
        -11    1    4    4    0    0  0.27733225408E+02 -0.32104610233E+02  0.73930128723E+02  0.85237912473E+02  0.00000000000E+00 0.  1.
         12    1    4    4    0    0 -0.13961476204E+02 -0.88958365691E+01 -0.16047652335E+02  0.23056146068E+02  0.00000000000E+00 0. -1.
         -5    1    5    5    0  502 -0.90640845638E+02  0.50921332428E+02  0.34888724692E+03  0.36407848887E+03  0.47000000000E+01 0.  1.
         11    1    6    6    0    0 -0.15909141676E+02 -0.11412062574E+02  0.57645984964E+03  0.57679224528E+03  0.00000000000E+00 0. -1.
        -12    1    6    6    0    0  0.94191338471E+01  0.40233747842E+02  0.23097497331E+03  0.23464209521E+03  0.00000000000E+00 0.  1.
</event>
<event>
12    1  0.1623092E-001  0.1958944E+03  0.7818608E-02  0.1153650E+00
         21   -1    0    0  501  502  0.00000000000E+00  0.00000000000E+00  0.10436574561E+03  0.10436574561E+03  0.00000000000E+00 0. -1.
         21   -1    0    0  502  503 -0.00000000000E+00 -0.00000000000E+00 -0.42867913146E+03  0.42867913146E+03  0.00000000000E+00 0. -1.
         -6    2    1    2    0  503 -0.81130254571E+02  0.38210241934E+02 -0.59485528855E+02  0.20472701388E+03  0.17416222689E+03 0.  0.
        -24    2    3    3    0    0  0.23206679929E+02  0.25940077350E+02 -0.45293604747E+02  0.98612672015E+02  0.80383523466E+02 0.  0.
          6    2    1    2  501    0  0.81130254571E+02 -0.38210241934E+02 -0.26482785699E+03  0.32831786319E+03  0.17209498730E+03 0.  0.
         24    2    5    5    0    0  0.14291273289E+02 -0.22649581269E+02 -0.41177729749E+02  0.94328433948E+02  0.80529522537E+02 0.  0.
          5    1    5    5  501    0  0.66838981282E+02 -0.15560660665E+02 -0.22365012724E+03  0.23398942924E+03  0.47000000000E+01 0. -1.
        -13    1    6    6    0    0  0.46753438587E+02 -0.34888524048E+01 -0.26666282084E+02  0.53936506292E+02  0.00000000000E+00 0.  1.
         14    1    6    6    0    0 -0.32462165298E+02 -0.19160728864E+02 -0.14511447665E+02  0.40391927656E+02  0.00000000000E+00 0. -1.
         -5    1    3    3    0  503 -0.10433693450E+03  0.12270164584E+02 -0.14191924108E+02  0.10611434187E+03  0.47000000000E+01 0.  1.
         11    1    4    4    0    0  0.34385062346E+02  0.31563779332E+02  0.48541730715E+01  0.46927259397E+02  0.00000000000E+00 0. -1.
        -12    1    4    4    0    0 -0.11178382417E+02 -0.56237019829E+01 -0.50147777818E+02  0.51685412619E+02  0.00000000000E+00 0.  1.
</event>
<event>
12    1  0.1623092E-001  0.1781832E+03  0.7818608E-02  0.1169736E+00
         21   -1    0    0  501  502  0.00000000000E+00  0.00000000000E+00  0.12824883780E+03  0.12824883780E+03  0.00000000000E+00 0.  1.
         21   -1    0    0  502  503 -0.00000000000E+00 -0.00000000000E+00 -0.41197358759E+03  0.41197358759E+03  0.00000000000E+00 0. -1.
         -6    2    1    2    0  503 -0.20975641885E+02 -0.45048343440E+02 -0.31282047612E+03  0.35967929620E+03  0.17042070015E+03 0.  0.
        -24    2    3    3    0    0  0.22913828750E+02 -0.11263912972E+02 -0.62185246139E+02  0.10295418664E+03  0.77978461295E+02 0.  0.
          6    2    1    2  501    0  0.20975641885E+02  0.45048343440E+02  0.29095726333E+02  0.18054312918E+03  0.17111379081E+03 0.  0.
         24    2    5    5    0    0  0.13796070624E+02  0.25999880233E+02  0.86347941987E+02  0.11959810156E+03  0.77339598367E+02 0.  0.
          5    1    5    5  501    0  0.71795712613E+01  0.19048463208E+02 -0.57252215654E+02  0.60945027618E+02  0.47000000000E+01 0. -1.
        -11    1    6    6    0    0 -0.11246701657E+02 -0.16210915851E+02  0.61497556418E+02  0.64585072085E+02  0.00000000000E+00 0.  1.
         12    1    6    6    0    0  0.25042772281E+02  0.42210796084E+02  0.24850385569E+02  0.55013029479E+02  0.00000000000E+00 0. -1.
         -5    1    3    3    0  503 -0.43889470635E+02 -0.33784430468E+02 -0.25063522998E+03  0.25672510956E+03  0.47000000000E+01 0.  1.
         13    1    4    4    0    0 -0.12775900133E+02 -0.28284796114E+02 -0.54434880045E+02  0.62661068304E+02  0.00000000000E+00 0. -1.
        -14    1    4    4    0    0  0.35689728883E+02  0.17020883142E+02 -0.77503660934E+01  0.40293118336E+02  0.00000000000E+00 0.  1.
</event>
<event>
12    1  0.1623092E-001  0.1833759E+03  0.7818608E-02  0.1165274E+00
         21   -1    0    0  503  502  0.00000000000E+00  0.00000000000E+00  0.13424470338E+03  0.13424470338E+03  0.00000000000E+00 0.  1.
         21   -1    0    0  501  503 -0.00000000000E+00 -0.00000000000E+00 -0.53058252800E+03  0.53058252800E+03  0.00000000000E+00 0. -1.
          6    2    1    2  501    0 -0.26468530217E+02  0.58373640254E+02 -0.44214239999E+03  0.47866128120E+03  0.17180993942E+03 0.  0.
         24    2    3    3    0    0 -0.32997168920E+01 -0.25002159583E+02 -0.29467090869E+03  0.30761085397E+03  0.84601991332E+02 0.  0.
         -6    2    1    2    0  502  0.26468530217E+02 -0.58373640254E+02  0.45804575365E+02  0.18616595018E+03  0.16867613024E+03 0.  0.
        -24    2    5    5    0    0 -0.40539664755E+02 -0.63238908952E+02  0.17343082632E+02  0.11305018169E+03  0.82685772907E+02 0.  0.
          5    1    3    3  501    0 -0.23168813325E+02  0.83375799837E+02 -0.14747149131E+03  0.17105042723E+03  0.47000000000E+01 0. -1.
        -11    1    4    4    0    0  0.11004905190E+02 -0.13747173414E+02 -0.63551501712E+01  0.18721128407E+02  0.00000000000E+00 0.  1.
         12    1    4    4    0    0 -0.14304622082E+02 -0.11254986169E+02 -0.28831575852E+03  0.28888972556E+03  0.00000000000E+00 0. -1.
         -5    1    5    5    0  502  0.67008194972E+02  0.48652686972E+01  0.28461492734E+02  0.73115768487E+02  0.47000000000E+01 0.  1.
         11    1    6    6    0    0 -0.41337351381E+02  0.66042481422E+01  0.68763776591E+01  0.42422603438E+02  0.00000000000E+00 0. -1.
        -12    1    6    6    0    0  0.79768662650E+00 -0.69843157094E+02  0.10466704973E+02  0.70627578252E+02  0.00000000000E+00 0.  1.
</event>
<event>
12    1  0.1623092E-001  0.1892829E+03  0.7818608E-02  0.1160453E+00
         21   -1    0    0  503  502  0.00000000000E+00  0.00000000000E+00  0.75746963748E+02  0.75746963748E+02  0.00000000000E+00 0. -1.
         21   -1    0    0  501  503 -0.00000000000E+00 -0.00000000000E+00 -0.48627070103E+03  0.48627070103E+03  0.00000000000E+00 0. -1.
          6    2    1    2  501    0 -0.62223308590E+02 -0.71900512682E+01 -0.26933530537E+03  0.32587746542E+03  0.17242731448E+03 0.  0.
         24    2    3    3    0    0 -0.54930289734E+02 -0.70275005048E+02 -0.17452804838E+03  0.21166973583E+03  0.79925742619E+02 0.  0.
         -6    2    1    2    0  502  0.62223308590E+02  0.71900512682E+01 -0.14118843191E+03  0.23614019936E+03  0.17861854181E+03 0.  0.
        -24    2    5    5    0    0  0.10261443522E+03  0.42956513349E+02 -0.10501368866E+03  0.17101428309E+03  0.76439687727E+02 0.  0.
          5    1    3    3  501    0 -0.72930188565E+01  0.63084953780E+02 -0.94807256996E+02  0.11420772958E+03  0.47000000000E+01 0. -1.
        -13    1    4    4    0    0  0.11472157321E+02 -0.34972698237E+02 -0.25607792747E+02  0.44838142970E+02  0.00000000000E+00 0.  1.
         14    1    4    4    0    0 -0.66402447054E+02 -0.35302306811E+02 -0.14892025563E+03  0.16683159286E+03  0.00000000000E+00 0. -1.
         -5    1    5    5    0  502 -0.40391126634E+02 -0.35766462080E+02 -0.36174743247E+02  0.65125916266E+02  0.47000000000E+01 0.  1.
         11    1    6    6    0    0  0.69258379987E+02 -0.45114131069E+01 -0.28587178254E+02  0.75061993093E+02  0.00000000000E+00 0. -1.
        -12    1    6    6    0    0  0.33356055237E+02  0.47467926456E+02 -0.76426510408E+02  0.95952289999E+02  0.00000000000E+00 0.  1.
</event>
<event>
12    1  0.1623092E-001  0.1910545E+03  0.7818608E-02  0.1157664E+00
         21   -1    0    0  501  502  0.00000000000E+00  0.00000000000E+00  0.20730408812E+03  0.20730408812E+03  0.00000000000E+00 0.  1.
         21   -1    0    0  502  503 -0.00000000000E+00 -0.00000000000E+00 -0.35598567088E+03  0.35598567088E+03  0.00000000000E+00 0.  1.
         -6    2    1    2    0  503  0.81082351141E+02  0.26071626573E+00 -0.27484052227E+03  0.33434022872E+03  0.17225463772E+03 0.  0.
        -24    2    3    3    0    0 -0.15700050731E+02  0.27268293419E+02 -0.96362459816E+02  0.12946770417E+03  0.80536397625E+02 0.  0.
          6    2    1    2  501    0 -0.81082351141E+02 -0.26071626573E+00  0.12615893951E+03  0.22894953028E+03  0.17299535762E+03 0.  0.
         24    2    5    5    0    0 -0.67489101534E+02  0.56406750440E+02  0.12102368633E+03  0.17026018676E+03  0.81272985808E+02 0.  0.
          5    1    5    5  501    0 -0.13593249607E+02 -0.56667466706E+02  0.51352531821E+01  0.58689343522E+02  0.47000000000E+01 0. -1.
        -11    1    6    6    0    0 -0.40139570569E+02  0.75754391161E+02  0.79626099183E+02  0.11700525021E+03  0.00000000000E+00 0.  1.
         12    1    6    6    0    0 -0.27349530965E+02 -0.19347640721E+02  0.41397587149E+02  0.53254936552E+02  0.00000000000E+00 0. -1.
         -5    1    3    3    0  503  0.96782401872E+02 -0.27007577154E+02 -0.17847806246E+03  0.20487252455E+03  0.47000000000E+01 0.  1.
         13    1    4    4    0    0  0.17382888828E+02  0.92548616250E+01  0.58428961038E+01  0.20541585202E+02  0.00000000000E+00 0. -1.
        -14    1    4    4    0    0 -0.33082939559E+02  0.18013431794E+02 -0.10220535592E+03  0.10892611897E+03  0.00000000000E+00 0.  1.
</event>
<event>
12    1  0.1623092E-001  0.1860753E+03  0.7818608E-02  0.1162394E+00
         21   -1    0    0  503  502  0.00000000000E+00  0.00000000000E+00  0.98884250755E+03  0.98884250755E+03  0.00000000000E+00 0.  1.
         21   -1    0    0  501  503 -0.00000000000E+00 -0.00000000000E+00 -0.50594103826E+02  0.50594103826E+02  0.00000000000E+00 0.  1.
          6    2    1    2  501    0 -0.72590921463E+02  0.49494679793E+01  0.17945194517E+03  0.25850922274E+03  0.17126026541E+03 0.  0.
         24    2    3    3    0    0 -0.20168098333E+02 -0.51306608903E+02  0.53257958235E+02  0.11065824740E+03  0.79810508678E+02 0.  0.
         -6    2    1    2    0  502  0.72590921463E+02 -0.49494679793E+01  0.75879645855E+03  0.78092738863E+03  0.16965135333E+03 0.  0.
        -24    2    5    5    0    0  0.92064954516E+01  0.32910832231E+02  0.59369098375E+03  0.60000504174E+03  0.79807164433E+02 0.  0.
          5    1    3    3  501    0 -0.52422823130E+02  0.56256076882E+02  0.12619398693E+03  0.14785097534E+03  0.47000000000E+01 0. -1.
        -11    1    4    4    0    0 -0.13059639299E+02  0.20789315535E+02  0.13122953384E+02  0.27838134358E+02  0.00000000000E+00 0.  1.
         12    1    4    4    0    0 -0.71084590335E+01 -0.72095924438E+02  0.40135004852E+02  0.82820113045E+02  0.00000000000E+00 0. -1.
         -5    1    5    5    0  502  0.63384426011E+02 -0.37860300210E+02  0.16510547480E+03  0.18092234688E+03  0.47000000000E+01 0.  1.
         13    1    6    6    0    0  0.11741350506E+02  0.59177588663E+02  0.42577924630E+03  0.43003233936E+03  0.00000000000E+00 0. -1.
        -14    1    6    6    0    0 -0.25348550547E+01 -0.26266756432E+02  0.16791173745E+03  0.16997270239E+03  0.00000000000E+00 0.  1.
</event>
<event>
12    1  0.1623092E-001  0.1916757E+03  0.7818608E-02  0.1157661E+00
         21   -1    0    0  501  502  0.00000000000E+00  0.00000000000E+00  0.26851166939E+03  0.26851166939E+03  0.00000000000E+00 0.  1.
         21   -1    0    0  502  503 -0.00000000000E+00 -0.00000000000E+00 -0.35448074865E+03  0.35448074865E+03  0.00000000000E+00 0.  1.
         -6    2    1    2    0  503 -0.73483063372E+02  0.41876957182E+02 -0.28817317410E+03  0.34437783673E+03  0.16851966061E+03 0.  0.
        -24    2    3    3    0    0 -0.41644609942E+02 -0.12964112541E+02 -0.26030237450E+03  0.27495088579E+03  0.77060506601E+02 0.  0.
          6    2    1    2  501    0  0.73483063372E+02 -0.41876957182E+02  0.20220409483E+03  0.27861458131E+03  0.17200624642E+03 0.  0.
         24    2    5    5    0    0  0.81756882491E+02 -0.39554990724E+02  0.22413617781E+03  0.25459471714E+03  0.79578003663E+02 0.  0.
          5    1    5    5  501    0 -0.82738191189E+01 -0.23219664585E+01 -0.21932082977E+02  0.24019864170E+02  0.47000000000E+01 0. -1.
        -11    1    6    6    0    0  0.68999286542E+02 -0.47009565879E+02  0.10313050838E+03  0.13269025053E+03  0.00000000000E+00 0.  1.
         12    1    6    6    0    0  0.12757595949E+02  0.74545751553E+01  0.12100566943E+03  0.12190446661E+03  0.00000000000E+00 0. -1.
         -5    1    3    3    0  503 -0.31838453430E+02  0.54841069723E+02 -0.27870799601E+02  0.69426950931E+02  0.47000000000E+01 0.  1.
         11    1    4    4    0    0 -0.34416296575E+02 -0.20521406119E+02 -0.48592376898E+02  0.62982764878E+02  0.00000000000E+00 0. -1.
        -12    1    4    4    0    0 -0.72283133674E+01  0.75572935781E+01 -0.21170999760E+03  0.21196812092E+03  0.00000000000E+00 0.  1.
</event>
<event>
12    1  0.1623092E-001  0.2372176E+03  0.7818608E-02  0.1121663E+00
         21   -1    0    0  503  502  0.00000000000E+00  0.00000000000E+00  0.31666271109E+03  0.31666271109E+03  0.00000000000E+00 0. -1.
         21   -1    0    0  501  503 -0.00000000000E+00 -0.00000000000E+00 -0.18550787760E+03  0.18550787760E+03  0.00000000000E+00 0. -1.
          6    2    1    2  501    0 -0.16271436990E+03 -0.11258816122E+02  0.14041121195E+02  0.23763276874E+03  0.17224822955E+03 0.  0.
         24    2    3    3    0    0 -0.38578904882E+02  0.34020155985E+02 -0.27739832130E+02  0.98969373965E+02  0.79873248221E+02 0.  0.
         -6    2    1    2    0  502  0.16271436990E+03  0.11258816122E+02  0.11711371230E+03  0.26453781995E+03  0.17222633209E+03 0.  0.
        -24    2    5    5    0    0  0.10681865378E+03  0.73440880091E+02  0.87107004916E+02  0.17558034333E+03  0.80231159745E+02 0.  0.
          5    1    3    3  501    0 -0.12413546501E+03 -0.45278972107E+02  0.41780953325E+02  0.13866339477E+03  0.47000000000E+01 0. -1.
        -13    1    4    4    0    0 -0.57156130724E+02  0.31447884982E+02  0.29826904557E+00  0.65237119139E+02  0.00000000000E+00 0.  1.
         14    1    4    4    0    0  0.18577225842E+02  0.25722710023E+01 -0.28038101176E+02  0.33732254826E+02  0.00000000000E+00 0. -1.
         -5    1    5    5    0  502  0.55895716112E+02 -0.62182063969E+02  0.30006707383E+02  0.88957476622E+02  0.47000000000E+01 0.  1.
         11    1    6    6    0    0 -0.10108173409E+02  0.21555528994E+02  0.20173792479E+02  0.31205735095E+02  0.00000000000E+00 0. -1.
        -12    1    6    6    0    0  0.11692682719E+03  0.51885351097E+02  0.66933212438E+02  0.14437460824E+03  0.00000000000E+00 0.  1.
</event>
<event>
12    1  0.1623092E-001  0.2273724E+03  0.7818608E-02  0.1128560E+00
         21   -1    0    0  501  502  0.00000000000E+00  0.00000000000E+00  0.34144515171E+02  0.34144515171E+02  0.00000000000E+00 0. -1.
         21   -1    0    0  502  503 -0.00000000000E+00 -0.00000000000E+00 -0.16011328171E+04  0.16011328171E+04  0.00000000000E+00 0. -1.
         -6    2    1    2    0  503  0.13961925982E+03  0.45858435571E+02 -0.97693791734E+03  0.10030483147E+04  0.17349839631E+03 0.  0.
        -24    2    3    3    0    0  0.12527241565E+03 -0.79496085132E+01 -0.47173093070E+03  0.49475968915E+03  0.80626947284E+02 0.  0.
          6    2    1    2  501    0 -0.13961925982E+03 -0.45858435571E+02 -0.59005038458E+03  0.63222901754E+03  0.17308246717E+03 0.  0.
         24    2    5    5    0    0 -0.69827876280E+02 -0.69988242666E+02 -0.21149535196E+03  0.24651009457E+03  0.79136947178E+02 0.  0.
          5    1    5    5  501    0 -0.69791383535E+02  0.24129807095E+02 -0.37855503263E+03  0.38571892297E+03  0.47000000000E+01 0. -1.
        -11    1    6    6    0    0  0.95707379518E+01 -0.12520425096E+02 -0.28847078837E+01  0.16021286125E+02  0.00000000000E+00 0.  1.
         12    1    6    6    0    0 -0.79398614232E+02 -0.57467817570E+02 -0.20861064407E+03  0.23048880844E+03  0.00000000000E+00 0. -1.
         -5    1    3    3    0  503  0.14346844162E+02  0.53808044085E+02 -0.50520698665E+03  0.50828862559E+03  0.47000000000E+01 0.  1.
         11    1    4    4    0    0  0.59320077601E+02  0.30820103733E+02 -0.15282909544E+03  0.16680972038E+03  0.00000000000E+00 0. -1.
        -12    1    4    4    0    0  0.65952338052E+02 -0.38769712246E+02 -0.31890183526E+03  0.32794996877E+03  0.00000000000E+00 0.  1.
</event>
<event>
12    1  0.1623092E-001  0.2193709E+03  0.7818608E-02  0.1134570E+00
         21   -1    0    0  503  502  0.00000000000E+00  0.00000000000E+00  0.11006674867E+03  0.11006674867E+03  0.00000000000E+00 0. -1.
         21   -1    0    0  501  503 -0.00000000000E+00 -0.00000000000E+00 -0.49412041421E+03  0.49412041421E+03  0.00000000000E+00 0.  1.
          6    2    1    2  501    0  0.42277974182E+02  0.12598378042E+03 -0.87018775330E+02  0.23492667667E+03  0.17308649895E+03 0.  0.
         24    2    3    3    0    0  0.74228076313E+02  0.13137731803E+03 -0.10204602269E+03  0.19890158212E+03  0.79866398542E+02 0.  0.
         -6    2    1    2    0  502 -0.42277974182E+02 -0.12598378042E+03 -0.29703489021E+03  0.36926048621E+03  0.17454008320E+03 0.  0.
        -24    2    5    5    0    0 -0.26161556868E+01  0.74580023405E+01 -0.12422425458E+03  0.14730243833E+03  0.78764692858E+02 0.  0.
          5    1    3    3  501    0 -0.31950102131E+02 -0.53935376112E+01  0.15027247358E+02  0.36025094550E+02  0.47000000000E+01 0. -1.
        -11    1    4    4    0    0  0.20843000720E+02  0.97171898879E+02 -0.90584489676E+02  0.13447065993E+03  0.00000000000E+00 0.  1.
         12    1    4    4    0    0  0.53385075594E+02  0.34205419152E+02 -0.11461533011E+02  0.64430922192E+02  0.00000000000E+00 0. -1.
         -5    1    5    5    0  502 -0.39661818495E+02 -0.13344178276E+03 -0.17281063563E+03  0.22195804788E+03  0.47000000000E+01 0.  1.
         13    1    6    6    0    0  0.37949369073E+02  0.42443352992E+01 -0.66356438559E+02  0.76559427462E+02  0.00000000000E+00 0. -1.
        -14    1    6    6    0    0 -0.40565524759E+02  0.32136670414E+01 -0.57867816022E+02  0.70743010864E+02  0.00000000000E+00 0.  1.
</event>
<event>
12    1  0.1623092E-001  0.2178467E+03  0.7818608E-02  0.1135882E+00
         21   -1    0    0  503  502  0.00000000000E+00  0.00000000000E+00  0.21406448327E+03  0.21406448327E+03  0.00000000000E+00 0.  1.
         21   -1    0    0  501  503 -0.00000000000E+00 -0.00000000000E+00 -0.24062432230E+03  0.24062432230E+03  0.00000000000E+00 0.  1.
          6    2    1    2  501    0 -0.11104314108E+02  0.13092461654E+03 -0.80468675047E+02  0.23223346885E+03  0.17376022383E+03 0.  0.
         24    2    3    3    0    0 -0.49760056428E+02  0.14903148121E+03 -0.77447956129E+02  0.18918303674E+03  0.71453410510E+02 0.  0.
         -6    2    1    2    0  502  0.11104314108E+02 -0.13092461654E+03  0.53908836010E+02  0.22245533672E+03  0.17121814515E+03 0.  0.
        -24    2    5    5    0    0  0.40399229863E+02 -0.33494974276E+01  0.25452648853E+02  0.88420088769E+02  0.74343512547E+02 0.  0.
          5    1    3    3  501    0  0.38655742321E+02 -0.18106864671E+02 -0.30207189178E+01  0.43050432116E+02  0.47000000000E+01 0. -1.
        -13    1    4    4    0    0 -0.42112580459E+02  0.13769688543E+03 -0.90670810085E+02  0.17016197428E+03  0.00000000000E+00 0.  1.
         14    1    4    4    0    0 -0.76474759695E+01  0.11334595779E+02  0.13222853956E+02  0.19021062455E+02  0.00000000000E+00 0. -1.
         -5    1    5    5    0  502 -0.29294915755E+02 -0.12757511911E+03  0.28456187158E+02  0.13403524795E+03  0.47000000000E+01 0.  1.
         11    1    6    6    0    0  0.26949405472E+02  0.31699343297E+02  0.28993845721E+02  0.50712541945E+02  0.00000000000E+00 0. -1.
        -12    1    6    6    0    0  0.13449824390E+02 -0.35048840725E+02 -0.35411968681E+01  0.37707546825E+02  0.00000000000E+00 0.  1.
</event>
<event>
12    1  0.1623092E-001  0.3445779E+03  0.7818608E-02  0.1065190E+00
         21   -1    0    0  501  502  0.00000000000E+00  0.00000000000E+00  0.35270771862E+03  0.35270771862E+03  0.00000000000E+00 0.  1.
         21   -1    0    0  502  503 -0.00000000000E+00 -0.00000000000E+00 -0.35564107115E+03  0.35564107115E+03  0.00000000000E+00 0. -1.
         -6    2    1    2    0  503 -0.28737330875E+03  0.81711148411E+02  0.86691675702E+02  0.35531591327E+03  0.17167941412E+03 0.  0.
        -24    2    3    3    0    0 -0.15994168791E+03  0.26376227084E+02 -0.17596543127E+02  0.18153762321E+03  0.79807402078E+02 0.  0.
          6    2    1    2  501    0  0.28737330875E+03 -0.81711148411E+02 -0.89625028235E+02  0.35303287650E+03  0.16534641166E+03 0.  0.
         24    2    5    5    0    0  0.22735711783E+03 -0.51529908056E+02 -0.79052438009E+01  0.24714112229E+03  0.81667931263E+02 0.  0.
          5    1    5    5  501    0  0.60016190921E+02 -0.30181240356E+02 -0.81719784434E+02  0.10589175421E+03  0.47000000000E+01 0. -1.
        -11    1    6    6    0    0 -0.14369391575E+01 -0.14856159621E+02  0.27714380805E+01  0.15180617308E+02  0.00000000000E+00 0.  1.
         12    1    6    6    0    0  0.22879405698E+03 -0.36673748435E+02 -0.10676681881E+02  0.23196050498E+03  0.00000000000E+00 0. -1.
         -5    1    3    3    0  503 -0.12743162084E+03  0.55334921327E+02  0.10428821883E+03  0.17377829006E+03  0.47000000000E+01 0.  1.
         13    1    4    4    0    0 -0.44975674226E+02  0.43148208163E+02  0.71910440014E+01  0.62739861760E+02  0.00000000000E+00 0. -1.
        -14    1    4    4    0    0 -0.11496601368E+03 -0.16771981079E+02 -0.24787587129E+02  0.11879776145E+03  0.00000000000E+00 0.  1.
</event>
<event>
12    1  0.1623092E-001  0.1982621E+03  0.7818608E-02  0.1152090E+00
         21   -1    0    0  503  502  0.00000000000E+00  0.00000000000E+00  0.25941904515E+02  0.25941904515E+02  0.00000000000E+00 0.  1.
         21   -1    0    0  501  503 -0.00000000000E+00 -0.00000000000E+00 -0.19446554508E+04  0.19446554508E+04  0.00000000000E+00 0. -1.
          6    2    1    2  501    0  0.42904043999E+02 -0.76261664968E+02 -0.14462847996E+04  0.14598108080E+04  0.17790805227E+03 0.  0.
         24    2    3    3    0    0 -0.24884824806E+02 -0.40746813396E+01 -0.40402833837E+03  0.41285001011E+03  0.81057850381E+02 0.  0.
         -6    2    1    2    0  502 -0.42904043999E+02  0.76261664968E+02 -0.47242874669E+03  0.51078654732E+03  0.17337063676E+03 0.  0.
        -24    2    5    5    0    0 -0.31089290014E+02  0.61004534826E+02 -0.47851973193E+03  0.49001256038E+03  0.80268787591E+02 0.  0.
          5    1    3    3  501    0  0.67788868805E+02 -0.72186983628E+02 -0.10422564613E+04  0.10469607979E+04  0.47000000000E+01 0. -1.
        -11    1    4    4    0    0  0.15767298093E+02 -0.83030791279E+01 -0.20551848495E+02  0.27201604525E+02  0.00000000000E+00 0.  1.
         12    1    4    4    0    0 -0.40652122899E+02  0.42283977884E+01 -0.38347648987E+03  0.38564840558E+03  0.00000000000E+00 0. -1.
         -5    1    5    5    0  502 -0.11814753985E+02  0.15257130142E+02  0.60909852462E+01  0.20773986934E+02  0.47000000000E+01 0.  1.
         13    1    6    6    0    0  0.19947597518E+02  0.26703562599E+02 -0.28538204330E+03  0.28732194058E+03  0.00000000000E+00 0. -1.
        -14    1    6    6    0    0 -0.51036887532E+02  0.34300972227E+02 -0.19313768863E+03  0.20269061980E+03  0.00000000000E+00 0.  1.
</event>
<event>
12    1  0.1623092E-001  0.1728840E+03  0.7818608E-02  0.1175325E+00
         21   -1    0    0  501  502  0.00000000000E+00  0.00000000000E+00  0.14273348741E+02  0.14273348741E+02  0.00000000000E+00 0.  1.
         21   -1    0    0  502  503 -0.00000000000E+00 -0.00000000000E+00 -0.22453752400E+04  0.22453752400E+04  0.00000000000E+00 0.  1.
         -6    2    1    2    0  503 -0.17130183948E+01  0.15048172141E+02 -0.14340877396E+04  0.14444710196E+04  0.17221933585E+03 0.  0.
        -24    2    3    3    0    0 -0.66446332246E+02  0.21946862386E+02 -0.79743838034E+03  0.80448469903E+03  0.79942984084E+02 0.  0.
          6    2    1    2  501    0  0.17130183948E+01 -0.15048172141E+02 -0.79701415169E+03  0.81517756918E+03  0.17045095890E+03 0.  0.
         24    2    5    5    0    0 -0.14009602618E+02  0.58531525025E+02 -0.45786565887E+03  0.46775137151E+03  0.74351702012E+02 0.  0.
          5    1    5    5  501    0  0.15722621013E+02 -0.73579697167E+02 -0.33914849282E+03  0.34742619767E+03  0.47000000000E+01 0. -1.
        -13    1    6    6    0    0  0.13543296525E+02  0.39104857238E+02 -0.98943106123E+02  0.10724900461E+03  0.00000000000E+00 0.  1.
         14    1    6    6    0    0 -0.27552899144E+02  0.19426667787E+02 -0.35892255274E+03  0.36050236690E+03  0.00000000000E+00 0. -1.
         -5    1    3    3    0  503  0.64733313851E+02 -0.68986902444E+01 -0.63664935925E+03  0.63998632054E+03  0.47000000000E+01 0.  1.
         13    1    4    4    0    0 -0.37454131654E+02 -0.44422739606E+01 -0.11723973283E+03  0.12315721956E+03  0.00000000000E+00 0. -1.
        -14    1    4    4    0    0 -0.28992200592E+02  0.26389136346E+02 -0.68019864751E+03  0.68132747947E+03  0.00000000000E+00 0.  1.
</event>
<event>
12    1  0.1623092E-001  0.2234654E+03  0.7818608E-02  0.1132424E+00
         21   -1    0    0  501  502  0.00000000000E+00  0.00000000000E+00  0.31872473683E+03  0.31872473683E+03  0.00000000000E+00 0. -1.
         21   -1    0    0  502  503 -0.00000000000E+00 -0.00000000000E+00 -0.32372172914E+03  0.32372172914E+03  0.00000000000E+00 0. -1.
         -6    2    1    2    0  503  0.11450223943E+03  0.73923607145E+02 -0.23605577092E+03  0.32100446919E+03  0.16954668893E+03 0.  0.
        -24    2    3    3    0    0  0.13448701440E+03  0.36705171539E+02 -0.22599279040E+03  0.27732430485E+03  0.80012512061E+02 0.  0.
          6    2    1    2  501    0 -0.11450223943E+03 -0.73923607145E+02  0.23105877861E+03  0.32144199678E+03  0.17709131993E+03 0.  0.
         24    2    5    5    0    0 -0.14242124159E+03 -0.79114376220E+02  0.23287384096E+03  0.29260106724E+03  0.69586379185E+02 0.  0.
          5    1    5    5  501    0  0.27919002161E+02  0.51907690755E+01 -0.18150623532E+01  0.28840929538E+02  0.47000000000E+01 0. -1.
        -13    1    6    6    0    0 -0.55977010957E+02 -0.58601244378E+02  0.70067980211E+02  0.10713101068E+03  0.00000000000E+00 0.  1.
         14    1    6    6    0    0 -0.86444230632E+02 -0.20513131842E+02  0.16280586075E+03  0.18547005657E+03  0.00000000000E+00 0. -1.
         -5    1    3    3    0  503 -0.19984774971E+02  0.37218435606E+02 -0.10062980514E+02  0.43680164336E+02  0.47000000000E+01 0.  1.
         13    1    4    4    0    0  0.83109865956E+02 -0.36480200000E+01 -0.71902189594E+02  0.10995673121E+03  0.00000000000E+00 0. -1.
        -14    1    4    4    0    0  0.51377148443E+02  0.40353191539E+02 -0.15409060081E+03  0.16736757364E+03  0.00000000000E+00 0.  1.
</event>
<event>
12    1  0.1623092E-001  0.1813947E+03  0.7818608E-02  0.1167549E+00
         21   -1    0    0  503  502  0.00000000000E+00  0.00000000000E+00  0.19344568808E+03  0.19344568808E+03  0.00000000000E+00 0.  1.
         21   -1    0    0  501  503 -0.00000000000E+00 -0.00000000000E+00 -0.19666067617E+03  0.19666067617E+03  0.00000000000E+00 0.  1.
          6    2    1    2  501    0  0.51643867951E+02 -0.38437111971E+01 -0.78711921174E+02  0.19362777941E+03  0.16915758101E+03 0.  0.
         24    2    3    3    0    0  0.71308944836E+02  0.12396209007E+02  0.29959451217E+01  0.10790312910E+03  0.79971732319E+02 0.  0.
         -6    2    1    2    0  502 -0.51643867951E+02  0.38437111971E+01  0.75496933092E+02  0.19647858484E+03  0.17384528806E+03 0.  0.
        -24    2    5    5    0    0 -0.70301179225E+02  0.77770819745E+01  0.11211482229E+03  0.15492709294E+03  0.80186856450E+02 0.  0.
          5    1    3    3  501    0 -0.19665076885E+02 -0.16239920204E+02 -0.81707866296E+02  0.85724650316E+02  0.47000000000E+01 0. -1.
        -11    1    4    4    0    0  0.29037027438E+02  0.35334052109E+02 -0.25134569151E+02  0.52186116614E+02  0.00000000000E+00 0.  1.
         12    1    4    4    0    0  0.42271917398E+02 -0.22937843102E+02  0.28130514273E+02  0.55717012482E+02  0.00000000000E+00 0. -1.
         -5    1    5    5    0  502  0.18657311274E+02 -0.39333707775E+01 -0.36617889196E+02  0.41551491896E+02  0.47000000000E+01 0.  1.
         13    1    6    6    0    0  0.24102462329E+01  0.28390493419E+01  0.71300686996E+02  0.71397881300E+02  0.00000000000E+00 0. -1.
        -14    1    6    6    0    0 -0.72711425458E+02  0.49380326326E+01  0.40814135292E+02  0.83529211645E+02  0.00000000000E+00 0.  1.
</event>
<event>
12    1  0.1623092E-001  0.1812203E+03  0.7818608E-02  0.1171155E+00
         21   -1    0    0  503  502  0.00000000000E+00  0.00000000000E+00  0.15879688639E+03  0.15879688639E+03  0.00000000000E+00 0. -1.
         21   -1    0    0  501  503 -0.00000000000E+00 -0.00000000000E+00 -0.29080207380E+03  0.29080207380E+03  0.00000000000E+00 0. -1.
          6    2    1    2  501    0 -0.52917697157E+02  0.22158564654E+02 -0.20244079755E+03  0.27170398730E+03  0.17189966707E+03 0.  0.
         24    2    3    3    0    0 -0.57935221502E+02  0.55095104197E+02 -0.76066019303E+02  0.14092682658E+03  0.87649134393E+02 0.  0.
         -6    2    1    2    0  502  0.52917697157E+02 -0.22158564654E+02  0.70435610149E+02  0.17789497290E+03  0.15295150063E+03 0.  0.
        -24    2    5    5    0    0  0.65317499589E+02 -0.58084496160E+02  0.30672835968E+02  0.12268993811E+03  0.80447582940E+02 0.  0.
          5    1    3    3  501    0  0.50175243443E+01 -0.32936539543E+02 -0.12637477825E+03  0.13077716072E+03  0.47000000000E+01 0. -1.
        -13    1    4    4    0    0  0.76761360605E+00 -0.10016920626E+01 -0.57655449646E+02  0.57669259502E+02  0.00000000000E+00 0.  1.
         14    1    4    4    0    0 -0.58702835108E+02  0.56096796260E+02 -0.18410569657E+02  0.83257567076E+02  0.00000000000E+00 0. -1.
         -5    1    5    5    0  502 -0.12399802432E+02  0.35925931506E+02  0.39762774180E+02  0.55205034783E+02  0.47000000000E+01 0.  1.
         11    1    6    6    0    0  0.11577951821E+02 -0.53165720815E+02 -0.97325198637E+01  0.55275354192E+02  0.00000000000E+00 0. -1.
        -12    1    6    6    0    0  0.53739547769E+02 -0.49187753454E+01  0.40405355832E+02  0.67414583921E+02  0.00000000000E+00 0.  1.
</event>
<event>
12    1  0.1623092E-001  0.3248402E+03  0.7818608E-02  0.1073483E+00
         21   -1    0    0  501  502  0.00000000000E+00  0.00000000000E+00  0.16682591756E+03  0.16682591756E+03  0.00000000000E+00 0. -1.
         21   -1    0    0  502  503 -0.00000000000E+00 -0.00000000000E+00 -0.77975946068E+03  0.77975946068E+03  0.00000000000E+00 0. -1.
         -6    2    1    2    0  503  0.14176421364E+03  0.23652492780E+03 -0.10018824650E+03  0.33960193953E+03  0.17102823994E+03 0.  0.
        -24    2    3    3    0    0  0.27714862116E+02  0.72746822799E+02 -0.82632234633E+02  0.13920027833E+03  0.80550713694E+02 0.  0.
          6    2    1    2  501    0 -0.14176421364E+03 -0.23652492780E+03 -0.51274529662E+03  0.60698343871E+03  0.17169747211E+03 0.  0.
         24    2    5    5    0    0 -0.89876894028E+02 -0.20997362435E+03 -0.48553564250E+03  0.54248754017E+03  0.79881738238E+02 0.  0.
          5    1    5    5  501    0 -0.51887319612E+02 -0.26551303451E+02 -0.27209654123E+02  0.64495898543E+02  0.47000000000E+01 0. -1.
        -11    1    6    6    0    0  0.88381851668E+01 -0.18152160408E+02 -0.86969314152E+02  0.89282002937E+02  0.00000000000E+00 0.  1.
         12    1    6    6    0    0 -0.98715079195E+02 -0.19182146394E+03 -0.39856632835E+03  0.45320553723E+03  0.00000000000E+00 0. -1.
         -5    1    3    3    0  503  0.11404935152E+03  0.16377810500E+03 -0.17556011866E+02  0.20040166120E+03  0.47000000000E+01 0.  1.
         13    1    4    4    0    0  0.45760440110E+02  0.24945688151E+02 -0.14612138378E+02  0.54127810083E+02  0.00000000000E+00 0. -1.
        -14    1    4    4    0    0 -0.18045577994E+02  0.47801134648E+02 -0.68020096254E+02  0.85072468245E+02  0.00000000000E+00 0.  1.
</event>
<event>
12    1  0.1623092E-001  0.1801655E+03  0.7818608E-02  0.1167772E+00
         21   -1    0    0  503  502  0.00000000000E+00  0.00000000000E+00  0.15613650828E+03  0.15613650828E+03  0.00000000000E+00 0.  1.
         21   -1    0    0  501  503 -0.00000000000E+00 -0.00000000000E+00 -0.26044729631E+03  0.26044729631E+03  0.00000000000E+00 0. -1.
          6    2    1    2  501    0  0.38880923189E+02  0.38606993128E+02  0.42015728817E+02  0.18448241181E+03  0.17107370544E+03 0.  0.
         24    2    3    3    0    0 -0.21655362921E+02  0.23580415404E+02  0.73483122457E+02  0.11446293712E+03  0.81712936269E+02 0.  0.
         -6    2    1    2    0  502 -0.38880923189E+02 -0.38606993128E+02 -0.14632651685E+03  0.23210139278E+03  0.17163152650E+03 0.  0.
        -24    2    5    5    0    0 -0.24969366433E+02  0.60130827377E+01 -0.66236703154E+01  0.84712594319E+02  0.80453242344E+02 0.  0.
          5    1    3    3  501    0  0.60536286110E+02  0.15026577724E+02 -0.31467393640E+02  0.70019474695E+02  0.47000000000E+01 0. -1.
        -11    1    4    4    0    0 -0.52899551657E+02  0.17259001100E+02  0.42593381500E+02  0.70074473470E+02  0.00000000000E+00 0.  1.
         12    1    4    4    0    0  0.31244188736E+02  0.63214143037E+01  0.30889740956E+02  0.44388463647E+02  0.00000000000E+00 0. -1.
         -5    1    5    5    0  502 -0.13911556756E+02 -0.44620075866E+02 -0.13970284654E+03  0.14738879846E+03  0.47000000000E+01 0.  1.
         11    1    6    6    0    0  0.21547302435E+02 -0.18344924670E+02 -0.14198164563E+02  0.31660865123E+02  0.00000000000E+00 0. -1.
        -12    1    6    6    0    0 -0.46516668868E+02  0.24358007408E+02  0.75744942479E+01  0.53051729195E+02  0.00000000000E+00 0.  1.
</event>
<event>
12    1  0.1623092E-001  0.1821556E+03  0.7818608E-02  0.1165805E+00
         21   -1    0    0  503  502  0.00000000000E+00  0.00000000000E+00  0.32079829384E+03  0.32079829384E+03  0.00000000000E+00 0. -1.
         21   -1    0    0  501  503 -0.00000000000E+00 -0.00000000000E+00 -0.11146662058E+03  0.11146662058E+03  0.00000000000E+00 0.  1.
          6    2    1    2  501    0  0.46335109097E+02  0.27462454220E+02  0.46100940472E+02  0.18789880687E+03  0.17401016115E+03 0.  0.
         24    2    3    3    0    0  0.73289713953E+02  0.65868119301E+02  0.57126430001E+02  0.13947157019E+03  0.80491605613E+02 0.  0.
         -6    2    1    2    0  502 -0.46335109097E+02 -0.27462454220E+02  0.16323073279E+03  0.24436610755E+03  0.17369338982E+03 0.  0.
        -24    2    5    5    0    0  0.37725266558E+01  0.27078650812E+02  0.14556063761E+03  0.16807830012E+03  0.79466536743E+02 0.  0.
          5    1    3    3  501    0 -0.26954604856E+02 -0.38405665081E+02 -0.11025489529E+02  0.48427236681E+02  0.47000000000E+01 0. -1.
        -13    1    4    4    0    0  0.26598319614E+02 -0.93217576169E+01 -0.83293236316E+01  0.29389511794E+02  0.00000000000E+00 0.  1.
         14    1    4    4    0    0  0.46691394339E+02  0.75189876918E+02  0.65455753633E+02  0.11008205839E+03  0.00000000000E+00 0. -1.
         -5    1    5    5    0  502 -0.50107635753E+02 -0.54541105032E+02  0.17670095173E+02  0.76287807429E+02  0.47000000000E+01 0.  1.
         11    1    6    6    0    0 -0.35740510474E+02  0.10056453522E+02  0.93108914775E+02  0.10023864702E+03  0.00000000000E+00 0. -1.
        -12    1    6    6    0    0  0.39513037129E+02  0.17022197291E+02  0.52451722838E+02  0.67839653098E+02  0.00000000000E+00 0.  1.
</event>
<event>
12    1  0.1623092E-001  0.2117944E+03  0.7818608E-02  0.1141322E+00
         21   -1    0    0  501  502  0.00000000000E+00  0.00000000000E+00  0.41505418236E+02  0.41505418236E+02  0.00000000000E+00 0. -1.
         21   -1    0    0  502  503 -0.00000000000E+00 -0.00000000000E+00 -0.12323968655E+04  0.12323968655E+04  0.00000000000E+00 0.  1.
         -6    2    1    2    0  503 -0.34326756628E+02 -0.11905481443E+03 -0.83268573021E+03  0.85776745322E+03  0.16446003604E+03 0.  0.
        -24    2    3    3    0    0  0.22025023105E+02 -0.11224397829E+03 -0.47297249840E+03  0.49357298635E+03  0.82628665113E+02 0.  0.
          6    2    1    2  501    0  0.34326756628E+02  0.11905481443E+03 -0.35820571709E+03  0.41613483055E+03  0.17176870024E+03 0.  0.
         24    2    5    5    0    0 -0.42489076618E+02  0.66261715216E+02 -0.14601981125E+03  0.18433161185E+03  0.80376746108E+02 0.  0.
          5    1    5    5  501    0  0.76815833247E+02  0.52793099211E+02 -0.21218590584E+03  0.23180321870E+03  0.47000000000E+01 0. -1.
        -13    1    6    6    0    0 -0.36100115592E+02  0.80593032690E+02 -0.14341922255E+03  0.16842662694E+03  0.00000000000E+00 0.  1.
         14    1    6    6    0    0 -0.63889610265E+01 -0.14331317473E+02 -0.26005886966E+01  0.15904984913E+02  0.00000000000E+00 0. -1.
         -5    1    3    3    0  503 -0.56351779733E+02 -0.68108361413E+01 -0.35971323181E+03  0.36419446688E+03  0.47000000000E+01 0.  1.
         11    1    4    4    0    0  0.50681704162E+02 -0.45357486334E+02 -0.21177358235E+03  0.22242748680E+03  0.00000000000E+00 0. -1.
        -12    1    4    4    0    0 -0.28656681057E+02 -0.66886491952E+02 -0.26119891605E+03  0.27114549954E+03  0.00000000000E+00 0.  1.
</event>
<event>
12    1  0.1623092E-001  0.1799382E+03  0.7818608E-02  0.1168285E+00
         21   -1    0    0  503  502  0.00000000000E+00  0.00000000000E+00  0.44011625607E+03  0.44011625607E+03  0.00000000000E+00 0. -1.
         21   -1    0    0  501  503 -0.00000000000E+00 -0.00000000000E+00 -0.83801319780E+02  0.83801319780E+02  0.00000000000E+00 0.  1.
          6    2    1    2  501    0 -0.38211782903E+02 -0.20878971229E+02  0.84249433515E+02  0.19868501003E+03  0.17459007524E+03 0.  0.
         24    2    3    3    0    0  0.26422905606E+02 -0.17026774376E+02 -0.82982781329E+01  0.85637890162E+02  0.79226926137E+02 0.  0.
         -6    2    1    2    0  502  0.38211782903E+02  0.20878971229E+02  0.27206550278E+03  0.32523256582E+03  0.17280194524E+03 0.  0.
        -24    2    5    5    0    0 -0.36917414733E+02  0.18372197369E+02  0.20558116912E+03  0.22476895612E+03  0.80975511058E+02 0.  0.
          5    1    3    3  501    0 -0.64634688510E+02 -0.38521968529E+01  0.92547711648E+02  0.11304711987E+03  0.47000000000E+01 0. -1.
        -11    1    4    4    0    0  0.47906034164E+02  0.86139365571E+01  0.64128346095E+01  0.49094933141E+02  0.00000000000E+00 0.  1.
         12    1    4    4    0    0 -0.21483128558E+02 -0.25640710933E+02 -0.14711112742E+02  0.36542957022E+02  0.00000000000E+00 0. -1.
         -5    1    5    5    0  502  0.75129197636E+02  0.25067738600E+01  0.66484333657E+02  0.10046360970E+03  0.47000000000E+01 0.  1.
         11    1    6    6    0    0  0.21596247279E+02  0.11108646448E+02  0.25209712652E+02  0.35004707318E+02  0.00000000000E+00 0. -1.
        -12    1    6    6    0    0 -0.58513662013E+02  0.72635509210E+01  0.18037145647E+03  0.18976424880E+03  0.00000000000E+00 0.  1.
</event>
<event>
12    1  0.1623092E-001  0.1947021E+03  0.7818608E-02  0.1154317E+00
         21   -1    0    0  501  502  0.00000000000E+00  0.00000000000E+00  0.68923961185E+03  0.68923961185E+03  0.00000000000E+00 0. -1.
         21   -1    0    0  502  503 -0.00000000000E+00 -0.00000000000E+00 -0.14315799672E+03  0.14315799672E+03  0.00000000000E+00 0.  1.
         -6    2    1    2    0  503  0.86405169899E+02  0.27824390129E+02 -0.53597820847E+02  0.20194458876E+03  0.17224645268E+03 0.  0.
        -24    2    3    3    0    0  0.76055650748E+02 -0.20996754415E+02 -0.86321200950E+02  0.14208202695E+03  0.80688456071E+02 0.  0.
          6    2    1    2  501    0 -0.86405169899E+02 -0.27824390129E+02  0.59967943599E+03  0.63045301981E+03  0.17209164467E+03 0.  0.
         24    2    5    5    0    0 -0.56182033510E+02  0.48152103233E+02  0.39286515722E+03  0.40801178843E+03  0.81581504031E+02 0.  0.
          5    1    5    5  501    0 -0.30223136389E+02 -0.75976493363E+02  0.20681427876E+03  0.22244123138E+03  0.47000000000E+01 0. -1.
        -13    1    6    6    0    0 -0.21452609633E+02  0.30594194402E+01  0.16161791425E+02  0.27032906049E+02  0.00000000000E+00 0.  1.
         14    1    6    6    0    0 -0.34729423877E+02  0.45092683793E+02  0.37670336580E+03  0.38097888238E+03  0.00000000000E+00 0. -1.
         -5    1    3    3    0  503  0.10349519151E+02  0.48821144544E+02  0.32723380103E+02  0.59862561811E+02  0.47000000000E+01 0.  1.
         11    1    4    4    0    0  0.92033789540E+01  0.22587188976E+02  0.17976388375E+00  0.24390891847E+02  0.00000000000E+00 0. -1.
        -12    1    4    4    0    0  0.66852271794E+02 -0.43583943391E+02 -0.86500964834E+02  0.11769113511E+03  0.00000000000E+00 0.  1.
</event>
<event>
12    1  0.1623092E-001  0.1783434E+03  0.7818608E-02  0.1169524E+00
         21   -1    0    0  501  502  0.00000000000E+00  0.00000000000E+00  0.33063695621E+02  0.33063695621E+02  0.00000000000E+00 0.  1.
         21   -1    0    0  502  503 -0.00000000000E+00 -0.00000000000E+00 -0.96383764046E+03  0.96383764046E+03  0.00000000000E+00 0.  1.
         -6    2    1    2    0  503 -0.93137123985E+01  0.46362815525E+02 -0.43172398443E+03  0.46694168782E+03  0.17150126878E+03 0.  0.
        -24    2    3    3    0    0  0.35664881217E+02  0.18605589303E+02 -0.38620097410E+03  0.39702765518E+03  0.82834865087E+02 0.  0.
          6    2    1    2  501    0  0.93137123985E+01 -0.46362815525E+02 -0.49904996042E+03  0.52995964827E+03  0.17195961705E+03 0.  0.
         24    2    5    5    0    0  0.60822911077E+02 -0.43026147936E+02 -0.22168818863E+03  0.24779662208E+03  0.81895280798E+02 0.  0.
          5    1    5    5  501    0 -0.51509198678E+02 -0.33366675887E+01 -0.27736177179E+03  0.28216302619E+03  0.47000000000E+01 0. -1.
        -13    1    6    6    0    0  0.17081509623E+02 -0.22547259202E+02 -0.89862553048E+01  0.29680122186E+02  0.00000000000E+00 0.  1.
         14    1    6    6    0    0  0.43741401453E+02 -0.20478888734E+02 -0.21270193332E+03  0.21811649989E+03  0.00000000000E+00 0. -1.
         -5    1    3    3    0  503 -0.44978593615E+02  0.27757226221E+02 -0.45523010325E+02  0.69914032641E+02  0.47000000000E+01 0.  1.
         13    1    4    4    0    0  0.36317660518E+02  0.49338857306E+02 -0.26492024090E+03  0.27191180435E+03  0.00000000000E+00 0. -1.
        -14    1    4    4    0    0 -0.65277930158E+00 -0.30733268002E+02 -0.12128073320E+03  0.12511585083E+03  0.00000000000E+00 0.  1.
</event>
<event>
12    1  0.1623092E-001  0.2188381E+03  0.7818608E-02  0.1135595E+00
         21   -1    0    0  501  502  0.00000000000E+00  0.00000000000E+00  0.16679017819E+04  0.16679017819E+04  0.00000000000E+00 0. -1.
         21   -1    0    0  502  503 -0.00000000000E+00 -0.00000000000E+00 -0.31217321552E+02  0.31217321552E+02  0.00000000000E+00 0.  1.
         -6    2    1    2    0  503 -0.71514943018E+01 -0.13273605734E+03  0.54375465006E+03  0.58449554859E+03  0.16821391759E+03 0.  0.
        -24    2    3    3    0    0 -0.26561267820E+02 -0.13509343695E+03  0.54120488731E+03  0.56422518015E+03  0.80570380439E+02 0.  0.
          6    2    1    2  501    0  0.71514943018E+01  0.13273605734E+03  0.10929298102E+04  0.11146235548E+04  0.17383927649E+03 0.  0.
         24    2    5    5    0    0 -0.48932457723E+02  0.58711041802E+02  0.69815494267E+03  0.70904446430E+03  0.97377392288E+02 0.  0.
          5    1    5    5  501    0  0.56083952024E+02  0.74025015535E+02  0.39477486757E+03  0.40557909052E+03  0.47000000000E+01 0. -1.
        -13    1    6    6    0    0 -0.24532964210E+02 -0.13806753516E+02  0.59510371408E+02  0.65832948291E+02  0.00000000000E+00 0.  1.
         14    1    6    6    0    0 -0.24399493513E+02  0.72517795319E+02  0.63864457126E+03  0.64321151601E+03  0.00000000000E+00 0. -1.
         -5    1    3    3    0  503  0.19409773519E+02  0.23573796167E+01  0.25497627467E+01  0.20270368442E+02  0.47000000000E+01 0.  1.
         13    1    4    4    0    0 -0.51044295848E+02 -0.53287238548E+02  0.26933431875E+03  0.27925978083E+03  0.00000000000E+00 0. -1.
        -14    1    4    4    0    0  0.24483028028E+02 -0.81806198407E+02  0.27187056856E+03  0.28496539932E+03  0.00000000000E+00 0.  1.
</event>
<event>
12    1  0.1623092E-001  0.1940513E+03  0.7818608E-02  0.1155014E+00
         21   -1    0    0  503  502  0.00000000000E+00  0.00000000000E+00  0.66146357621E+03  0.66146357621E+03  0.00000000000E+00 0.  1.
         21   -1    0    0  501  503 -0.00000000000E+00 -0.00000000000E+00 -0.21447328541E+03  0.21447328541E+03  0.00000000000E+00 0. -1.
          6    2    1    2  501    0  0.20173709342E+02 -0.86867015961E+02 -0.15201389242E+03  0.24650382348E+03  0.17234574115E+03 0.  0.
         24    2    3    3    0    0 -0.33994435391E+02 -0.10429855245E+03 -0.96282863841E+02  0.16671608060E+03  0.80560858847E+02 0.  0.
         -6    2    1    2    0  502 -0.20173709342E+02  0.86867015961E+02  0.59900418321E+03  0.62943303814E+03  0.17154323357E+03 0.  0.
        -24    2    5    5    0    0 -0.16474147217E+02 -0.18502705898E+02  0.19646652015E+03  0.21328988341E+03  0.79244767479E+02 0.  0.
          5    1    3    3  501    0  0.54168144733E+02  0.17431536493E+02 -0.55731028576E+02  0.79787742884E+02  0.47000000000E+01 0. -1.
        -13    1    4    4    0    0 -0.31235089238E+02 -0.29258329538E+02  0.22196967138E+01  0.42855661242E+02  0.00000000000E+00 0.  1.
         14    1    4    4    0    0 -0.27593461535E+01 -0.75040222917E+02 -0.98502560555E+02  0.12386041935E+03  0.00000000000E+00 0. -1.
         -5    1    5    5    0  502 -0.36995621252E+01  0.10536972186E+03  0.40253766307E+03  0.41614315473E+03  0.47000000000E+01 0.  1.
         11    1    6    6    0    0  0.27859968895E+01  0.17335192740E+02  0.60430043556E+01  0.18568483719E+02  0.00000000000E+00 0. -1.
        -12    1    6    6    0    0 -0.19260144106E+02 -0.35837898637E+02  0.19042351579E+03  0.19472139969E+03  0.00000000000E+00 0.  1.
</event>
<event>
12    1  0.1623092E-001  0.2239294E+03  0.7818608E-02  0.1131069E+00
         21   -1    0    0  501  502  0.00000000000E+00  0.00000000000E+00  0.19616994669E+03  0.19616994669E+03  0.00000000000E+00 0. -1.
         21   -1    0    0  502  503 -0.00000000000E+00 -0.00000000000E+00 -0.25667153264E+03  0.25667153264E+03  0.00000000000E+00 0. -1.
         -6    2    1    2    0  503  0.50569548813E+02 -0.13284630202E+03 -0.47985092290E+02  0.22901293899E+03  0.17302871992E+03 0.  0.
        -24    2    3    3    0    0  0.74759594140E+02 -0.14407834573E+03 -0.85153981495E+01  0.18114579103E+03  0.79960733975E+02 0.  0.
          6    2    1    2  501    0 -0.50569548813E+02  0.13284630202E+03 -0.12516493652E+02  0.22382854034E+03  0.17244458133E+03 0.  0.
         24    2    5    5    0    0 -0.70117817097E+02  0.81348842850E+02  0.47603050170E+02  0.14215496663E+03  0.80048995268E+02 0.  0.
          5    1    5    5  501    0  0.19548268283E+02  0.51497459166E+02 -0.60119543822E+02  0.81673573711E+02  0.47000000000E+01 0. -1.
        -13    1    6    6    0    0 -0.43496253145E+00 -0.14115344857E+02 -0.14347681265E+01  0.14194742422E+02  0.00000000000E+00 0.  1.
         14    1    6    6    0    0 -0.69682854565E+02  0.95464187707E+02  0.49037818296E+02  0.12796022420E+03  0.00000000000E+00 0. -1.
         -5    1    3    3    0  503 -0.24190045326E+02  0.11232043711E+02 -0.39469694140E+02  0.47867147965E+02  0.47000000000E+01 0.  1.
         11    1    4    4    0    0  0.15736739105E+01 -0.78408646133E+02 -0.23064600816E+02  0.81745752481E+02  0.00000000000E+00 0. -1.
        -12    1    4    4    0    0  0.73185920229E+02 -0.65669699594E+02  0.14549202667E+02  0.99400038545E+02  0.00000000000E+00 0.  1.
</event>
<event>
12    1  0.1623092E-001  0.1913929E+03  0.7818608E-02  0.1157944E+00
         21   -1    0    0  503  502  0.00000000000E+00  0.00000000000E+00  0.17677457748E+03  0.17677457748E+03  0.00000000000E+00 0. -1.
         21   -1    0    0  501  503 -0.00000000000E+00 -0.00000000000E+00 -0.20377124684E+03  0.20377124684E+03  0.00000000000E+00 0. -1.
          6    2    1    2  501    0 -0.63128094983E+01 -0.75820381748E+02 -0.10460820521E+02  0.19167857817E+03  0.17562080375E+03 0.  0.
         24    2    3    3    0    0 -0.19975635653E+02 -0.11885155943E+03 -0.17940417106E+01  0.14546647882E+03  0.81440522330E+02 0.  0.
         -6    2    1    2    0  502  0.63128094983E+01  0.75820381748E+02 -0.16535848840E+02  0.18886724614E+03  0.17207213754E+03 0.  0.
        -24    2    5    5    0    0 -0.23649895463E+02  0.71301630359E+02 -0.69439384924E+02  0.12771941762E+03  0.76466864794E+02 0.  0.
          5    1    3    3  501    0  0.13662826154E+02  0.43031177681E+02 -0.86667788105E+01  0.46212099347E+02  0.47000000000E+01 0. -1.
        -11    1    4    4    0    0 -0.20003741722E+02 -0.81363095629E+02 -0.39204796386E+02  0.92504697572E+02  0.00000000000E+00 0.  1.
         12    1    4    4    0    0  0.28106069263E-01 -0.37488463799E+02  0.37410754675E+02  0.52961781251E+02  0.00000000000E+00 0. -1.
         -5    1    5    5    0  502  0.29962704961E+02  0.45187513884E+01  0.52903536083E+02  0.61147828521E+02  0.47000000000E+01 0.  1.
         13    1    6    6    0    0 -0.87665453577E+01 -0.74539859127E+01 -0.41142360814E+02  0.42721283652E+02  0.00000000000E+00 0. -1.
        -14    1    6    6    0    0 -0.14883350105E+02  0.78755616272E+02 -0.28297024110E+02  0.84998133969E+02  0.00000000000E+00 0.  1.
</event>
<event>
12    1  0.1623092E-001  0.1797607E+03  0.7818608E-02  0.1168678E+00
         21   -1    0    0  503  502  0.00000000000E+00  0.00000000000E+00  0.12393391493E+04  0.12393391493E+04  0.00000000000E+00 0.  1.
         21   -1    0    0  501  503 -0.00000000000E+00 -0.00000000000E+00 -0.49730776757E+03  0.49730776757E+03  0.00000000000E+00 0.  1.
          6    2    1    2  501    0 -0.47456386458E+02  0.16637078567E+02 -0.47471976355E+03  0.50668868574E+03  0.16984012881E+03 0.  0.
         24    2    3    3    0    0 -0.15381855106E+02 -0.23775517797E+02 -0.42914238731E+03  0.43768621672E+03  0.81265976923E+02 0.  0.
         -6    2    1    2    0  502  0.47456386458E+02 -0.16637078567E+02  0.12167511453E+04  0.12299582311E+04  0.17258331253E+03 0.  0.
        -24    2    5    5    0    0  0.22925431731E+02  0.34746428087E+02  0.10479006844E+04  0.10517039167E+04  0.79072082274E+02 0.  0.
          5    1    3    3  501    0 -0.32074531352E+02  0.40412596364E+02 -0.45577376240E+02  0.69002469023E+02  0.47000000000E+01 0. -1.
        -13    1    4    4    0    0 -0.32410667620E+02 -0.28600924287E+02 -0.11202437654E+03  0.12007466505E+03  0.00000000000E+00 0.  1.
         14    1    4    4    0    0  0.17028812514E+02  0.48254064901E+01 -0.31711801077E+03  0.31761155167E+03  0.00000000000E+00 0. -1.
         -5    1    5    5    0  502  0.24530954728E+02 -0.51383506654E+02  0.16885046082E+03  0.17825431444E+03  0.47000000000E+01 0.  1.
         13    1    6    6    0    0  0.17976181294E+02  0.59422459498E+02  0.63180445008E+03  0.63484725323E+03  0.00000000000E+00 0. -1.
        -14    1    6    6    0    0  0.49492504368E+01 -0.24676031411E+02  0.41609623436E+03  0.41685666344E+03  0.00000000000E+00 0.  1.
</event>
<event>
12    1  0.1623092E-001  0.2031037E+03  0.7818608E-02  0.1147357E+00
         21   -1    0    0  501  502  0.00000000000E+00  0.00000000000E+00  0.53558067674E+02  0.53558067674E+02  0.00000000000E+00 0.  1.
         21   -1    0    0  502  503 -0.00000000000E+00 -0.00000000000E+00 -0.16088700708E+04  0.16088700708E+04  0.00000000000E+00 0.  1.
         -6    2    1    2    0  503 -0.42516281848E+02 -0.99631175702E+02 -0.13782305659E+04  0.13929676366E+04  0.17060286784E+03 0.  0.
        -24    2    3    3    0    0  0.12591594691E+02 -0.62509171138E+02 -0.11685761275E+04  0.11729858310E+04  0.79117944606E+02 0.  0.
          6    2    1    2  501    0  0.42516281848E+02  0.99631175702E+02 -0.17708143724E+03  0.26946050186E+03  0.17180547504E+03 0.  0.
         24    2    5    5    0    0 -0.97701966521E+01  0.86170189424E+02 -0.45102295873E+02  0.12678724669E+03  0.80746706074E+02 0.  0.
          5    1    5    5  501    0  0.52286478501E+02  0.13460986278E+02 -0.13197914137E+03  0.14267325517E+03  0.47000000000E+01 0. -1.
        -11    1    6    6    0    0  0.21186558294E+02 -0.51233503005E+01 -0.11875492091E+02  0.24822294073E+02  0.00000000000E+00 0.  1.
         12    1    6    6    0    0 -0.30956754946E+02  0.91293539724E+02 -0.33226803782E+02  0.10196495261E+03  0.00000000000E+00 0. -1.
         -5    1    3    3    0  503 -0.55107876540E+02 -0.37122004564E+02 -0.20965443840E+03  0.21998180565E+03  0.47000000000E+01 0.  1.
         13    1    4    4    0    0  0.18169913144E+02  0.41916035838E+01 -0.72222483064E+02  0.74590899875E+02  0.00000000000E+00 0. -1.
        -14    1    4    4    0    0 -0.55783184528E+01 -0.66700774722E+02 -0.10963536444E+04  0.10983949311E+04  0.00000000000E+00 0.  1.
</event>
<event>
12    1  0.1623092E-001  0.1913972E+03  0.7818608E-02  0.1157410E+00
         21   -1    0    0  501  502  0.00000000000E+00  0.00000000000E+00  0.12319489449E+03  0.12319489449E+03  0.00000000000E+00 0.  1.
         21   -1    0    0  502  503 -0.00000000000E+00 -0.00000000000E+00 -0.36827997848E+03  0.36827997848E+03  0.00000000000E+00 0. -1.
         -6    2    1    2    0  503 -0.84157445384E+02  0.55883001662E+01 -0.23167531143E+03  0.30051010239E+03  0.17181142861E+03 0.  0.
        -24    2    3    3    0    0 -0.55913272777E+02 -0.64056288203E+02 -0.14179744530E+03  0.18325728666E+03  0.79039328767E+02 0.  0.
          6    2    1    2  501    0  0.84157445384E+02 -0.55883001662E+01 -0.13409772554E+02  0.19096477058E+03  0.17080403066E+03 0.  0.
         24    2    5    5    0    0  0.47826675920E+01 -0.34124566827E+02 -0.48143024877E+02  0.99623855969E+02  0.80123666063E+02 0.  0.
          5    1    5    5  501    0  0.79374777792E+02  0.28536266661E+02  0.34733252323E+02  0.91340914608E+02  0.47000000000E+01 0. -1.
        -13    1    6    6    0    0  0.35090044243E+02 -0.41302495071E+02 -0.40209831886E+02  0.67483611969E+02  0.00000000000E+00 0.  1.
         14    1    6    6    0    0 -0.30307376651E+02  0.71779282441E+01 -0.79331929908E+01  0.32140244000E+02  0.00000000000E+00 0. -1.
         -5    1    3    3    0  503 -0.28244172607E+02  0.69644588369E+02 -0.89877866136E+02  0.11725281573E+03  0.47000000000E+01 0.  1.
         11    1    4    4    0    0 -0.74454906060E+00  0.80986001367E+01 -0.61464246411E+02  0.61999961810E+02  0.00000000000E+00 0. -1.
        -12    1    4    4    0    0 -0.55168723716E+02 -0.72154888339E+02 -0.80333198884E+02  0.12125732485E+03  0.00000000000E+00 0.  1.
</event>
<event>
12    1  0.1623092E-001  0.2248652E+03  0.7818608E-02  0.1130525E+00
         21   -1    0    0  503  502  0.00000000000E+00  0.00000000000E+00  0.82238448638E+02  0.82238448638E+02  0.00000000000E+00 0.  1.
         21   -1    0    0  501  503 -0.00000000000E+00 -0.00000000000E+00 -0.10368180489E+04  0.10368180489E+04  0.00000000000E+00 0. -1.
          6    2    1    2  501    0  0.12945989833E+02  0.14354640302E+03 -0.83487015474E+03  0.86431206632E+03  0.17103801985E+03 0.  0.
         24    2    3    3    0    0  0.39587898678E+02  0.71612957077E+01 -0.31840061777E+03  0.32945361643E+03  0.74446263181E+02 0.  0.
         -6    2    1    2    0  502 -0.12945989833E+02 -0.14354640302E+03 -0.11970944553E+03  0.25474443123E+03  0.17260129032E+03 0.  0.
        -24    2    5    5    0    0 -0.11090947566E+02 -0.17484374694E+03 -0.10287031854E+03  0.21884720131E+03  0.81353857462E+02 0.  0.
          5    1    3    3  501    0 -0.26641908845E+02  0.13638510731E+03 -0.51646953697E+03  0.53485844989E+03  0.47000000000E+01 0. -1.
        -11    1    4    4    0    0 -0.10125840245E+01  0.59238261935E+01  0.21175167515E+01  0.63718851504E+01  0.00000000000E+00 0.  1.
         12    1    4    4    0    0  0.40600482703E+02  0.12374695142E+01 -0.32051813453E+03  0.32308173128E+03  0.00000000000E+00 0. -1.
         -5    1    5    5    0  502 -0.18550422667E+01  0.31297343915E+02 -0.16839126994E+02  0.35897229919E+02  0.47000000000E+01 0.  1.
         11    1    6    6    0    0 -0.17189053957E+02 -0.80570507360E+02 -0.92407839415E+02  0.12379934983E+03  0.00000000000E+00 0. -1.
        -12    1    6    6    0    0  0.60981063906E+01 -0.94273239578E+02 -0.10462479121E+02  0.95047851482E+02  0.00000000000E+00 0.  1.
</event>
<event>
12    1  0.1623092E-001  0.2520209E+03  0.7818608E-02  0.1112301E+00
         21   -1    0    0  501  502  0.00000000000E+00  0.00000000000E+00  0.32799911332E+03  0.32799911332E+03  0.00000000000E+00 0.  1.
         21   -1    0    0  502  503 -0.00000000000E+00 -0.00000000000E+00 -0.23485663686E+03  0.23485663686E+03  0.00000000000E+00 0. -1.
         -6    2    1    2    0  503  0.17550723136E+03 -0.58714382567E+02 -0.73039481427E+02  0.26239151771E+03  0.17106833645E+03 0.  0.
        -24    2    3    3    0    0  0.13137675013E+03 -0.32991937100E+02  0.17994856260E+02  0.15789996679E+03  0.79121844474E+02 0.  0.
          6    2    1    2  501    0 -0.17550723136E+03  0.58714382567E+02  0.16618195789E+03  0.30046423247E+03  0.16855902494E+03 0.  0.
         24    2    5    5    0    0 -0.13386938638E+03  0.76613948650E+01  0.17263695555E+03  0.23410253657E+03  0.83790032979E+02 0.  0.
          5    1    5    5  501    0 -0.41637844978E+02  0.51052987702E+02 -0.64549976635E+01  0.66361695899E+02  0.47000000000E+01 0. -1.
        -11    1    6    6    0    0 -0.23869249166E+02 -0.18837216046E+02  0.87120004674E+02  0.92273923611E+02  0.00000000000E+00 0.  1.
         12    1    6    6    0    0 -0.11000013722E+03  0.26498610911E+02  0.85516950878E+02  0.14182861296E+03  0.00000000000E+00 0. -1.
         -5    1    3    3    0  503  0.44130481233E+02 -0.25722445467E+02 -0.91034337688E+02  0.10449155092E+03  0.47000000000E+01 0.  1.
         13    1    4    4    0    0  0.81833529187E+02 -0.12905702395E+02 -0.27925975496E+02  0.87425075126E+02  0.00000000000E+00 0. -1.
        -14    1    4    4    0    0  0.49543220940E+02 -0.20086234704E+02  0.45920831757E+02  0.70474891663E+02  0.00000000000E+00 0.  1.
</event>
<event>
12    1  0.1623092E-001  0.1805795E+03  0.7818608E-02  0.1168041E+00
         21   -1    0    0  501  502  0.00000000000E+00  0.00000000000E+00  0.97871809873E+03  0.97871809873E+03  0.00000000000E+00 0.  1.
         21   -1    0    0  502  503 -0.00000000000E+00 -0.00000000000E+00 -0.42026043161E+02  0.42026043161E+02  0.00000000000E+00 0.  1.
         -6    2    1    2    0  503 -0.52154672472E+02  0.61984548077E+01  0.70521757950E+03  0.72716383478E+03  0.16934248572E+03 0.  0.
        -24    2    3    3    0    0 -0.13895154471E+02 -0.55237193409E+02  0.25594092502E+03  0.27207073238E+03  0.72612006332E+02 0.  0.
          6    2    1    2  501    0  0.52154672472E+02 -0.61984548077E+01  0.23147447607E+03  0.29358030712E+03  0.17277277839E+03 0.  0.
         24    2    5    5    0    0  0.97018287907E+02 -0.11916332570E+02  0.20428046217E+03  0.24059877724E+03  0.81257105624E+02 0.  0.
          5    1    5    5  501    0 -0.44863615435E+02  0.57178777621E+01  0.27194013899E+02  0.52981529875E+02  0.47000000000E+01 0. -1.
        -13    1    6    6    0    0  0.80410070983E+02  0.16826663534E+02  0.18448202537E+03  0.20194685886E+03  0.00000000000E+00 0.  1.
         14    1    6    6    0    0  0.16608216924E+02 -0.28742996104E+02  0.19798436806E+02  0.38651918379E+02  0.00000000000E+00 0. -1.
         -5    1    3    3    0  503 -0.38259518001E+02  0.61435648216E+02  0.44927665448E+03  0.45509310239E+03  0.47000000000E+01 0.  1.
         13    1    4    4    0    0  0.19956843336E+02 -0.21679841451E+02  0.18009892969E+03  0.18249360426E+03  0.00000000000E+00 0. -1.
        -14    1    4    4    0    0 -0.33851997807E+02 -0.33557351957E+02  0.75841995331E+02  0.89577128117E+02  0.00000000000E+00 0.  1.
</event>
<event>
12    1  0.1623092E-001  0.1960105E+03  0.7818608E-02  0.1153207E+00
         21   -1    0    0  501  502  0.00000000000E+00  0.00000000000E+00  0.99832994883E+02  0.99832994883E+02  0.00000000000E+00 0. -1.
         21   -1    0    0  502  503 -0.00000000000E+00 -0.00000000000E+00 -0.53573995857E+03  0.53573995857E+03  0.00000000000E+00 0. -1.
         -6    2    1    2    0  503  0.63953870063E+02 -0.64761703513E+02 -0.48900238463E+02  0.20175926714E+03  0.17329568032E+03 0.  0.
        -24    2    3    3    0    0  0.90231933831E+01 -0.78079889547E+02 -0.79860488426E+02  0.13714208369E+03  0.79071906112E+02 0.  0.
          6    2    1    2  501    0 -0.63953870063E+02  0.64761703513E+02 -0.38700672522E+03  0.43381368631E+03  0.17359704296E+03 0.  0.
         24    2    5    5    0    0  0.21721245409E+02  0.55622653365E+02 -0.14755259769E+03  0.17928644446E+03  0.82499503112E+02 0.  0.
          5    1    5    5  501    0 -0.85675115472E+02  0.91390501480E+01 -0.23945412753E+03  0.25452724185E+03  0.47000000000E+01 0. -1.
        -13    1    6    6    0    0  0.41404048216E+02  0.10054977140E+02 -0.10706387132E+03  0.11523050948E+03  0.00000000000E+00 0.  1.
         14    1    6    6    0    0 -0.19682802808E+02  0.45567676225E+02 -0.40488726369E+02  0.64055934978E+02  0.00000000000E+00 0. -1.
         -5    1    3    3    0  503  0.54930676680E+02  0.13318186034E+02  0.30960249963E+02  0.64617183454E+02  0.47000000000E+01 0.  1.
         13    1    4    4    0    0 -0.29649002232E+02 -0.62676076572E+02 -0.43345053666E+02  0.81768866845E+02  0.00000000000E+00 0. -1.
        -14    1    4    4    0    0  0.38672195615E+02 -0.15403812975E+02 -0.36515434759E+02  0.55373216843E+02  0.00000000000E+00 0.  1.
</event>
<event>
12    1  0.1623092E-001  0.1883702E+03  0.7818608E-02  0.1159963E+00
         21   -1    0    0  501  502  0.00000000000E+00  0.00000000000E+00  0.85127702014E+02  0.85127702014E+02  0.00000000000E+00 0. -1.
         21   -1    0    0  502  503 -0.00000000000E+00 -0.00000000000E+00 -0.52752494607E+03  0.52752494607E+03  0.00000000000E+00 0. -1.
         -6    2    1    2    0  503  0.30628713696E+02 -0.69995847046E+02 -0.36162164233E+03  0.40769408541E+03  0.17206602911E+03 0.  0.
        -24    2    3    3    0    0  0.11255577289E+02 -0.42003885749E+02 -0.36191817941E+03  0.37332773201E+03  0.80609009811E+02 0.  0.
          6    2    1    2  501    0 -0.30628713696E+02  0.69995847046E+02 -0.80775601726E+02  0.20495856267E+03  0.17217949318E+03 0.  0.
         24    2    5    5    0    0 -0.40260858316E+02 -0.20119369270E+02 -0.18517113687E+02  0.94905213089E+02  0.81476317050E+02 0.  0.
          5    1    5    5  501    0  0.96321446195E+01  0.90115216315E+02 -0.62258488039E+02  0.11005334958E+03  0.47000000000E+01 0. -1.
        -13    1    6    6    0    0 -0.59176172392E+02  0.59548452748E+01 -0.19751373187E+02  0.62668942101E+02  0.00000000000E+00 0.  1.
         14    1    6    6    0    0  0.18915314077E+02 -0.26074214545E+02  0.12342594995E+01  0.32236270989E+02  0.00000000000E+00 0. -1.
         -5    1    3    3    0  503  0.19373136407E+02 -0.27991961297E+02  0.29653708634E+00  0.34366353396E+02  0.47000000000E+01 0.  1.
         11    1    4    4    0    0 -0.20445311008E+02 -0.36782257957E+02 -0.88140291477E+02  0.97671163730E+02  0.00000000000E+00 0. -1.
        -12    1    4    4    0    0  0.31700888297E+02 -0.52216277924E+01 -0.27377788793E+03  0.27565656828E+03  0.00000000000E+00 0.  1.
</event>
<event>
12    1  0.1623092E-001  0.1844311E+03  0.7818608E-02  0.1163704E+00
         21   -1    0    0  503  502  0.00000000000E+00  0.00000000000E+00  0.10557410600E+03  0.10557410600E+03  0.00000000000E+00 0.  1.
         21   -1    0    0  501  503 -0.00000000000E+00 -0.00000000000E+00 -0.34616244880E+03  0.34616244880E+03  0.00000000000E+00 0.  1.
          6    2    1    2  501    0  0.18929017179E+02 -0.62127913679E+02 -0.18099957641E+03  0.25840990003E+03  0.17261704557E+03 0.  0.
         24    2    3    3    0    0  0.29991072447E+02 -0.99371942561E+02 -0.15457019904E+03  0.21118608461E+03  0.99666285711E+02 0.  0.
         -6    2    1    2    0  502 -0.18929017179E+02  0.62127913679E+02 -0.59588766383E+02  0.19332665477E+03  0.17206449087E+03 0.  0.
        -24    2    5    5    0    0  0.37296375012E+02  0.69050351796E+02 -0.73717154469E+02  0.13475263130E+03  0.81025194269E+02 0.  0.
          5    1    3    3  501    0 -0.11062055268E+02  0.37244028882E+02 -0.26429377369E+02  0.47223815414E+02  0.47000000000E+01 0. -1.
        -13    1    4    4    0    0  0.24152479656E+02 -0.82464384055E+02 -0.16807930072E+03  0.18877067633E+03  0.00000000000E+00 0.  1.
         14    1    4    4    0    0  0.58385927910E+01 -0.16907558506E+02  0.13509101678E+02  0.22415408284E+02  0.00000000000E+00 0. -1.
         -5    1    5    5    0  502 -0.56225392190E+02 -0.69224381171E+01  0.14128388086E+02  0.58574023478E+02  0.47000000000E+01 0.  1.
         11    1    6    6    0    0 -0.15885878440E+02  0.47532245443E+02 -0.54993437542E+02  0.74403989567E+02  0.00000000000E+00 0. -1.
        -12    1    6    6    0    0  0.53182253452E+02  0.21518106352E+02 -0.18723716927E+02  0.60348641731E+02  0.00000000000E+00 0.  1.
</event>
<event>
12    1  0.1623092E-001  0.1805919E+03  0.7818608E-02  0.1168379E+00
         21   -1    0    0  501  502  0.00000000000E+00  0.00000000000E+00  0.54912454429E+03  0.54912454429E+03  0.00000000000E+00 0. -1.
         21   -1    0    0  502  503 -0.00000000000E+00 -0.00000000000E+00 -0.93552475243E+02  0.93552475243E+02  0.00000000000E+00 0. -1.
         -6    2    1    2    0  503 -0.41915296661E+02 -0.40475972403E+02  0.27448426317E+02  0.17802308700E+03  0.16596266737E+03 0.  0.
        -24    2    3    3    0    0 -0.29272939920E+02  0.39494979664E+02  0.69958357410E+01  0.94383498167E+02  0.80265463172E+02 0.  0.
          6    2    1    2  501    0  0.41915296661E+02  0.40475972403E+02  0.42812364273E+03  0.46465393254E+03  0.17093339966E+03 0.  0.
         24    2    5    5    0    0 -0.41515923589E+02  0.13223572433E+02  0.24990768142E+03  0.26594187784E+03  0.79829808816E+02 0.  0.
          5    1    5    5  501    0  0.83431220250E+02  0.27252399970E+02  0.17821596131E+03  0.19871205470E+03  0.47000000000E+01 0. -1.
        -11    1    6    6    0    0 -0.59491367904E+00  0.35842724389E+02  0.16657163636E+03  0.17038534225E+03  0.00000000000E+00 0.  1.
         12    1    6    6    0    0 -0.40921009910E+02 -0.22619151956E+02  0.83336045062E+02  0.95556535589E+02  0.00000000000E+00 0. -1.
         -5    1    3    3    0  503 -0.12642356742E+02 -0.79970952067E+02  0.20452590576E+02  0.83639588831E+02  0.47000000000E+01 0.  1.
         11    1    4    4    0    0 -0.27102611377E+02  0.59830494344E+02 -0.11650436978E+02  0.66708112540E+02  0.00000000000E+00 0. -1.
        -12    1    4    4    0    0 -0.21703285424E+01 -0.20335514679E+02  0.18646272719E+02  0.27675385627E+02  0.00000000000E+00 0.  1.
</event>
<event>
12    1  0.1623092E-001  0.1795056E+03  0.7818608E-02  0.1169892E+00
         21   -1    0    0  503  502  0.00000000000E+00  0.00000000000E+00  0.80255862969E+03  0.80255862969E+03  0.00000000000E+00 0. -1.
         21   -1    0    0  501  503 -0.00000000000E+00 -0.00000000000E+00 -0.62391796001E+02  0.62391796001E+02  0.00000000000E+00 0. -1.
          6    2    1    2  501    0 -0.40495797946E+02 -0.15342461549E+02  0.10789458150E+03  0.20943617663E+03  0.17420381909E+03 0.  0.
         24    2    3    3    0    0  0.36297243200E+02 -0.42100990913E+01  0.10113542307E+03  0.13140492080E+03  0.75522609955E+02 0.  0.
         -6    2    1    2    0  502  0.40495797946E+02  0.15342461549E+02  0.63227225218E+03  0.65551424906E+03  0.16749754942E+03 0.  0.
        -24    2    5    5    0    0  0.83452017144E+02 -0.82322907621E+01  0.53298105773E+03  0.54469079933E+03  0.74747904308E+02 0.  0.
          5    1    3    3  501    0 -0.76793041146E+02 -0.11132362457E+02  0.67591584348E+01  0.78031255822E+02  0.47000000000E+01 0. -1.
        -13    1    4    4    0    0  0.26732553350E+02  0.18622157277E+02  0.10154860794E+03  0.10664677175E+03  0.00000000000E+00 0.  1.
         14    1    4    4    0    0  0.95646898503E+01 -0.22832256369E+02 -0.41318487370E+00  0.24758149053E+02  0.00000000000E+00 0. -1.
         -5    1    5    5    0  502 -0.42956219197E+02  0.23574752311E+02  0.99291194452E+02  0.11082344973E+03  0.47000000000E+01 0.  1.
         13    1    6    6    0    0  0.56399677204E+02  0.31214263679E+02  0.29850525589E+03  0.30538605344E+03  0.00000000000E+00 0. -1.
        -14    1    6    6    0    0  0.27052339940E+02 -0.39446554441E+02  0.23447580184E+03  0.23930474589E+03  0.00000000000E+00 0.  1.
</event>
<event>
12    1  0.1623092E-001  0.2313565E+03  0.7818608E-02  0.1126021E+00
         21   -1    0    0  501  502  0.00000000000E+00  0.00000000000E+00  0.39319723340E+03  0.39319723340E+03  0.00000000000E+00 0. -1.
         21   -1    0    0  502  503 -0.00000000000E+00 -0.00000000000E+00 -0.24834746554E+03  0.24834746554E+03  0.00000000000E+00 0.  1.
         -6    2    1    2    0  503 -0.44700175923E+01  0.15381716032E+03  0.28927515749E+03  0.37041318341E+03  0.17276026695E+03 0.  0.
        -24    2    3    3    0    0 -0.66681246511E+02  0.73006658616E+02  0.13263897119E+03  0.18344377669E+03  0.79260088892E+02 0.  0.
          6    2    1    2  501    0  0.44700175923E+01 -0.15381716032E+03 -0.14442538963E+03  0.27113151553E+03  0.17021723085E+03 0.  0.
         24    2    5    5    0    0  0.36947435350E+02 -0.19349677191E+02 -0.42046956158E+02  0.98969614048E+02  0.79293852197E+02 0.  0.
          5    1    5    5  501    0 -0.32477417758E+02 -0.13446748312E+03 -0.10237843347E+03  0.17216190148E+03  0.47000000000E+01 0. -1.
        -11    1    6    6    0    0  0.53375371192E+02 -0.11184196651E+02 -0.54260926136E+02  0.76930258089E+02  0.00000000000E+00 0.  1.
         12    1    6    6    0    0 -0.16427935841E+02 -0.81654805404E+01  0.12213969977E+02  0.22039355959E+02  0.00000000000E+00 0. -1.
         -5    1    3    3    0  503  0.62211228919E+02  0.80810501699E+02  0.15663618630E+03  0.18696940672E+03  0.47000000000E+01 0.  1.
         11    1    4    4    0    0  0.71794165834E+01  0.54734538604E+01  0.57735669035E+02  0.58437232982E+02  0.00000000000E+00 0. -1.
        -12    1    4    4    0    0 -0.73860663094E+02  0.67533204756E+02  0.74903302154E+02  0.12500654371E+03  0.00000000000E+00 0.  1.
</event>
<event>
12    1  0.1623092E-001  0.2517171E+03  0.7818608E-02  0.1112248E+00
         21   -1    0    0  503  502  0.00000000000E+00  0.00000000000E+00  0.66479236983E+02  0.66479236983E+02  0.00000000000E+00 0. -1.
         21   -1    0    0  501  503 -0.00000000000E+00 -0.00000000000E+00 -0.96811708547E+03  0.96811708547E+03  0.00000000000E+00 0. -1.
          6    2    1    2  501    0 -0.16101187638E+03  0.89081945971E+02 -0.38503668400E+03  0.45993272877E+03  0.17153556348E+03 0.  0.
         24    2    3    3    0    0 -0.84188754077E+02  0.37210898770E+01 -0.28233780501E+03  0.30579831464E+03  0.81831413755E+02 0.  0.
         -6    2    1    2    0  502  0.16101187638E+03 -0.89081945971E+02 -0.51660116449E+03  0.57466359369E+03  0.17175874162E+03 0.  0.
        -24    2    5    5    0    0  0.16323574232E+03 -0.68086181855E+02 -0.30236595264E+03  0.35933922514E+03  0.80111632633E+02 0.  0.
          5    1    3    3  501    0 -0.76823122299E+02  0.85360856094E+02 -0.10269887899E+03  0.15413441413E+03  0.47000000000E+01 0. -1.
        -11    1    4    4    0    0 -0.21626254802E+02 -0.36676750550E+02 -0.90614916450E+02  0.10011963849E+03  0.00000000000E+00 0.  1.
         12    1    4    4    0    0 -0.62562499275E+02  0.40397840427E+02 -0.19172288856E+03  0.20567867615E+03  0.00000000000E+00 0. -1.
         -5    1    5    5    0  502 -0.22238659397E+01 -0.20995764116E+02 -0.21423521185E+03  0.21532436854E+03  0.47000000000E+01 0.  1.
         11    1    6    6    0    0  0.12079781430E+03 -0.36992221768E+02 -0.26859514330E+03  0.29682299004E+03  0.00000000000E+00 0. -1.
        -12    1    6    6    0    0  0.42437928018E+02 -0.31093960087E+02 -0.33770809335E+02  0.62516235103E+02  0.00000000000E+00 0.  1.
</event>
<event>
12    1  0.1623092E-001  0.2402345E+03  0.7818608E-02  0.1119783E+00
         21   -1    0    0  501  502  0.00000000000E+00  0.00000000000E+00  0.40304523694E+03  0.40304523694E+03  0.00000000000E+00 0. -1.
         21   -1    0    0  502  503 -0.00000000000E+00 -0.00000000000E+00 -0.14318755301E+03  0.14318755301E+03  0.00000000000E+00 0. -1.
         -6    2    1    2    0  503  0.12868646702E+03  0.10635456270E+03  0.14659452939E+03  0.28142950218E+03  0.17274579257E+03 0.  0.
        -24    2    3    3    0    0  0.81239720279E+02  0.14155177608E+03  0.10933028367E+03  0.21142413371E+03  0.78168126004E+02 0.  0.
          6    2    1    2  501    0 -0.12868646702E+03 -0.10635456270E+03  0.11326315455E+03  0.26480328777E+03  0.17152474816E+03 0.  0.
         24    2    5    5    0    0 -0.14169237063E+02 -0.74000345397E+02  0.71790524203E+02  0.13869595094E+03  0.91683526561E+02 0.  0.
          5    1    5    5  501    0 -0.11451722996E+03 -0.32354217302E+02  0.41472630344E+02  0.12610733683E+03  0.47000000000E+01 0. -1.
        -13    1    6    6    0    0  0.13282691820E+02  0.92929345247E+01  0.43694787014E+02  0.46604966970E+02  0.00000000000E+00 0.  1.
         14    1    6    6    0    0 -0.27451928883E+02 -0.83293279922E+02  0.28095737189E+02  0.92090983965E+02  0.00000000000E+00 0. -1.
         -5    1    3    3    0  503  0.47446746743E+02 -0.35197213384E+02  0.37264245718E+02  0.70005368476E+02  0.47000000000E+01 0.  1.
         13    1    4    4    0    0  0.87497047452E+02  0.10161178158E+03  0.10587153936E+03  0.17084926197E+03  0.00000000000E+00 0. -1.
        -14    1    4    4    0    0 -0.62573271724E+01  0.39939994503E+02  0.34587443070E+01  0.40574871737E+02  0.00000000000E+00 0.  1.
</event>
<event>
12    1  0.1623092E-001  0.1875173E+03  0.7818608E-02  0.1163363E+00
         21   -1    0    0  503  502  0.00000000000E+00  0.00000000000E+00  0.57432975421E+02  0.57432975421E+02  0.00000000000E+00 0. -1.
         21   -1    0    0  501  503 -0.00000000000E+00 -0.00000000000E+00 -0.21008186132E+04  0.21008186132E+04  0.00000000000E+00 0. -1.
          6    2    1    2  501    0  0.23364074276E+02  0.33587154444E+02 -0.19322351130E+04  0.19402672046E+04  0.17155266305E+03 0.  0.
         24    2    3    3    0    0 -0.13922725719E+02 -0.35395913559E+02 -0.13323507277E+04  0.13352611427E+04  0.79480467057E+02 0.  0.
         -6    2    1    2    0  502 -0.23364074276E+02 -0.33587154444E+02 -0.11115052472E+03  0.21798438402E+03  0.18299938694E+03 0.  0.
        -24    2    5    5    0    0 -0.87137345289E+01  0.49236245266E+02 -0.92623774022E+02  0.13173081316E+03  0.79206733328E+02 0.  0.
          5    1    3    3  501    0  0.37286799995E+02  0.68983068003E+02 -0.59988438534E+03  0.60500606187E+03  0.47000000000E+01 0. -1.
        -13    1    4    4    0    0  0.16403428668E+02 -0.41087664028E+02 -0.10976015828E+04  0.10984928326E+04  0.00000000000E+00 0.  1.
         14    1    4    4    0    0 -0.30326154387E+02  0.56917504693E+01 -0.23474914486E+03  0.23676831012E+03  0.00000000000E+00 0. -1.
         -5    1    5    5    0  502 -0.14650339747E+02 -0.82823399711E+02 -0.18526750695E+02  0.86253570858E+02  0.47000000000E+01 0.  1.
         13    1    6    6    0    0 -0.19110575138E+02 -0.12830983088E+02 -0.45178583306E+01  0.23457605440E+02  0.00000000000E+00 0. -1.
        -14    1    6    6    0    0  0.10396840609E+02  0.62067228354E+02 -0.88105915692E+02  0.10827320772E+03  0.00000000000E+00 0.  1.
</event>
<event>
12    1  0.1623092E-001  0.1865806E+03  0.7818608E-02  0.1161790E+00
         21   -1    0    0  503  502  0.00000000000E+00  0.00000000000E+00  0.43207546810E+03  0.43207546810E+03  0.00000000000E+00 0. -1.
         21   -1    0    0  501  503 -0.00000000000E+00 -0.00000000000E+00 -0.12840773746E+03  0.12840773746E+03  0.00000000000E+00 0. -1.
          6    2    1    2  501    0  0.57516566425E+02 -0.41759728989E+02 -0.19679045114E+02  0.18761551397E+03  0.17251169783E+03 0.  0.
         24    2    3    3    0    0  0.82729849120E+02 -0.22778464839E+02 -0.63423828427E+02  0.13347039342E+03  0.80179034108E+02 0.  0.
         -6    2    1    2    0  502 -0.57516566425E+02  0.41759728989E+02  0.32334677575E+03  0.37286769159E+03  0.17153759839E+03 0.  0.
        -24    2    5    5    0    0 -0.29661363053E+01  0.93998029043E+01  0.29036726699E+03  0.30122516064E+03  0.79537999753E+02 0.  0.
          5    1    3    3  501    0 -0.25213282696E+02 -0.18981264150E+02  0.43744783313E+02  0.54145120557E+02  0.47000000000E+01 0. -1.
        -13    1    4    4    0    0  0.62462706109E+02 -0.43485135235E+02 -0.15810037969E+02  0.77733544506E+02  0.00000000000E+00 0.  1.
         14    1    4    4    0    0  0.20267143011E+02  0.20706670396E+02 -0.47613790458E+02  0.55736848911E+02  0.00000000000E+00 0. -1.
         -5    1    5    5    0  502 -0.54550430119E+02  0.32359926084E+02  0.32979508762E+02  0.71642530948E+02  0.47000000000E+01 0.  1.
         13    1    6    6    0    0 -0.38232990318E+02  0.74576115434E+01  0.20781531943E+03  0.21143458683E+03  0.00000000000E+00 0. -1.
        -14    1    6    6    0    0  0.35266854012E+02  0.19421913609E+01  0.82551947561E+02  0.89790573811E+02  0.00000000000E+00 0.  1.
</event>
<event>
12    1  0.1623092E-001  0.2399990E+03  0.7818608E-02  0.1119946E+00
         21   -1    0    0  501  502  0.00000000000E+00  0.00000000000E+00  0.24680799373E+04  0.24680799373E+04  0.00000000000E+00 0. -1.
         21   -1    0    0  502  503 -0.00000000000E+00 -0.00000000000E+00 -0.23882596058E+02  0.23882596058E+02  0.00000000000E+00 0. -1.
         -6    2    1    2    0  503 -0.84666138479E+02  0.14489205895E+03  0.14272579246E+04  0.14472956504E+04  0.17157346087E+03 0.  0.
        -24    2    3    3    0    0 -0.58903734627E+02  0.15449887130E+03  0.13822781086E+04  0.13943686616E+04  0.78940760489E+02 0.  0.
          6    2    1    2  501    0  0.84666138479E+02 -0.14489205895E+03  0.10169394166E+04  0.10446668829E+04  0.17029696284E+03 0.  0.
         24    2    5    5    0    0  0.34034735329E+02 -0.78266670389E+02  0.26856698339E+03  0.29161584207E+03  0.75016930602E+02 0.  0.
          5    1    5    5  501    0  0.50631403150E+02 -0.66625388558E+02  0.74837243320E+03  0.75305104087E+03  0.47000000000E+01 0. -1.
        -11    1    6    6    0    0 -0.22795597138E+02 -0.12733150498E+02  0.48737153084E+02  0.55290889496E+02  0.00000000000E+00 0.  1.
         12    1    6    6    0    0  0.56830332466E+02 -0.65533519891E+02  0.21982983030E+03  0.23632495257E+03  0.00000000000E+00 0. -1.
         -5    1    3    3    0  503 -0.25762403852E+02 -0.96068123538E+01  0.44979816039E+02  0.52926988831E+02  0.47000000000E+01 0.  1.
         11    1    4    4    0    0 -0.51135352616E+02  0.10063656497E+03  0.62309849434E+03  0.63324108849E+03  0.00000000000E+00 0. -1.
        -12    1    4    4    0    0 -0.77683820113E+01  0.53862306327E+02  0.75917961424E+03  0.76112757307E+03  0.00000000000E+00 0.  1.
</event>
<event>
12    1  0.1623092E-001  0.1986671E+03  0.7818608E-02  0.1153188E+00
         21   -1    0    0  503  502  0.00000000000E+00  0.00000000000E+00  0.55823497048E+03  0.55823497048E+03  0.00000000000E+00 0. -1.
         21   -1    0    0  501  503 -0.00000000000E+00 -0.00000000000E+00 -0.69889640932E+02  0.69889640932E+02  0.00000000000E+00 0.  1.
          6    2    1    2  501    0  0.76194007205E+02 -0.50489062402E+02  0.17377367961E+03  0.25607095542E+03  0.16437874050E+03 0.  0.
         24    2    3    3    0    0  0.27961742729E+02 -0.39881092684E+02  0.29027333260E+02  0.10305959918E+03  0.86060062145E+02 0.  0.
         -6    2    1    2    0  502 -0.76194007205E+02  0.50489062402E+02  0.31457164994E+03  0.37205365599E+03  0.17639140522E+03 0.  0.
        -24    2    5    5    0    0 -0.62796467431E+02  0.66308188595E+02  0.32699960810E+03  0.34743084198E+03  0.73751434320E+02 0.  0.
          5    1    3    3  501    0  0.48232264477E+02 -0.10607969718E+02  0.14474634635E+03  0.15301135625E+03  0.47000000000E+01 0. -1.
        -11    1    4    4    0    0  0.19545754926E+02 -0.45126185836E+02  0.55877959999E+02  0.74436251904E+02  0.00000000000E+00 0.  1.
         12    1    4    4    0    0  0.84159878024E+01  0.52450931521E+01 -0.26850626739E+02  0.28623347274E+02  0.00000000000E+00 0. -1.
         -5    1    5    5    0  502 -0.13397539774E+02 -0.15819126193E+02 -0.12427958165E+02  0.24622814008E+02  0.47000000000E+01 0.  1.
         13    1    6    6    0    0 -0.31606645087E+02  0.77318745292E+02  0.25136012932E+03  0.26487559910E+03  0.00000000000E+00 0. -1.
        -14    1    6    6    0    0 -0.31189822344E+02 -0.11010556697E+02  0.75639478789E+02  0.82555242887E+02  0.00000000000E+00 0.  1.
</event>
<event>
12    1  0.1623092E-001  0.2597474E+03  0.7818608E-02  0.1107347E+00
         21   -1    0    0  501  502  0.00000000000E+00  0.00000000000E+00  0.19728446431E+03  0.19728446431E+03  0.00000000000E+00 0. -1.
         21   -1    0    0  502  503 -0.00000000000E+00 -0.00000000000E+00 -0.11732498294E+04  0.11732498294E+04  0.00000000000E+00 0.  1.
         -6    2    1    2    0  503 -0.16849099232E+03 -0.98660814131E+02 -0.10648575303E+04  0.10959973225E+04  0.17077880563E+03 0.  0.
        -24    2    3    3    0    0 -0.14320591565E+03 -0.13227926510E+03 -0.96217084566E+03  0.98492896274E+03  0.79414023655E+02 0.  0.
          6    2    1    2  501    0  0.16849099232E+03  0.98660814131E+02  0.88892165203E+02  0.27453697116E+03  0.17130546040E+03 0.  0.
         24    2    5    5    0    0  0.14619470283E+03  0.94598753391E+02  0.98307832560E+01  0.19215725899E+03  0.80659485527E+02 0.  0.
          5    1    5    5  501    0  0.22296289491E+02  0.40620607400E+01  0.79061381947E+02  0.82379712174E+02  0.47000000000E+01 0. -1.
        -11    1    6    6    0    0  0.82598538006E+02  0.44030169445E+02 -0.34309312185E+02  0.99691038738E+02  0.00000000000E+00 0.  1.
         12    1    6    6    0    0  0.63596164820E+02  0.50568583947E+02  0.44140095441E+02  0.92466220252E+02  0.00000000000E+00 0. -1.
         -5    1    3    3    0  503 -0.25285076671E+02  0.33618450968E+02 -0.10268668463E+03  0.11106835980E+03  0.47000000000E+01 0.  1.
         13    1    4    4    0    0 -0.46564514486E+02 -0.19950849192E+02 -0.12728944232E+03  0.13699960773E+03  0.00000000000E+00 0. -1.
        -14    1    4    4    0    0 -0.96641401161E+02 -0.11232841591E+03 -0.83488140334E+03  0.84792935501E+03  0.00000000000E+00 0.  1.
</event>
<event>
12    1  0.1623092E-001  0.3063993E+03  0.7818608E-02  0.1082088E+00
         21   -1    0    0  503  502  0.00000000000E+00  0.00000000000E+00  0.45057596343E+03  0.45057596343E+03  0.00000000000E+00 0. -1.
         21   -1    0    0  501  503 -0.00000000000E+00 -0.00000000000E+00 -0.34333871794E+03  0.34333871794E+03  0.00000000000E+00 0. -1.
          6    2    1    2  501    0 -0.49783973606E+02  0.24782215731E+03 -0.19529640969E+03  0.36332538078E+03  0.17311955118E+03 0.  0.
         24    2    3    3    0    0 -0.35516777835E+02  0.17998654668E+03 -0.56831644613E+02  0.20840667916E+03  0.80912975435E+02 0.  0.
         -6    2    1    2    0  502  0.49783973606E+02 -0.24782215731E+03  0.30253365518E+03  0.43058930058E+03  0.17316543413E+03 0.  0.
        -24    2    5    5    0    0  0.92373998817E+02 -0.15250300465E+03  0.15397112958E+03  0.24895074431E+03  0.80493740527E+02 0.  0.
          5    1    3    3  501    0 -0.14267195771E+02  0.67835610627E+02 -0.13846476508E+03  0.15491870162E+03  0.47000000000E+01 0. -1.
        -11    1    4    4    0    0  0.21600217870E+02  0.32713906942E+02  0.34075430456E+01  0.39349465931E+02  0.00000000000E+00 0.  1.
         12    1    4    4    0    0 -0.57116995705E+02  0.14727263974E+03 -0.60239187659E+02  0.16905721323E+03  0.00000000000E+00 0. -1.
         -5    1    5    5    0  502 -0.42590025211E+02 -0.95319152658E+02  0.14856252560E+03  0.18163855627E+03  0.47000000000E+01 0.  1.
         13    1    6    6    0    0  0.92832100313E+02 -0.12798131645E+03  0.15865325652E+03  0.22398185644E+03  0.00000000000E+00 0. -1.
        -14    1    6    6    0    0 -0.45810149656E+00 -0.24521688201E+02 -0.46821269345E+01  0.24968887878E+02  0.00000000000E+00 0.  1.
</event>
<event>
12    1  0.1623092E-001  0.1832304E+03  0.7818608E-02  0.1164835E+00
         21   -1    0    0  503  502  0.00000000000E+00  0.00000000000E+00  0.10575161002E+04  0.10575161002E+04  0.00000000000E+00 0.  1.
         21   -1    0    0  501  503 -0.00000000000E+00 -0.00000000000E+00 -0.55774067470E+02  0.55774067470E+02  0.00000000000E+00 0.  1.
          6    2    1    2  501    0  0.49960163368E+02  0.32992155174E+02  0.13444401422E+03  0.22684827460E+03  0.17262805827E+03 0.  0.
         24    2    3    3    0    0  0.98069658125E+00 -0.40491357149E+02  0.57802261280E+02  0.10982322154E+03  0.84139924003E+02 0.  0.
         -6    2    1    2    0  502 -0.49960163368E+02 -0.32992155174E+02  0.86729801854E+03  0.88644189310E+03  0.17317296744E+03 0.  0.
        -24    2    5    5    0    0  0.29029748183E+02 -0.15835074135E+02  0.26823365653E+03  0.28193054384E+03  0.80262451994E+02 0.  0.
          5    1    3    3  501    0  0.48979466787E+02  0.73483512323E+02  0.76641752943E+02  0.11702505306E+03  0.47000000000E+01 0. -1.
        -13    1    4    4    0    0  0.41871373262E+02 -0.26360455569E+02  0.37212673536E+02  0.61910165468E+02  0.00000000000E+00 0.  1.
         14    1    4    4    0    0 -0.40890676680E+02 -0.14130901580E+02  0.20589587744E+02  0.47913056074E+02  0.00000000000E+00 0. -1.
         -5    1    5    5    0  502 -0.78989911550E+02 -0.17157081039E+02  0.59906436201E+03  0.60451134926E+03  0.47000000000E+01 0.  1.
         13    1    6    6    0    0  0.79302807887E+01 -0.35273835148E+02  0.49358924918E+02  0.61183627454E+02  0.00000000000E+00 0. -1.
        -14    1    6    6    0    0  0.21099467394E+02  0.19438761013E+02  0.21887473161E+03  0.22074691638E+03  0.00000000000E+00 0.  1.
</event>
<event>
12    1  0.1623092E-001  0.1790938E+03  0.7818608E-02  0.1168930E+00
         21   -1    0    0  501  502  0.00000000000E+00  0.00000000000E+00  0.58546395443E+03  0.58546395443E+03  0.00000000000E+00 0.  1.
         21   -1    0    0  502  503 -0.00000000000E+00 -0.00000000000E+00 -0.63874368635E+02  0.63874368635E+02  0.00000000000E+00 0.  1.
         -6    2    1    2    0  503 -0.41429820506E+02  0.18459899864E+02  0.13688449792E+03  0.22541506146E+03  0.17325526321E+03 0.  0.
        -24    2    3    3    0    0 -0.38849291447E+02  0.36971999088E+02  0.16828416880E+02  0.10382184806E+03  0.87290230599E+02 0.  0.
          6    2    1    2  501    0  0.41429820506E+02 -0.18459899864E+02  0.38470508787E+03  0.42392326160E+03  0.17220838879E+03 0.  0.
         24    2    5    5    0    0  0.11684302751E+02  0.45848329824E+02  0.13435075665E+03  0.16369312232E+03  0.80664243656E+02 0.  0.
          5    1    5    5  501    0  0.29745517755E+02 -0.64308229688E+02  0.25035433121E+03  0.26023013928E+03  0.47000000000E+01 0. -1.
        -13    1    6    6    0    0 -0.83602069388E+01 -0.11707824683E+02 -0.18242765369E+01  0.14501524187E+02  0.00000000000E+00 0.  1.
         14    1    6    6    0    0  0.20044509690E+02  0.57556154507E+02  0.13617503319E+03  0.14919159814E+03  0.00000000000E+00 0. -1.
         -5    1    3    3    0  503 -0.25805290590E+01 -0.18512099224E+02  0.12005608104E+03  0.12159321339E+03  0.47000000000E+01 0.  1.
         13    1    4    4    0    0 -0.36808865229E+02 -0.15239742819E+02 -0.15080391280E+02  0.42597658642E+02  0.00000000000E+00 0. -1.
        -14    1    4    4    0    0 -0.20404262184E+01  0.52211741906E+02  0.31908808160E+02  0.61224189421E+02  0.00000000000E+00 0.  1.
</event>
<event>
12    1  0.1623092E-001  0.1753060E+03  0.7818608E-02  0.1172578E+00
         21   -1    0    0  503  502  0.00000000000E+00  0.00000000000E+00  0.13935955530E+02  0.13935955530E+02  0.00000000000E+00 0. -1.
         21   -1    0    0  501  503 -0.00000000000E+00 -0.00000000000E+00 -0.24106418727E+04  0.24106418727E+04  0.00000000000E+00 0. -1.
          6    2    1    2  501    0  0.11131796698E+02 -0.28517180319E+02 -0.15606902411E+04  0.15705050800E+04  0.17261237287E+03 0.  0.
         24    2    3    3    0    0  0.32138636027E+02 -0.57322691622E+02 -0.14588998449E+04  0.14625494432E+04  0.79645045306E+02 0.  0.
         -6    2    1    2    0  502 -0.11131796698E+02  0.28517180319E+02 -0.83601567612E+03  0.85407274825E+03  0.17199099428E+03 0.  0.
        -24    2    5    5    0    0 -0.37099593694E+02  0.77576756831E+02 -0.51622482208E+03  0.52946614195E+03  0.80323069432E+02 0.  0.
          5    1    3    3  501    0 -0.21006839329E+02  0.28805511303E+02 -0.10179039614E+03  0.10795563685E+03  0.47000000000E+01 0. -1.
        -11    1    4    4    0    0  0.20930957042E+02  0.17644826889E+02 -0.36207125847E+03  0.36310472469E+03  0.00000000000E+00 0.  1.
         12    1    4    4    0    0  0.11207678985E+02 -0.74967518511E+02 -0.10968285865E+04  0.10994447185E+04  0.00000000000E+00 0. -1.
         -5    1    5    5    0  502  0.25967796996E+02 -0.49059576512E+02 -0.31979085404E+03  0.32460660630E+03  0.47000000000E+01 0.  1.
         13    1    6    6    0    0  0.23360338026E+02  0.32781937887E+02 -0.23109552654E+03  0.23457515477E+03  0.00000000000E+00 0. -1.
        -14    1    6    6    0    0 -0.60459931720E+02  0.44794818944E+02 -0.28512929553E+03  0.29489098718E+03  0.00000000000E+00 0.  1.
</event>
<event>
12    1  0.1623092E-001  0.1841737E+03  0.7818608E-02  0.1164138E+00
         21   -1    0    0  501  502  0.00000000000E+00  0.00000000000E+00  0.23288567599E+02  0.23288567599E+02  0.00000000000E+00 0.  1.
         21   -1    0    0  502  503 -0.00000000000E+00 -0.00000000000E+00 -0.24045733244E+04  0.24045733244E+04  0.00000000000E+00 0.  1.
         -6    2    1    2    0  503 -0.39640163422E+02  0.53644100197E+02 -0.19545005923E+04  0.19630343106E+04  0.17024132047E+03 0.  0.
        -24    2    3    3    0    0 -0.71254548207E+02  0.41967524328E+02 -0.18387100971E+04  0.18423473580E+04  0.80935051455E+02 0.  0.
          6    2    1    2  501    0  0.39640163422E+02 -0.53644100197E+02 -0.42678416456E+03  0.46482758147E+03  0.17167097989E+03 0.  0.
         24    2    5    5    0    0 -0.19845121009E+01  0.23554825908E+02 -0.30029399949E+03  0.31083362164E+03  0.76696063147E+02 0.  0.
          5    1    5    5  501    0  0.41624675523E+02 -0.77198926105E+02 -0.12649016506E+03  0.15399395982E+03  0.47000000000E+01 0. -1.
        -11    1    6    6    0    0  0.25617259433E+02 -0.11088962835E+02 -0.56172389950E+02  0.62725963288E+02  0.00000000000E+00 0.  1.
         12    1    6    6    0    0 -0.27601771534E+02  0.34643788743E+02 -0.24412160954E+03  0.24810765836E+03  0.00000000000E+00 0. -1.
         -5    1    3    3    0  503  0.31614384785E+02  0.11676575869E+02 -0.11579049516E+03  0.12068695256E+03  0.47000000000E+01 0.  1.
         11    1    4    4    0    0 -0.53931483029E+01 -0.10569749078E+02 -0.41486120940E+02  0.43149784180E+02  0.00000000000E+00 0. -1.
        -12    1    4    4    0    0 -0.65861399905E+02  0.52537273406E+02 -0.17972239762E+04  0.17991975738E+04  0.00000000000E+00 0.  1.
</event>
<event>
12    1  0.1623092E-001  0.2945826E+03  0.7818608E-02  0.1088151E+00
         21   -1    0    0  503  502  0.00000000000E+00  0.00000000000E+00  0.67373752584E+03  0.67373752584E+03  0.00000000000E+00 0.  1.
         21   -1    0    0  501  503 -0.00000000000E+00 -0.00000000000E+00 -0.24718549734E+03  0.24718549734E+03  0.00000000000E+00 0.  1.
          6    2    1    2  501    0  0.23488433581E+03 -0.30064226857E+02 -0.10641189788E+03  0.31196536275E+03  0.17298666596E+03 0.  0.
         24    2    3    3    0    0  0.12670655690E+03  0.53108148277E+02 -0.42334942829E+02  0.16114088860E+03  0.72794997208E+02 0.  0.
         -6    2    1    2    0  502 -0.23488433581E+03  0.30064226857E+02  0.53296392637E+03  0.60895766043E+03  0.17522664303E+03 0.  0.
        -24    2    5    5    0    0 -0.11263401918E+03 -0.86726617101E+01  0.16714264417E+03  0.22128126578E+03  0.90923581912E+02 0.  0.
          5    1    3    3  501    0  0.10817777891E+03 -0.83172375133E+02 -0.64076955046E+02  0.15082447415E+03  0.47000000000E+01 0. -1.
        -11    1    4    4    0    0  0.11376597148E+03  0.32990160778E+02 -0.58658732015E+02  0.13218129148E+03  0.00000000000E+00 0.  1.
         12    1    4    4    0    0  0.12940585424E+02  0.20117987499E+02  0.16323789186E+02  0.28959597123E+02  0.00000000000E+00 0. -1.
         -5    1    5    5    0  502 -0.12225031664E+03  0.38736888567E+02  0.36582128220E+03  0.38767639464E+03  0.47000000000E+01 0.  1.
         11    1    6    6    0    0 -0.11245101171E+03 -0.12919494302E+01  0.90681884550E+02  0.14446488623E+03  0.00000000000E+00 0. -1.
        -12    1    6    6    0    0 -0.18300746906E+00 -0.73807122800E+01  0.76460759624E+02  0.76816379554E+02  0.00000000000E+00 0.  1.
</event>
<event>
12    1  0.1623092E-001  0.1805456E+03  0.7818608E-02  0.1167703E+00
         21   -1    0    0  503  502  0.00000000000E+00  0.00000000000E+00  0.63810902960E+03  0.63810902960E+03  0.00000000000E+00 0. -1.
         21   -1    0    0  501  503 -0.00000000000E+00 -0.00000000000E+00 -0.40024475270E+03  0.40024475270E+03  0.00000000000E+00 0. -1.
          6    2    1    2  501    0  0.31340015422E+02 -0.42705125664E+02 -0.36625353182E+03  0.40833609302E+03  0.17260008971E+03 0.  0.
         24    2    3    3    0    0  0.52296256122E+02  0.29377198618E+01 -0.33877296775E+03  0.35089303623E+03  0.74935109206E+02 0.  0.
         -6    2    1    2    0  502 -0.31340015422E+02  0.42705125664E+02  0.60411780871E+03  0.63001768928E+03  0.17075724781E+03 0.  0.
        -24    2    5    5    0    0 -0.22490988952E+02 -0.40078021708E+02  0.38839438808E+03  0.39873855281E+03  0.77653978626E+02 0.  0.
          5    1    3    3  501    0 -0.20956240700E+02 -0.45642845526E+02 -0.27480564065E+02  0.57443056789E+02  0.47000000000E+01 0. -1.
        -13    1    4    4    0    0 -0.17385093322E+02  0.52656174157E+01 -0.11750426540E+03  0.11890004451E+03  0.00000000000E+00 0.  1.
         14    1    4    4    0    0  0.69681349443E+02 -0.23278975538E+01 -0.22126870235E+03  0.23199299172E+03  0.00000000000E+00 0. -1.
         -5    1    5    5    0  502 -0.88490264699E+01  0.82783147372E+02  0.21572342063E+03  0.23127913648E+03  0.47000000000E+01 0.  1.
         13    1    6    6    0    0 -0.27290239949E+01 -0.56752698362E+02  0.33027794537E+03  0.33512958321E+03  0.00000000000E+00 0. -1.
        -14    1    6    6    0    0 -0.19761964957E+02  0.16674676654E+02  0.58116442709E+02  0.63608969601E+02  0.00000000000E+00 0.  1.
</event>
<event>
12    1  0.1623092E-001  0.1802895E+03  0.7818608E-02  0.1167775E+00
         21   -1    0    0  501  502  0.00000000000E+00  0.00000000000E+00  0.44499753370E+03  0.44499753370E+03  0.00000000000E+00 0.  1.
         21   -1    0    0  502  503 -0.00000000000E+00 -0.00000000000E+00 -0.10176934456E+03  0.10176934456E+03  0.00000000000E+00 0.  1.
         -6    2    1    2    0  503 -0.52771928786E+02 -0.14955530105E+02  0.25664515287E+02  0.18210703589E+03  0.17174329922E+03 0.  0.
        -24    2    3    3    0    0 -0.73682065769E+02 -0.58786528158E+02  0.44832514696E+02  0.12968669232E+03  0.76966103461E+02 0.  0.
          6    2    1    2  501    0  0.52771928786E+02  0.14955530105E+02  0.31756367385E+03  0.36465984236E+03  0.17065043023E+03 0.  0.
         24    2    5    5    0    0  0.52276080870E+02  0.69645407789E+02  0.15587998021E+03  0.19391167876E+03  0.75630017000E+02 0.  0.
          5    1    5    5  501    0  0.49584791558E+00 -0.54689877684E+02  0.16168369364E+03  0.17074816361E+03  0.47000000000E+01 0. -1.
        -13    1    6    6    0    0  0.23886138763E+02  0.43108153479E+02  0.14559822656E+03  0.15371305767E+03  0.00000000000E+00 0.  1.
         14    1    6    6    0    0  0.28389942107E+02  0.26537254310E+02  0.10281753650E+02  0.40198621087E+02  0.00000000000E+00 0. -1.
         -5    1    3    3    0  503  0.20910136983E+02  0.43830998053E+02 -0.19167999409E+02  0.52420343574E+02  0.47000000000E+01 0.  1.
         11    1    4    4    0    0  0.34646635684E+01  0.12384219480E+02  0.16592865288E+02  0.20992759805E+02  0.00000000000E+00 0. -1.
        -12    1    4    4    0    0 -0.77146729337E+02 -0.71170747638E+02  0.28239649408E+02  0.10869393251E+03  0.00000000000E+00 0.  1.
</event>
<event>
12    1  0.1623092E-001  0.2003409E+03  0.7818608E-02  0.1149529E+00
         21   -1    0    0  503  502  0.00000000000E+00  0.00000000000E+00  0.10126325378E+04  0.10126325378E+04  0.00000000000E+00 0.  1.
         21   -1    0    0  501  503 -0.00000000000E+00 -0.00000000000E+00 -0.40430555994E+02  0.40430555994E+02  0.00000000000E+00 0.  1.
          6    2    1    2  501    0  0.84827010003E+01  0.10269413646E+03  0.40856093823E+03  0.45487608072E+03  0.17138309917E+03 0.  0.
         24    2    3    3    0    0  0.79991369734E+00  0.87353702906E+02  0.13484286606E+03  0.18058057008E+03  0.82434425394E+02 0.  0.
         -6    2    1    2    0  502 -0.84827010003E+01 -0.10269413646E+03  0.56364104352E+03  0.59818701302E+03  0.17180929756E+03 0.  0.
        -24    2    5    5    0    0  0.52926430559E+02 -0.24532417528E+02  0.25061810916E+03  0.26972729985E+03  0.80872325808E+02 0.  0.
          5    1    3    3  501    0  0.76827873030E+01  0.15340433551E+02  0.27371807217E+03  0.27429551064E+03  0.47000000000E+01 0. -1.
        -13    1    4    4    0    0  0.18804384631E+02 -0.93701871692E+01  0.16716228586E+02  0.26848418707E+02  0.00000000000E+00 0.  1.
         14    1    4    4    0    0 -0.18004470934E+02  0.96723890076E+02  0.11812663747E+03  0.15373215137E+03  0.00000000000E+00 0. -1.
         -5    1    5    5    0  502 -0.61409131559E+02 -0.78161718929E+02  0.31302293436E+03  0.32845971318E+03  0.47000000000E+01 0.  1.
         13    1    6    6    0    0  0.46179617525E+02 -0.37284633622E+02  0.24807699015E+03  0.25507821157E+03  0.00000000000E+00 0. -1.
        -14    1    6    6    0    0  0.67468130341E+01  0.12752216094E+02  0.25411190154E+01  0.14649088274E+02  0.00000000000E+00 0.  1.
</event>
<event>
12    1  0.1623092E-001  0.1812785E+03  0.7818608E-02  0.1167285E+00
         21   -1    0    0  503  502  0.00000000000E+00  0.00000000000E+00  0.95139624444E+02  0.95139624444E+02  0.00000000000E+00 0. -1.
         21   -1    0    0  501  503 -0.00000000000E+00 -0.00000000000E+00 -0.34821273557E+03  0.34821273557E+03  0.00000000000E+00 0. -1.
          6    2    1    2  501    0 -0.50321282686E+01  0.51465230538E+02 -0.16198279318E+03  0.24310555101E+03  0.17374662983E+03 0.  0.
         24    2    3    3    0    0 -0.70567448384E+02  0.19659084921E+02 -0.10332886259E+03  0.14946323870E+03  0.79348355284E+02 0.  0.
         -6    2    1    2    0  502  0.50321282686E+01 -0.51465230538E+02 -0.91090317946E+02  0.20024680900E+03  0.17066735547E+03 0.  0.
        -24    2    5    5    0    0 -0.47809162336E+02 -0.61410387791E+02 -0.26205381442E+02  0.11584744212E+03  0.81712643432E+02 0.  0.
          5    1    3    3  501    0  0.65535320116E+02  0.31806145617E+02 -0.58653930590E+02  0.93642312313E+02  0.47000000000E+01 0. -1.
        -13    1    4    4    0    0 -0.27866338289E+02 -0.66539032966E+01  0.59160851016E+01  0.29254184344E+02  0.00000000000E+00 0.  1.
         14    1    4    4    0    0 -0.42701110095E+02  0.26312988218E+02 -0.10924494769E+03  0.12020905435E+03  0.00000000000E+00 0. -1.
         -5    1    5    5    0  502  0.52841290605E+02  0.99451572528E+01 -0.64884936504E+02  0.84399366885E+02  0.47000000000E+01 0.  1.
         13    1    6    6    0    0 -0.44769149133E+02 -0.34145438462E+02 -0.53125749100E+02  0.77411451991E+02  0.00000000000E+00 0. -1.
        -14    1    6    6    0    0 -0.30400132035E+01 -0.27264949329E+02  0.26920367658E+02  0.38435990127E+02  0.00000000000E+00 0.  1.
</event>
<event>
12    1  0.1623092E-001  0.2255074E+03  0.7818608E-02  0.1131664E+00
         21   -1    0    0  503  502  0.00000000000E+00  0.00000000000E+00  0.62383717643E+03  0.62383717643E+03  0.00000000000E+00 0.  1.
         21   -1    0    0  501  503 -0.00000000000E+00 -0.00000000000E+00 -0.61308488436E+03  0.61308488436E+03  0.00000000000E+00 0.  1.
          6    2    1    2  501    0  0.53373839574E+02  0.13463739230E+03 -0.57240473466E+03  0.61168154022E+03  0.15978464327E+03 0.  0.
         24    2    3    3    0    0  0.88844191076E+02  0.11425758289E+03 -0.37630792453E+03  0.41130806041E+03  0.81354661560E+02 0.  0.
         -6    2    1    2    0  502 -0.53373839574E+02 -0.13463739230E+03  0.58315702673E+03  0.62524052057E+03  0.17285137138E+03 0.  0.
        -24    2    5    5    0    0 -0.96627250772E+02 -0.10148434491E+03  0.34041804537E+03  0.37641470760E+03  0.78534633324E+02 0.  0.
          5    1    3    3  501    0 -0.35470351502E+02  0.20379809413E+02 -0.19609681014E+03  0.20037347981E+03  0.47000000000E+01 0. -1.
        -13    1    4    4    0    0  0.64609904645E+02  0.45633039155E+02 -0.27773555814E+03  0.28877994096E+03  0.00000000000E+00 0.  1.
         14    1    4    4    0    0  0.24234286431E+02  0.68624543737E+02 -0.98572366382E+02  0.12252811945E+03  0.00000000000E+00 0. -1.
         -5    1    5    5    0  502  0.43253411198E+02 -0.33153047397E+02  0.24273898135E+03  0.24882581297E+03  0.47000000000E+01 0.  1.
         11    1    6    6    0    0 -0.62037188683E+02 -0.13983910781E+02  0.17375173526E+03  0.18502385804E+03  0.00000000000E+00 0. -1.
        -12    1    6    6    0    0 -0.34590062089E+02 -0.87500434126E+02  0.16666631012E+03  0.19139084956E+03  0.00000000000E+00 0.  1.
</event>
<event>
12    1  0.1623092E-001  0.1744880E+03  0.7818608E-02  0.1173295E+00
         21   -1    0    0  501  502  0.00000000000E+00  0.00000000000E+00  0.29912643975E+02  0.29912643975E+02  0.00000000000E+00 0.  1.
         21   -1    0    0  502  503 -0.00000000000E+00 -0.00000000000E+00 -0.14241217376E+04  0.14241217376E+04  0.00000000000E+00 0.  1.
         -6    2    1    2    0  503 -0.31230316979E+02 -0.10893548265E+01 -0.30852811354E+03  0.35445120471E+03  0.17166694579E+03 0.  0.
        -24    2    3    3    0    0 -0.61176628190E+02 -0.39731726274E+02 -0.12825368068E+03  0.16760641465E+03  0.79509205220E+02 0.  0.
          6    2    1    2  501    0  0.31230316979E+02  0.10893548265E+01 -0.10856809801E+04  0.10995831769E+04  0.17147435070E+03 0.  0.
         24    2    5    5    0    0  0.36551002824E+02 -0.44465575126E+02 -0.38363995699E+03  0.39602987438E+03  0.79667318410E+02 0.  0.
          5    1    5    5  501    0 -0.53206858449E+01  0.45554929952E+02 -0.70204102310E+03  0.70355330250E+03  0.47000000000E+01 0. -1.
        -11    1    6    6    0    0 -0.81563533309E+01  0.27617001688E+01 -0.21669087238E+03  0.21686190827E+03  0.00000000000E+00 0.  1.
         12    1    6    6    0    0  0.44707356155E+02 -0.47227275294E+02 -0.16694908461E+03  0.17916796611E+03  0.00000000000E+00 0. -1.
         -5    1    3    3    0  503  0.29946311211E+02  0.38642371448E+02 -0.18027443286E+03  0.18684479005E+03  0.47000000000E+01 0.  1.
         11    1    4    4    0    0 -0.15589396085E+02  0.20751309823E+02 -0.61098759937E+02  0.66383014360E+02  0.00000000000E+00 0. -1.
        -12    1    4    4    0    0 -0.45587232105E+02 -0.60483036097E+02 -0.67154920744E+02  0.10122340029E+03  0.00000000000E+00 0.  1.
</event>
<event>
12    1  0.1623092E-001  0.2093364E+03  0.7818608E-02  0.1142429E+00
         21   -1    0    0  503  502  0.00000000000E+00  0.00000000000E+00  0.13057083604E+03  0.13057083604E+03  0.00000000000E+00 0. -1.
         21   -1    0    0  501  503 -0.00000000000E+00 -0.00000000000E+00 -0.37653034181E+03  0.37653034181E+03  0.00000000000E+00 0. -1.
          6    2    1    2  501    0  0.54870746991E+00  0.11729359600E+03 -0.20883228415E+03  0.29449788171E+03  0.17134757275E+03 0.  0.
         24    2    3    3    0    0 -0.22461593828E+02  0.74986364277E+01 -0.13666626750E+03  0.16102716930E+03  0.81800536880E+02 0.  0.
         -6    2    1    2    0  502 -0.54870746991E+00 -0.11729359600E+03 -0.37127221630E+02  0.21260329614E+03  0.17338870263E+03 0.  0.
        -24    2    5    5    0    0 -0.25278437421E+02 -0.59426141836E+02  0.42415981448E+02  0.11106801680E+03  0.79790495305E+02 0.  0.
          5    1    3    3  501    0  0.23010301298E+02  0.10979495957E+03 -0.72166016645E+02  0.13347071241E+03  0.47000000000E+01 0. -1.
        -11    1    4    4    0    0  0.24963020331E+02  0.13163938869E+02 -0.89728514652E+02  0.94061937107E+02  0.00000000000E+00 0.  1.
         12    1    4    4    0    0 -0.47424614159E+02 -0.56653024418E+01 -0.46937752849E+02  0.66965232192E+02  0.00000000000E+00 0. -1.
         -5    1    5    5    0  502  0.24729729951E+02 -0.57867454167E+02 -0.79543203078E+02  0.10153527934E+03  0.47000000000E+01 0.  1.
         13    1    6    6    0    0 -0.15301873364E+02 -0.79102834124E+02  0.34176406350E+02  0.87518183515E+02  0.00000000000E+00 0. -1.
        -14    1    6    6    0    0 -0.99765640573E+01  0.19676692288E+02  0.82395750984E+01  0.23549833281E+02  0.00000000000E+00 0.  1.
</event>
<event>
12    1  0.1623092E-001  0.2400029E+03  0.7818608E-02  0.1120533E+00
         21   -1    0    0  503  502  0.00000000000E+00  0.00000000000E+00  0.37489084394E+03  0.37489084394E+03  0.00000000000E+00 0.  1.
         21   -1    0    0  501  503 -0.00000000000E+00 -0.00000000000E+00 -0.22657258198E+03  0.22657258198E+03  0.00000000000E+00 0.  1.
          6    2    1    2  501    0  0.16283468827E+03  0.35078788349E+02 -0.10016358009E+03  0.25600051357E+03  0.16660691185E+03 0.  0.
         24    2    3    3    0    0  0.62626662823E+02 -0.31388142859E+02 -0.81674436857E+02  0.13424896440E+03  0.80279240139E+02 0.  0.
         -6    2    1    2    0  502 -0.16283468827E+03 -0.35078788349E+02  0.24848184205E+03  0.34546291235E+03  0.17278813873E+03 0.  0.
        -24    2    5    5    0    0 -0.10651185255E+03  0.94263701250E+01  0.64157530357E+02  0.14759802705E+03  0.78964281161E+02 0.  0.
          5    1    3    3  501    0  0.10020802545E+03  0.66466931207E+02 -0.18489143231E+02  0.12175154917E+03  0.47000000000E+01 0. -1.
        -11    1    4    4    0    0  0.58447756115E+02 -0.16423531340E+02 -0.95689892115E+02  0.11332443704E+03  0.00000000000E+00 0.  1.
         12    1    4    4    0    0  0.41789067086E+01 -0.14964611518E+02  0.14015455258E+02  0.20924527361E+02  0.00000000000E+00 0. -1.
         -5    1    5    5    0  502 -0.56322835722E+02 -0.44505158474E+02  0.18432431170E+03  0.19786488530E+03  0.47000000000E+01 0.  1.
         13    1    6    6    0    0 -0.94312030810E+02 -0.23964579381E+02  0.44919607819E+02  0.10717663639E+03  0.00000000000E+00 0. -1.
        -14    1    6    6    0    0 -0.12199821741E+02  0.33390949506E+02  0.19237922538E+02  0.40421390662E+02  0.00000000000E+00 0.  1.
</event>
<event>
12    1  0.1623092E-001  0.2406058E+03  0.7818608E-02  0.1119722E+00
         21   -1    0    0  501  502  0.00000000000E+00  0.00000000000E+00  0.63968339251E+03  0.63968339251E+03  0.00000000000E+00 0.  1.
         21   -1    0    0  502  503 -0.00000000000E+00 -0.00000000000E+00 -0.27175132309E+03  0.27175132309E+03  0.00000000000E+00 0. -1.
         -6    2    1    2    0  503 -0.14856834516E+03 -0.77761916056E+02 -0.18872449472E+03  0.30579089943E+03  0.17254469129E+03 0.  0.
        -24    2    3    3    0    0 -0.16325748172E+03 -0.41879466698E+02 -0.19137070480E+03  0.26664484812E+03  0.77909134933E+02 0.  0.
          6    2    1    2  501    0  0.14856834516E+03  0.77761916056E+02  0.55665656414E+03  0.60564381618E+03  0.16975992726E+03 0.  0.
         24    2    5    5    0    0  0.10192583377E+03  0.92949791640E+02  0.52718693555E+03  0.54822653269E+03  0.59981053522E+02 0.  0.
          5    1    5    5  501    0  0.46642511390E+02 -0.15187875584E+02  0.29469628591E+02  0.57417283485E+02  0.47000000000E+01 0. -1.
        -13    1    6    6    0    0  0.48040359521E+02  0.73594878894E+01  0.19632228399E+03  0.20224855351E+03  0.00000000000E+00 0.  1.
         14    1    6    6    0    0  0.53885474245E+02  0.85590303751E+02  0.33086465156E+03  0.34597797918E+03  0.00000000000E+00 0. -1.
         -5    1    3    3    0  503  0.14689136563E+02 -0.35882449358E+02  0.26462100820E+01  0.39146051304E+02  0.47000000000E+01 0.  1.
         11    1    4    4    0    0 -0.74904019767E+02 -0.46986354160E+02 -0.13610653851E+03  0.16230625213E+03  0.00000000000E+00 0. -1.
        -12    1    4    4    0    0 -0.88353461952E+02  0.51068874614E+01 -0.55264166292E+02  0.10433859600E+03  0.00000000000E+00 0.  1.
</event>
<event>
12    1  0.1623092E-001  0.2158783E+03  0.7818608E-02  0.1137334E+00
         21   -1    0    0  503  502  0.00000000000E+00  0.00000000000E+00  0.56970154004E+02  0.56970154004E+02  0.00000000000E+00 0. -1.
         21   -1    0    0  501  503 -0.00000000000E+00 -0.00000000000E+00 -0.16766255377E+04  0.16766255377E+04  0.00000000000E+00 0. -1.
          6    2    1    2  501    0 -0.11191388785E+03  0.61291305270E+02 -0.14309142005E+04  0.14468437444E+04  0.17193030313E+03 0.  0.
         24    2    3    3    0    0 -0.12699680470E+03  0.51297111710E+02 -0.79957553138E+03  0.81522836824E+03  0.80725955681E+02 0.  0.
         -6    2    1    2    0  502  0.11191388785E+03 -0.61291305270E+02 -0.18874118319E+03  0.28675194730E+03  0.17413242849E+03 0.  0.
        -24    2    5    5    0    0  0.12377361636E+03 -0.28877412372E+01 -0.96874915962E+02  0.17714751989E+03  0.81659336912E+02 0.  0.
          5    1    3    3  501    0  0.15082916857E+02  0.99941935602E+01 -0.63133866908E+03  0.63161537613E+03  0.47000000000E+01 0. -1.
        -13    1    4    4    0    0 -0.13285749606E+02 -0.13060786938E+02 -0.35803186388E+02  0.40360419393E+02  0.00000000000E+00 0.  1.
         14    1    4    4    0    0 -0.11371105510E+03  0.64357898648E+02 -0.76377234500E+03  0.77486794885E+03  0.00000000000E+00 0. -1.
         -5    1    5    5    0  502 -0.11859728513E+02 -0.58403564033E+02 -0.91866267232E+02  0.10960442741E+03  0.47000000000E+01 0.  1.
         13    1    6    6    0    0  0.41951943302E+02 -0.39251441245E+02 -0.49574818190E+02  0.75883488225E+02  0.00000000000E+00 0. -1.
        -14    1    6    6    0    0  0.81821673057E+02  0.36363700008E+02 -0.47300097772E+02  0.10126403167E+03  0.00000000000E+00 0.  1.
</event>
<event>
12    1  0.1623092E-001  0.1922636E+03  0.7818608E-02  0.1156664E+00
         21   -1    0    0  501  502  0.00000000000E+00  0.00000000000E+00  0.17945603827E+02  0.17945603827E+02  0.00000000000E+00 0. -1.
         21   -1    0    0  502  503 -0.00000000000E+00 -0.00000000000E+00 -0.21332454612E+04  0.21332454612E+04  0.00000000000E+00 0. -1.
         -6    2    1    2    0  503 -0.69975982137E+02 -0.38115139681E+02 -0.12742579999E+04  0.12886810117E+04  0.17497399188E+03 0.  0.
        -24    2    3    3    0    0 -0.38405699378E+02  0.46970726510E+02 -0.54406620187E+03  0.55285600588E+03  0.77204172998E+02 0.  0.
          6    2    1    2  501    0  0.69975982137E+02  0.38115139681E+02 -0.84104185749E+03  0.86251005327E+03  0.17384701321E+03 0.  0.
         24    2    5    5    0    0  0.87100304190E+01  0.20025961115E+01 -0.69605339573E+03  0.70095084838E+03  0.82230694478E+02 0.  0.
          5    1    5    5  501    0  0.61265951718E+02  0.36112543569E+02 -0.14498846175E+03  0.16155920489E+03  0.47000000000E+01 0. -1.
        -13    1    6    6    0    0  0.87314792698E+01 -0.17314321688E+02 -0.65790340903E+03  0.65818912181E+03  0.00000000000E+00 0.  1.
         14    1    6    6    0    0 -0.21448850796E-01  0.19316917800E+02 -0.38149986707E+02  0.42761726568E+02  0.00000000000E+00 0. -1.
         -5    1    3    3    0  503 -0.31570282759E+02 -0.85085866191E+02 -0.73019179799E+03  0.73582500584E+03  0.47000000000E+01 0.  1.
         11    1    4    4    0    0 -0.54809607909E+02  0.52237048167E+02 -0.49702678998E+03  0.50276081020E+03  0.00000000000E+00 0. -1.
        -12    1    4    4    0    0  0.16403908531E+02 -0.52663216573E+01 -0.47039411889E+02  0.50095195675E+02  0.00000000000E+00 0.  1.
</event>
<event>
12    1  0.1623092E-001  0.2385416E+03  0.7818608E-02  0.1120896E+00
         21   -1    0    0  501  502  0.00000000000E+00  0.00000000000E+00  0.93543923569E+02  0.93543923569E+02  0.00000000000E+00 0.  1.
         21   -1    0    0  502  503 -0.00000000000E+00 -0.00000000000E+00 -0.80386366445E+03  0.80386366445E+03  0.00000000000E+00 0. -1.
         -6    2    1    2    0  503  0.55649665800E+02  0.15547583440E+03 -0.57714453322E+03  0.62420855607E+03  0.17108737200E+03 0.  0.
        -24    2    3    3    0    0  0.11729643022E+02  0.17680167793E+02 -0.30178543234E+03  0.31314370982E+03  0.80835406645E+02 0.  0.
          6    2    1    2  501    0 -0.55649665800E+02 -0.15547583440E+03 -0.13317520766E+03  0.27319903195E+03  0.17214079917E+03 0.  0.
         24    2    5    5    0    0 -0.36695098166E+02 -0.13965352116E+03 -0.31816434519E+02  0.16877052951E+03  0.81373029447E+02 0.  0.
          5    1    5    5  501    0 -0.18954567634E+02 -0.15822313233E+02 -0.10135877314E+03  0.10442850244E+03  0.47000000000E+01 0. -1.
        -11    1    6    6    0    0 -0.25488586499E+00 -0.99003934342E+02  0.10692939203E+02  0.99580032792E+02  0.00000000000E+00 0.  1.
         12    1    6    6    0    0 -0.36440212301E+02 -0.40649586821E+02 -0.42509373722E+02  0.69190496714E+02  0.00000000000E+00 0. -1.
         -5    1    3    3    0  503  0.43920022779E+02  0.13779566660E+03 -0.27535910088E+03  0.31106484625E+03  0.47000000000E+01 0.  1.
         13    1    4    4    0    0  0.45143485166E+02  0.21267050071E+02 -0.18637623831E+03  0.19294124463E+03  0.00000000000E+00 0. -1.
        -14    1    4    4    0    0 -0.33413842145E+02 -0.35868822777E+01 -0.11540919403E+03  0.12020246519E+03  0.00000000000E+00 0.  1.
</event>
<event>
12    1  0.1623092E-001  0.2641564E+03  0.7818608E-02  0.1105143E+00
         21   -1    0    0  501  502  0.00000000000E+00  0.00000000000E+00  0.24671176189E+03  0.24671176189E+03  0.00000000000E+00 0. -1.
         21   -1    0    0  502  503 -0.00000000000E+00 -0.00000000000E+00 -0.39102265959E+03  0.39102265959E+03  0.00000000000E+00 0. -1.
         -6    2    1    2    0  503 -0.10089346618E+03 -0.16890180086E+03  0.98492670252E+02  0.27894174830E+03  0.17146539884E+03 0.  0.
        -24    2    3    3    0    0 -0.40874441835E+02 -0.36059968357E+02  0.91184964497E+02  0.13291185989E+03  0.79873796921E+02 0.  0.
          6    2    1    2  501    0  0.10089346618E+03  0.16890180086E+03 -0.24280356795E+03  0.35879267317E+03  0.17627053032E+03 0.  0.
         24    2    5    5    0    0  0.52587200712E+02  0.61493164398E+02 -0.20061552816E+03  0.23360468983E+03  0.88191485000E+02 0.  0.
          5    1    5    5  501    0  0.48306265472E+02  0.10740863647E+03 -0.42188039792E+02  0.12518798334E+03  0.47000000000E+01 0. -1.
        -11    1    6    6    0    0  0.62474450604E+02  0.92504245261E+01 -0.81057352658E+02  0.10275661415E+03  0.00000000000E+00 0.  1.
         12    1    6    6    0    0 -0.98872498923E+01  0.52242739872E+02 -0.11955817550E+03  0.13084807568E+03  0.00000000000E+00 0. -1.
         -5    1    3    3    0  503 -0.60019024349E+02 -0.13284183251E+03  0.73077057548E+01  0.14602988842E+03  0.47000000000E+01 0.  1.
         11    1    4    4    0    0 -0.19003320072E+02 -0.57244487071E+02  0.37008224852E+02  0.70764865438E+02  0.00000000000E+00 0. -1.
        -12    1    4    4    0    0 -0.21871121763E+02  0.21184518713E+02  0.54176739645E+02  0.62146994447E+02  0.00000000000E+00 0.  1.
</event>
<event>
12    1  0.1623092E-001  0.3710120E+03  0.7818608E-02  0.1054317E+00
         21   -1    0    0  501  502  0.00000000000E+00  0.00000000000E+00  0.23777908916E+03  0.23777908916E+03  0.00000000000E+00 0. -1.
         21   -1    0    0  502  503 -0.00000000000E+00 -0.00000000000E+00 -0.57983037003E+03  0.57983037003E+03  0.00000000000E+00 0.  1.
         -6    2    1    2    0  503  0.16549955960E+03 -0.28418322359E+03 -0.15322932555E+03  0.40140891265E+03  0.17175470924E+03 0.  0.
        -24    2    3    3    0    0  0.91092160045E+02 -0.20210415258E+03 -0.33140477696E+02  0.23795599470E+03  0.79880498504E+02 0.  0.
          6    2    1    2  501    0 -0.16549955960E+03  0.28418322359E+03 -0.18882195532E+03  0.41620054654E+03  0.17151954797E+03 0.  0.
         24    2    5    5    0    0 -0.26652319839E+02  0.50621174558E+02 -0.52174448304E+02  0.11202227988E+03  0.80956585079E+02 0.  0.
          5    1    5    5  501    0 -0.13884723976E+03  0.23356204903E+03 -0.13664750701E+03  0.30417826666E+03  0.47000000000E+01 0. -1.
        -13    1    6    6    0    0 -0.28258791982E+02  0.38542908619E+01 -0.58228268496E+02  0.64837844924E+02  0.00000000000E+00 0.  1.
         14    1    6    6    0    0  0.16064721437E+01  0.46766883696E+02  0.60538201914E+01  0.47184434958E+02  0.00000000000E+00 0. -1.
         -5    1    3    3    0  503  0.74407399558E+02 -0.82079071010E+02 -0.12008884785E+03  0.16345291795E+03  0.47000000000E+01 0.  1.
         11    1    4    4    0    0  0.22669491993E+02 -0.13902307065E+03 -0.33932724703E+02  0.14488874989E+03  0.00000000000E+00 0. -1.
        -12    1    4    4    0    0  0.68422668053E+02 -0.63081081928E+02  0.79224700670E+00  0.93067244807E+02  0.00000000000E+00 0.  1.
</event>
<event>
12    1  0.1623092E-001  0.2355680E+03  0.7818608E-02  0.1123026E+00
         21   -1    0    0  501  502  0.00000000000E+00  0.00000000000E+00  0.74598299849E+02  0.74598299849E+02  0.00000000000E+00 0.  1.
         21   -1    0    0  502  503 -0.00000000000E+00 -0.00000000000E+00 -0.10317483843E+04  0.10317483843E+04  0.00000000000E+00 0. -1.
         -6    2    1    2    0  503  0.12909147585E+03  0.94510934118E+02 -0.77409956032E+03  0.80914919896E+03  0.17290277930E+03 0.  0.
        -24    2    3    3    0    0  0.15681710190E+03  0.53888219858E+02 -0.65629257312E+03  0.68140143386E+03  0.78054012412E+02 0.  0.
          6    2    1    2  501    0 -0.12909147585E+03 -0.94510934118E+02 -0.18305052414E+03  0.29719748519E+03  0.17094421609E+03 0.  0.
         24    2    5    5    0    0 -0.66103871944E+02  0.88147305330E+01 -0.41730096184E+02  0.11108680689E+03  0.78431220679E+02 0.  0.
          5    1    5    5  501    0 -0.62987603903E+02 -0.10332566465E+03 -0.14132042796E+03  0.18611067830E+03  0.47000000000E+01 0. -1.
        -11    1    6    6    0    0 -0.15765968010E+02  0.36484122003E+02 -0.35532010004E+02  0.53312105947E+02  0.00000000000E+00 0.  1.
         12    1    6    6    0    0 -0.50337903934E+02 -0.27669391470E+02 -0.61980861799E+01  0.57774700943E+02  0.00000000000E+00 0. -1.
         -5    1    3    3    0  503 -0.27725626055E+02  0.40622714261E+02 -0.11780698720E+03  0.12774776510E+03  0.47000000000E+01 0.  1.
         11    1    4    4    0    0  0.14092485822E+03  0.49159818579E+02 -0.64315720216E+03  0.66024820342E+03  0.00000000000E+00 0. -1.
        -12    1    4    4    0    0  0.15892243685E+02  0.47284012790E+01 -0.13135370951E+02  0.21153230440E+02  0.00000000000E+00 0.  1.
</event>
<event>
12    1  0.1623092E-001  0.3144692E+03  0.7818608E-02  0.1078696E+00
         21   -1    0    0  501  502  0.00000000000E+00  0.00000000000E+00  0.14337512399E+04  0.14337512399E+04  0.00000000000E+00 0. -1.
         21   -1    0    0  502  503 -0.00000000000E+00 -0.00000000000E+00 -0.75476645313E+02  0.75476645313E+02  0.00000000000E+00 0.  1.
         -6    2    1    2    0  503  0.11396198403E+03  0.23145123441E+03  0.44715421743E+03  0.54666058351E+03  0.17981627201E+03 0.  0.
        -24    2    3    3    0    0  0.12432349027E+03  0.14825754629E+03  0.38866396372E+03  0.44432901294E+03  0.94509072504E+02 0.  0.
          6    2    1    2  501    0 -0.11396198403E+03 -0.23145123441E+03  0.91112037713E+03  0.96256730168E+03  0.17273812819E+03 0.  0.
         24    2    5    5    0    0 -0.54787309177E+02 -0.45962866953E+02  0.22297894797E+03  0.24739718686E+03  0.79821816837E+02 0.  0.
          5    1    5    5  501    0 -0.59174674855E+02 -0.18548836746E+03  0.68814142916E+03  0.71517011482E+03  0.47000000000E+01 0. -1.
        -11    1    6    6    0    0  0.15593160777E+02 -0.13826044720E+02  0.15531124057E+02  0.25990805876E+02  0.00000000000E+00 0.  1.
         12    1    6    6    0    0 -0.70380469954E+02 -0.32136822233E+02  0.20744782391E+03  0.22140638098E+03  0.00000000000E+00 0. -1.
         -5    1    3    3    0  503 -0.10361506238E+02  0.83193688118E+02  0.58490253711E+02  0.10233157056E+03  0.47000000000E+01 0.  1.
         11    1    4    4    0    0  0.83541856945E+02  0.12462906604E+03  0.35781418606E+03  0.38799824447E+03  0.00000000000E+00 0. -1.
        -12    1    4    4    0    0  0.40781633324E+02  0.23628480252E+02  0.30849777657E+02  0.56330768476E+02  0.00000000000E+00 0.  1.
</event>
<event>
12    1  0.1623092E-001  0.1897391E+03  0.7818608E-02  0.1159897E+00
         21   -1    0    0  503  502  0.00000000000E+00  0.00000000000E+00  0.89705162868E+03  0.89705162868E+03  0.00000000000E+00 0. -1.
         21   -1    0    0  501  503 -0.00000000000E+00 -0.00000000000E+00 -0.41654199020E+02  0.41654199020E+02  0.00000000000E+00 0. -1.
          6    2    1    2  501    0  0.20602734454E+02 -0.66726533087E+02  0.53982078170E+03  0.57048096543E+03  0.17077808019E+03 0.  0.
         24    2    3    3    0    0 -0.13175336106E+02 -0.33056008301E+01  0.44199909178E+03  0.44901349769E+03  0.77880726096E+02 0.  0.
         -6    2    1    2    0  502 -0.20602734454E+02  0.66726533087E+02  0.31557664796E+03  0.36822486227E+03  0.17642002600E+03 0.  0.
        -24    2    5    5    0    0 -0.30561814684E+02 -0.27089414262E+02  0.11154176553E+03  0.14338505596E+03  0.80310945284E+02 0.  0.
          5    1    3    3  501    0  0.33778070560E+02 -0.63420932257E+02  0.97821689923E+02  0.12146746774E+03  0.47000000000E+01 0. -1.
        -11    1    4    4    0    0 -0.38386794251E+01 -0.19335672063E+02  0.26135453779E+02  0.32736304282E+02  0.00000000000E+00 0.  1.
         12    1    4    4    0    0 -0.93366566805E+01  0.16030071233E+02  0.41586363800E+03  0.41627719341E+03  0.00000000000E+00 0. -1.
         -5    1    5    5    0  502  0.99590802304E+01  0.93815947349E+02  0.20403488243E+03  0.22483980631E+03  0.47000000000E+01 0.  1.
         13    1    6    6    0    0 -0.39959984831E+02 -0.13959905916E+02  0.11847764794E+03  0.12581189300E+03  0.00000000000E+00 0. -1.
        -14    1    6    6    0    0  0.93981701469E+01 -0.13129508346E+02 -0.69358824038E+01  0.17573162955E+02  0.00000000000E+00 0.  1.
</event>
<event>
12    1  0.1623092E-001  0.2138015E+03  0.7818608E-02  0.1138692E+00
         21   -1    0    0  501  502  0.00000000000E+00  0.00000000000E+00  0.60700936840E+03  0.60700936840E+03  0.00000000000E+00 0.  1.
         21   -1    0    0  502  503 -0.00000000000E+00 -0.00000000000E+00 -0.77595524866E+02  0.77595524866E+02  0.00000000000E+00 0. -1.
         -6    2    1    2    0  503 -0.88101991240E+02 -0.91762249316E+02  0.32551862653E+03  0.38916568568E+03  0.17118786005E+03 0.  0.
        -24    2    3    3    0    0 -0.31365595774E+02 -0.31442778916E+02  0.53196665667E+02  0.10449254425E+03  0.78207145593E+02 0.  0.
          6    2    1    2  501    0  0.88101991240E+02  0.91762249316E+02  0.20389521700E+03  0.29543920759E+03  0.17183944426E+03 0.  0.
         24    2    5    5    0    0  0.61978801006E+02 -0.63769233415E+01  0.13356460515E+03  0.17181799888E+03  0.88316952319E+02 0.  0.
          5    1    5    5  501    0  0.26123190234E+02  0.98139172657E+02  0.70330611852E+02  0.12362120870E+03  0.47000000000E+01 0. -1.
        -13    1    6    6    0    0  0.32558230113E+02 -0.26051748499E+02  0.12967208502E+03  0.13621153248E+03  0.00000000000E+00 0.  1.
         14    1    6    6    0    0  0.29420570893E+02  0.19674825158E+02  0.38925201277E+01  0.35606466401E+02  0.00000000000E+00 0. -1.
         -5    1    3    3    0  503 -0.56736395465E+02 -0.60319470399E+02  0.27232196086E+03  0.28467314142E+03  0.47000000000E+01 0.  1.
         13    1    4    4    0    0 -0.15459926777E+02  0.19027358868E+02 -0.58489872459E+01  0.25204372106E+02  0.00000000000E+00 0. -1.
        -14    1    4    4    0    0 -0.15905668997E+02 -0.50470137785E+02  0.59045652913E+02  0.79288172145E+02  0.00000000000E+00 0.  1.
</event>
<event>
12    1  0.1623092E-001  0.2003573E+03  0.7818608E-02  0.1149835E+00
         21   -1    0    0  503  502  0.00000000000E+00  0.00000000000E+00  0.16709541617E+04  0.16709541617E+04  0.00000000000E+00 0.  1.
         21   -1    0    0  501  503 -0.00000000000E+00 -0.00000000000E+00 -0.31200953237E+02  0.31200953237E+02  0.00000000000E+00 0.  1.
          6    2    1    2  501    0 -0.88928869213E+02  0.40603368274E+02  0.12373353595E+04  0.12534519755E+04  0.17488878161E+03 0.  0.
         24    2    3    3    0    0 -0.97624199179E+01  0.42872792978E+02  0.99428547221E+03  0.99778067353E+03  0.70917494316E+02 0.  0.
         -6    2    1    2    0  502  0.88928869213E+02 -0.40603368274E+02  0.40241784904E+03  0.44870313942E+03  0.17273507117E+03 0.  0.
        -24    2    5    5    0    0  0.86674427587E+02 -0.85851179775E+02  0.24960189928E+03  0.28924389243E+03  0.80486270361E+02 0.  0.
          5    1    3    3  501    0 -0.79166449295E+02 -0.22694247038E+01  0.24304988725E+03  0.25567130201E+03  0.47000000000E+01 0. -1.
        -11    1    4    4    0    0 -0.34096892544E+02  0.29305262365E+02  0.34763803753E+03  0.35053331029E+03  0.00000000000E+00 0.  1.
         12    1    4    4    0    0  0.24334472626E+02  0.13567530613E+02  0.64664743469E+03  0.64724736325E+03  0.00000000000E+00 0. -1.
         -5    1    5    5    0  502  0.22544416262E+01  0.45247811500E+02  0.15281594975E+03  0.15945924699E+03  0.47000000000E+01 0.  1.
         11    1    6    6    0    0 -0.10195222382E+02 -0.31734134255E+02  0.39865270406E+02  0.51963810684E+02  0.00000000000E+00 0. -1.
        -12    1    6    6    0    0  0.96869649968E+02 -0.54117045520E+02  0.20973662888E+03  0.23728008174E+03  0.00000000000E+00 0.  1.
</event>
<event>
12    1  0.1623092E-001  0.2341629E+03  0.7818608E-02  0.1123832E+00
         21   -1    0    0  501  502  0.00000000000E+00  0.00000000000E+00  0.11558203763E+04  0.11558203763E+04  0.00000000000E+00 0. -1.
         21   -1    0    0  502  503 -0.00000000000E+00 -0.00000000000E+00 -0.50479128221E+02  0.50479128221E+02  0.00000000000E+00 0.  1.
         -6    2    1    2    0  503 -0.10247226588E+03  0.12230654921E+03  0.40273554726E+03  0.46586285376E+03  0.17138500585E+03 0.  0.
        -24    2    3    3    0    0 -0.22604418869E+02  0.31246230491E+02  0.78652600492E+02  0.11985317034E+03  0.81800147948E+02 0.  0.
          6    2    1    2  501    0  0.10247226588E+03 -0.12230654921E+03  0.70260570083E+03  0.74043665078E+03  0.17068159163E+03 0.  0.
         24    2    5    5    0    0  0.41502525992E+02 -0.64580437260E+02  0.18314957551E+03  0.21421771410E+03  0.80326642440E+02 0.  0.
          5    1    5    5  501    0  0.60969739891E+02 -0.57726111945E+02  0.51945612532E+03  0.52621893668E+03  0.47000000000E+01 0. -1.
        -11    1    6    6    0    0  0.18757949609E+02  0.50610776455E+01  0.28941282473E+01  0.19643094430E+02  0.00000000000E+00 0.  1.
         12    1    6    6    0    0  0.22744576383E+02 -0.69641514906E+02  0.18025544726E+03  0.19457461967E+03  0.00000000000E+00 0. -1.
         -5    1    3    3    0  503 -0.79867847014E+02  0.91060318714E+02  0.32408294677E+03  0.34600968342E+03  0.47000000000E+01 0.  1.
         11    1    4    4    0    0  0.16775062132E+02  0.45541541480E+02  0.43037810164E+02  0.64866692637E+02  0.00000000000E+00 0. -1.
        -12    1    4    4    0    0 -0.39379481001E+02 -0.14295310989E+02  0.35614790328E+02  0.54986477704E+02  0.00000000000E+00 0.  1.
</event>
<event>
12    1  0.1623092E-001  0.2176961E+03  0.7818608E-02  0.1138335E+00
         21   -1    0    0  503  502  0.00000000000E+00  0.00000000000E+00  0.46451223107E+02  0.46451223107E+02  0.00000000000E+00 0. -1.
         21   -1    0    0  501  503 -0.00000000000E+00 -0.00000000000E+00 -0.99802857773E+03  0.99802857773E+03  0.00000000000E+00 0. -1.
          6    2    1    2  501    0 -0.51195036133E+02 -0.12126380375E+03 -0.38384328052E+03  0.44127909842E+03  0.17339474294E+03 0.  0.
         24    2    3    3    0    0 -0.48556650413E+02 -0.97322836283E+02 -0.13329795799E+03  0.18953482412E+03  0.79533773883E+02 0.  0.
         -6    2    1    2    0  502  0.51195036133E+02  0.12126380375E+03 -0.56773407411E+03  0.60320070242E+03  0.15557399099E+03 0.  0.
        -24    2    5    5    0    0  0.39367958586E+02  0.13443213902E+03 -0.35691564055E+03  0.39158835225E+03  0.79566494107E+02 0.  0.
          5    1    3    3  501    0 -0.26383857200E+01 -0.23940967469E+02 -0.25054532253E+03  0.25174427430E+03  0.47000000000E+01 0. -1.
        -11    1    4    4    0    0  0.14404812500E+02 -0.56869545965E+02 -0.71448013707E+02  0.92447079695E+02  0.00000000000E+00 0.  1.
         12    1    4    4    0    0 -0.62961462913E+02 -0.40453290319E+02 -0.61849944285E+02  0.97087744427E+02  0.00000000000E+00 0. -1.
         -5    1    5    5    0  502  0.11827077547E+02 -0.13168335267E+02 -0.21081843356E+03  0.21161235017E+03  0.47000000000E+01 0.  1.
         11    1    6    6    0    0  0.35936349649E+02  0.11055779639E+02 -0.88506665948E+02  0.96161746068E+02  0.00000000000E+00 0. -1.
        -12    1    6    6    0    0  0.34316089369E+01  0.12337635938E+03 -0.26840897460E+03  0.29542660618E+03  0.00000000000E+00 0.  1.
</event>
<event>
12    1  0.1623092E-001  0.2100117E+03  0.7818608E-02  0.1143034E+00
         21   -1    0    0  501  502  0.00000000000E+00  0.00000000000E+00  0.24335071599E+02  0.24335071599E+02  0.00000000000E+00 0.  1.
         21   -1    0    0  502  503 -0.00000000000E+00 -0.00000000000E+00 -0.20589332097E+04  0.20589332097E+04  0.00000000000E+00 0.  1.
         -6    2    1    2    0  503 -0.60569399363E+02 -0.10782283993E+03 -0.14362058616E+04  0.14514793074E+04  0.16973651889E+03 0.  0.
        -24    2    3    3    0    0  0.31760546926E+01 -0.60260603432E+02 -0.38314209529E+03  0.39540590310E+03  0.76853987392E+02 0.  0.
          6    2    1    2  501    0  0.60569399363E+02  0.10782283993E+03 -0.59839227643E+03  0.63178897387E+03  0.16059132624E+03 0.  0.
         24    2    5    5    0    0  0.55068589808E+02  0.95098907279E+02 -0.60156428918E+03  0.61681202383E+03  0.80629566372E+02 0.  0.
          5    1    5    5  501    0  0.55008095549E+01  0.12723932649E+02  0.31720127466E+01  0.14976950046E+02  0.47000000000E+01 0. -1.
        -11    1    6    6    0    0  0.44689845812E+02  0.97953617592E+02 -0.37923667726E+03  0.39422398569E+03  0.00000000000E+00 0.  1.
         12    1    6    6    0    0  0.10378743996E+02 -0.28547103132E+01 -0.22232761192E+03  0.22258803813E+03  0.00000000000E+00 0. -1.
         -5    1    3    3    0  503 -0.63745454055E+02 -0.47562236496E+02 -0.10530637663E+04  0.10560734043E+04  0.47000000000E+01 0.  1.
         13    1    4    4    0    0  0.17126052866E+02 -0.73046112804E+02 -0.25283461467E+03  0.26373164136E+03  0.00000000000E+00 0. -1.
        -14    1    4    4    0    0 -0.13949998173E+02  0.12785509372E+02 -0.13030748062E+03  0.13167426174E+03  0.00000000000E+00 0.  1.
</event>
<event>
12    1  0.1623092E-001  0.2418381E+03  0.7818608E-02  0.1119524E+00
         21   -1    0    0  503  502  0.00000000000E+00  0.00000000000E+00  0.73134190203E+02  0.73134190203E+02  0.00000000000E+00 0.  1.
         21   -1    0    0  501  503 -0.00000000000E+00 -0.00000000000E+00 -0.93828658341E+03  0.93828658341E+03  0.00000000000E+00 0.  1.
          6    2    1    2  501    0  0.15847032533E+03  0.24536551257E+02 -0.63532399307E+03  0.67779407036E+03  0.17335898964E+03 0.  0.
         24    2    3    3    0    0  0.15974813363E+03  0.42164750002E+02 -0.38114011353E+03  0.42295309877E+03  0.79524872058E+02 0.  0.
         -6    2    1    2    0  502 -0.15847032533E+03 -0.24536551257E+02 -0.22982840013E+03  0.33362670325E+03  0.18102706221E+03 0.  0.
        -24    2    5    5    0    0 -0.62292418932E+02  0.37352949598E+02 -0.55065387159E+02  0.12471356173E+03  0.85121603110E+02 0.  0.
          5    1    3    3  501    0 -0.12778082953E+01 -0.17628198745E+02 -0.25418387954E+03  0.25484097159E+03  0.47000000000E+01 0. -1.
        -13    1    4    4    0    0  0.13850078054E+03  0.46507478342E+01 -0.26457457730E+03  0.29867005645E+03  0.00000000000E+00 0.  1.
         14    1    4    4    0    0  0.21247353091E+02  0.37514002168E+02 -0.11656553623E+03  0.12428304232E+03  0.00000000000E+00 0. -1.
         -5    1    5    5    0  502 -0.96177906399E+02 -0.61889500855E+02 -0.17476301297E+03  0.20891314152E+03  0.47000000000E+01 0.  1.
         13    1    6    6    0    0 -0.16209511087E+02 -0.25263302096E+02 -0.10304004651E+01  0.30034054132E+02  0.00000000000E+00 0. -1.
        -14    1    6    6    0    0 -0.46082907845E+02  0.62616251694E+02 -0.54034986693E+02  0.94679507596E+02  0.00000000000E+00 0.  1.
</event>
<event>
12    1  0.1623092E-001  0.1873452E+03  0.7818608E-02  0.1161711E+00
         21   -1    0    0  503  502  0.00000000000E+00  0.00000000000E+00  0.25106413044E+03  0.25106413044E+03  0.00000000000E+00 0. -1.
         21   -1    0    0  501  503 -0.00000000000E+00 -0.00000000000E+00 -0.21320048937E+03  0.21320048937E+03  0.00000000000E+00 0.  1.
          6    2    1    2  501    0 -0.20542845219E+02  0.68898894320E+02 -0.11984048722E+03  0.21937933659E+03  0.16910495208E+03 0.  0.
         24    2    3    3    0    0 -0.26719547668E+02  0.36654678262E+02 -0.14891760551E+03  0.17527253519E+03  0.80538864512E+02 0.  0.
         -6    2    1    2    0  502  0.20542845219E+02 -0.68898894320E+02  0.15770412829E+03  0.24488528321E+03  0.17300041540E+03 0.  0.
        -24    2    5    5    0    0 -0.24232656176E+02 -0.55257580679E+02  0.16961914571E+03  0.19635705841E+03  0.78388889182E+02 0.  0.
          5    1    3    3  501    0  0.61767024495E+01  0.32244216058E+02  0.29077118283E+02  0.44106801403E+02  0.47000000000E+01 0. -1.
        -13    1    4    4    0    0 -0.51325912007E+02  0.35934685669E+02 -0.12970650118E+03  0.14404661511E+03  0.00000000000E+00 0.  1.
         14    1    4    4    0    0  0.24606364339E+02  0.71999259281E+00 -0.19211104329E+02  0.31225920080E+02  0.00000000000E+00 0. -1.
         -5    1    5    5    0  502  0.44775501394E+02 -0.13641313641E+02 -0.11915017420E+02  0.48528224809E+02  0.47000000000E+01 0.  1.
         11    1    6    6    0    0  0.41737473253E+01 -0.65288436699E+02  0.13778860572E+03  0.15253098045E+03  0.00000000000E+00 0. -1.
        -12    1    6    6    0    0 -0.28406403501E+02  0.10030856021E+02  0.31830539992E+02  0.43826077951E+02  0.00000000000E+00 0.  1.
</event>
<event>
12    1  0.1623092E-001  0.1744412E+03  0.7818608E-02  0.1173442E+00
         21   -1    0    0  501  502  0.00000000000E+00  0.00000000000E+00  0.58511037560E+03  0.58511037560E+03  0.00000000000E+00 0. -1.
         21   -1    0    0  502  503 -0.00000000000E+00 -0.00000000000E+00 -0.10241737802E+03  0.10241737802E+03  0.00000000000E+00 0. -1.
         -6    2    1    2    0  503  0.24873584328E+02 -0.20471605693E+02 -0.45251810604E+00  0.17385538001E+03  0.17084410013E+03 0.  0.
        -24    2    3    3    0    0  0.20106065125E+00 -0.69272537765E+02  0.33379294258E+02  0.10938099809E+03  0.77790105699E+02 0.  0.
          6    2    1    2  501    0 -0.24873584328E+02  0.20471605693E+02  0.48314551569E+03  0.51367237361E+03  0.17144076599E+03 0.  0.
         24    2    5    5    0    0 -0.71057238143E+02  0.22717135191E+02  0.42684931494E+03  0.44067015103E+03  0.80153883390E+02 0.  0.
          5    1    5    5  501    0  0.46183653816E+02 -0.22455294983E+01  0.56296200747E+02  0.73002222576E+02  0.47000000000E+01 0. -1.
        -11    1    6    6    0    0 -0.45535548946E+02 -0.23605222378E+02  0.14262499468E+03  0.15156708696E+03  0.00000000000E+00 0.  1.
         12    1    6    6    0    0 -0.25521689197E+02  0.46322357569E+02  0.28422432026E+03  0.28910306408E+03  0.00000000000E+00 0. -1.
         -5    1    3    3    0  503  0.24672523676E+02  0.48800932072E+02 -0.33831812364E+02  0.64474381916E+02  0.47000000000E+01 0.  1.
         13    1    4    4    0    0 -0.39509538049E+01 -0.67135050749E+02  0.55238313344E+02  0.87028709838E+02  0.00000000000E+00 0. -1.
        -14    1    4    4    0    0  0.41520144562E+01 -0.21374870156E+01 -0.21859019086E+02  0.22352288254E+02  0.00000000000E+00 0.  1.
</event>
<event>
12    1  0.1623092E-001  0.2070015E+03  0.7818608E-02  0.1144106E+00
         21   -1    0    0  503  502  0.00000000000E+00  0.00000000000E+00  0.11805008126E+03  0.11805008126E+03  0.00000000000E+00 0.  1.
         21   -1    0    0  501  503 -0.00000000000E+00 -0.00000000000E+00 -0.85098729617E+03  0.85098729617E+03  0.00000000000E+00 0.  1.
          6    2    1    2  501    0  0.29632711694E+02  0.11191642087E+03 -0.73411280684E+03  0.76273930555E+03  0.17159910316E+03 0.  0.
         24    2    3    3    0    0 -0.26886523066E+02  0.75448470422E+02 -0.62004229537E+03  0.63023078924E+03  0.79517563146E+02 0.  0.
         -6    2    1    2    0  502 -0.29632711694E+02 -0.11191642087E+03  0.11755919247E+01  0.20629807188E+03  0.17074580399E+03 0.  0.
        -24    2    5    5    0    0 -0.80001340391E+02 -0.62934709928E+02  0.21929571708E+02  0.13288809680E+03  0.82567233076E+02 0.  0.
          5    1    3    3  501    0  0.56519234759E+02  0.36467950450E+02 -0.11407051147E+03  0.13250851631E+03  0.47000000000E+01 0. -1.
        -13    1    4    4    0    0  0.18561447946E+02  0.46172648003E+02 -0.42264168290E+03  0.42556131509E+03  0.00000000000E+00 0.  1.
         14    1    4    4    0    0 -0.45447971011E+02  0.29275822419E+02 -0.19740061246E+03  0.20466947415E+03  0.00000000000E+00 0. -1.
         -5    1    5    5    0  502  0.50368628698E+02 -0.48981710945E+02 -0.20753979783E+02  0.73409975077E+02  0.47000000000E+01 0.  1.
         11    1    6    6    0    0 -0.76234493442E+01 -0.28063351257E+00 -0.25097627174E+02  0.26231405315E+02  0.00000000000E+00 0. -1.
        -12    1    6    6    0    0 -0.72377891047E+02 -0.62654076415E+02  0.47027198882E+02  0.10665669148E+03  0.00000000000E+00 0.  1.
</event>
<event>
12    1  0.1623092E-001  0.1789492E+03  0.7818608E-02  0.1169173E+00
         21   -1    0    0  503  502  0.00000000000E+00  0.00000000000E+00  0.62779300975E+03  0.62779300975E+03  0.00000000000E+00 0.  1.
         21   -1    0    0  501  503 -0.00000000000E+00 -0.00000000000E+00 -0.71123193140E+02  0.71123193140E+02  0.00000000000E+00 0.  1.
          6    2    1    2  501    0  0.45588779385E+02 -0.92896394155E+01  0.91420771058E+02  0.20094918235E+03  0.17279520335E+03 0.  0.
         24    2    3    3    0    0  0.61188576892E+02  0.47936247471E+02  0.29082478383E+02  0.11477315003E+03  0.79278998834E+02 0.  0.
         -6    2    1    2    0  502 -0.45588779385E+02  0.92896394155E+01  0.46524904555E+03  0.49796702054E+03  0.17131796447E+03 0.  0.
        -24    2    5    5    0    0  0.27453824708E+02 -0.17777441694E+02  0.33096883035E+03  0.34265728135E+03  0.82485731341E+02 0.  0.
          5    1    3    3  501    0 -0.15599797508E+02 -0.57225886886E+02  0.62338292675E+02  0.86176032316E+02  0.47000000000E+01 0. -1.
        -11    1    4    4    0    0  0.36985003619E+02  0.20743921861E+01 -0.21083018352E+02  0.42622614402E+02  0.00000000000E+00 0.  1.
         12    1    4    4    0    0  0.24203573273E+02  0.45861855284E+02  0.50165496735E+02  0.72150535632E+02  0.00000000000E+00 0. -1.
         -5    1    5    5    0  502 -0.73042604092E+02  0.27067081110E+02  0.13428021521E+03  0.15530973919E+03  0.47000000000E+01 0.  1.
         13    1    6    6    0    0  0.36693958288E+02 -0.86275668046E+01  0.56737045368E+02  0.68117353155E+02  0.00000000000E+00 0. -1.
        -14    1    6    6    0    0 -0.92401335799E+01 -0.91498748899E+01  0.27423178498E+03  0.27453992819E+03  0.00000000000E+00 0.  1.
</event>
<event>
12    1  0.1623092E-001  0.1857543E+03  0.7818608E-02  0.1162473E+00
         21   -1    0    0  503  502  0.00000000000E+00  0.00000000000E+00  0.12357979381E+04  0.12357979381E+04  0.00000000000E+00 0. -1.
         21   -1    0    0  501  503 -0.00000000000E+00 -0.00000000000E+00 -0.65281566925E+02  0.65281566925E+02  0.00000000000E+00 0.  1.
          6    2    1    2  501    0  0.23565257412E+01 -0.69299069591E+02  0.92951803133E+02  0.20771299254E+03  0.17232740729E+03 0.  0.
         24    2    3    3    0    0  0.76640644820E+01 -0.45139207816E+02  0.12174377196E+03  0.16946464150E+03  0.10862979674E+03 0.  0.
         -6    2    1    2    0  502 -0.23565257412E+01  0.69299069591E+02  0.10775645681E+04  0.10933665125E+04  0.17174695942E+03 0.  0.
        -24    2    5    5    0    0  0.40563486445E+02 -0.80154445523E+01  0.40590841855E+03  0.41589788982E+03  0.80621130764E+02 0.  0.
          5    1    3    3  501    0 -0.53075387408E+01 -0.24159861775E+02 -0.28791968829E+02  0.38248351043E+02  0.47000000000E+01 0. -1.
        -13    1    4    4    0    0 -0.25417114783E+02 -0.69719329203E+02  0.61011807566E+02  0.96069012959E+02  0.00000000000E+00 0.  1.
         14    1    4    4    0    0  0.33081179265E+02  0.24580121387E+02  0.60731964396E+02  0.73395628537E+02  0.00000000000E+00 0. -1.
         -5    1    5    5    0  502 -0.42920012186E+02  0.77314514143E+02  0.67165614954E+03  0.67746862271E+03  0.47000000000E+01 0.  1.
         11    1    6    6    0    0  0.43809780922E+02 -0.38340126069E+02  0.30398060487E+03  0.30950520239E+03  0.00000000000E+00 0. -1.
        -12    1    6    6    0    0 -0.32462944766E+01  0.30324681517E+02  0.10192781367E+03  0.10639268742E+03  0.00000000000E+00 0.  1.
</event>
<event>
12    1  0.1623092E-001  0.2093241E+03  0.7818608E-02  0.1143545E+00
         21   -1    0    0  501  502  0.00000000000E+00  0.00000000000E+00  0.11879563930E+04  0.11879563930E+04  0.00000000000E+00 0.  1.
         21   -1    0    0  502  503 -0.00000000000E+00 -0.00000000000E+00 -0.47891249504E+02  0.47891249504E+02  0.00000000000E+00 0. -1.
         -6    2    1    2    0  503  0.76909806951E+02  0.92209261080E+02  0.26486890587E+03  0.33759753798E+03  0.17146105716E+03 0.  0.
        -24    2    3    3    0    0  0.11678130077E+02  0.11448817265E+03  0.18108177190E+03  0.22899783547E+03  0.80034243509E+02 0.  0.
          6    2    1    2  501    0 -0.76909806951E+02 -0.92209261080E+02  0.87519623760E+03  0.89825010449E+03  0.16268721426E+03 0.  0.
         24    2    5    5    0    0 -0.11285767435E+03 -0.55493363897E+02  0.68183864352E+03  0.69812625418E+03  0.81608595640E+02 0.  0.
          5    1    5    5  501    0  0.35947867401E+02 -0.36715897183E+02  0.19335759407E+03  0.20012385031E+03  0.47000000000E+01 0. -1.
        -13    1    6    6    0    0  0.45711006067E+01 -0.29236884852E+02  0.13539372911E+03  0.13858987077E+03  0.00000000000E+00 0.  1.
         14    1    6    6    0    0 -0.11742877496E+03 -0.26256479045E+02  0.54644491441E+03  0.55953638342E+03  0.00000000000E+00 0. -1.
         -5    1    3    3    0  503  0.65231676874E+02 -0.22278911568E+02  0.83787133968E+02  0.10859970252E+03  0.47000000000E+01 0.  1.
         11    1    4    4    0    0  0.29327093315E+02  0.26690957715E+02  0.19341243958E+02  0.44119942701E+02  0.00000000000E+00 0. -1.
        -12    1    4    4    0    0 -0.17648963238E+02  0.87797214933E+02  0.16174052794E+03  0.18487789277E+03  0.00000000000E+00 0.  1.
</event>
<event>
12    1  0.1623092E-001  0.2183428E+03  0.7818608E-02  0.1135497E+00
         21   -1    0    0  501  502  0.00000000000E+00  0.00000000000E+00  0.58677063380E+03  0.58677063380E+03  0.00000000000E+00 0.  1.
         21   -1    0    0  502  503 -0.00000000000E+00 -0.00000000000E+00 -0.83306304359E+02  0.83306304359E+02  0.00000000000E+00 0. -1.
         -6    2    1    2    0  503  0.61448722042E+02  0.11724954972E+03  0.18931912503E+03  0.28750564385E+03  0.17115595752E+03 0.  0.
        -24    2    3    3    0    0  0.10718506840E+02  0.76196841841E+02  0.26644468111E+02  0.11216593482E+03  0.77138992464E+02 0.  0.
          6    2    1    2  501    0 -0.61448722042E+02 -0.11724954972E+03  0.31414520442E+03  0.38257129431E+03  0.17363808171E+03 0.  0.
         24    2    5    5    0    0 -0.71383167830E+02 -0.14944550578E+03  0.28102297648E+03  0.33509030039E+03  0.76694721221E+02 0.  0.
          5    1    5    5  501    0  0.99344457881E+01  0.32195956057E+02  0.33122227939E+02  0.47480993916E+02  0.47000000000E+01 0. -1.
        -11    1    6    6    0    0 -0.24927980320E+02 -0.12960125912E+03  0.20090750386E+03  0.24037827621E+03  0.00000000000E+00 0.  1.
         12    1    6    6    0    0 -0.46455187510E+02 -0.19844246666E+02  0.80115472618E+02  0.94712024185E+02  0.00000000000E+00 0. -1.
         -5    1    3    3    0  503  0.50730215202E+02  0.41052707883E+02  0.16267465692E+03  0.17533970903E+03  0.47000000000E+01 0.  1.
         13    1    4    4    0    0  0.33301099353E+02  0.57140748984E+01  0.88552516778E+00  0.33799379061E+02  0.00000000000E+00 0. -1.
        -14    1    4    4    0    0 -0.22582592513E+02  0.70482766943E+02  0.25758942944E+02  0.78366555762E+02  0.00000000000E+00 0.  1.
</event>
<event>
12    1  0.1623092E-001  0.2323404E+03  0.7818608E-02  0.1125201E+00
         21   -1    0    0  503  502  0.00000000000E+00  0.00000000000E+00  0.80786573942E+02  0.80786573942E+02  0.00000000000E+00 0.  1.
         21   -1    0    0  501  503 -0.00000000000E+00 -0.00000000000E+00 -0.66763628725E+03  0.66763628725E+03  0.00000000000E+00 0.  1.
          6    2    1    2  501    0  0.15131318067E+03  0.40622271335E+02 -0.31793879336E+03  0.39378566267E+03  0.17156988148E+03 0.  0.
         24    2    3    3    0    0  0.17808600488E+03  0.52906114790E+02 -0.26985369747E+03  0.33719994563E+03  0.79806661234E+02 0.  0.
         -6    2    1    2    0  502 -0.15131318067E+03 -0.40622271335E+02 -0.26891091996E+03  0.35463719852E+03  0.17002532792E+03 0.  0.
        -24    2    5    5    0    0 -0.67646997021E+02 -0.36376876211E+02 -0.24338997363E+03  0.26693621582E+03  0.78210425920E+02 0.  0.
          5    1    3    3  501    0 -0.26772824216E+02 -0.12283843455E+02 -0.48085095887E+02  0.56585717040E+02  0.47000000000E+01 0. -1.
        -11    1    4    4    0    0  0.72035512758E+02  0.43850596570E+02 -0.65471269469E+02  0.10676365039E+03  0.00000000000E+00 0.  1.
         12    1    4    4    0    0  0.10605049213E+03  0.90555182194E+01 -0.20438242800E+03  0.23043629524E+03  0.00000000000E+00 0. -1.
         -5    1    5    5    0  502 -0.83666183649E+02 -0.42453951236E+01 -0.25520946323E+02  0.87700982704E+02  0.47000000000E+01 0.  1.
         13    1    6    6    0    0 -0.41498923193E+02  0.17970224870E+02 -0.69813495263E+02  0.83180609091E+02  0.00000000000E+00 0. -1.
        -14    1    6    6    0    0 -0.26148073828E+02 -0.54347101082E+02 -0.17357647837E+03  0.18375560673E+03  0.00000000000E+00 0.  1.
</event>
<event>
12    1  0.1623092E-001  0.3143217E+03  0.7818608E-02  0.1078895E+00
         21   -1    0    0  501  502  0.00000000000E+00  0.00000000000E+00  0.31430125127E+04  0.31430125127E+04  0.00000000000E+00 0.  1.
         21   -1    0    0  502  503 -0.00000000000E+00 -0.00000000000E+00 -0.31149847484E+02  0.31149847484E+02  0.00000000000E+00 0. -1.
         -6    2    1    2    0  503  0.23429627951E+03 -0.11947428150E+03  0.17022430286E+04  0.17310197656E+04  0.17213149031E+03 0.  0.
        -24    2    3    3    0    0  0.22870534398E+03 -0.11717655924E+03  0.17022168014E+04  0.17233628226E+04  0.80005618663E+02 0.  0.
          6    2    1    2  501    0 -0.23429627951E+03  0.11947428150E+03  0.14096196366E+04  0.14431425946E+04  0.16267814183E+03 0.  0.
         24    2    5    5    0    0 -0.17047458279E+03  0.17384129088E+02  0.85773533586E+03  0.87825855373E+03  0.79147896301E+02 0.  0.
          5    1    5    5  501    0 -0.63821696718E+02  0.10209015241E+03  0.55188430078E+03  0.56488404087E+03  0.47000000000E+01 0. -1.
        -13    1    6    6    0    0 -0.15310493251E+03  0.39419309963E+02  0.66763527403E+03  0.68609901727E+03  0.00000000000E+00 0.  1.
         14    1    6    6    0    0 -0.17369650281E+02 -0.22035180874E+02  0.19010006183E+03  0.19215953646E+03  0.00000000000E+00 0. -1.
         -5    1    3    3    0  503  0.55909355308E+01 -0.22977222594E+01  0.26227180938E-01  0.76569429641E+01  0.47000000000E+01 0.  1.
         11    1    4    4    0    0  0.17747702470E+03 -0.10160082711E+03  0.11060694149E+04  0.11248157062E+04  0.00000000000E+00 0. -1.
        -12    1    4    4    0    0  0.51228319279E+02 -0.15575732137E+02  0.59614738654E+03  0.59854711644E+03  0.00000000000E+00 0.  1.
</event>
<event>
12    1  0.1623092E-001  0.1849840E+03  0.7818608E-02  0.1164520E+00
         21   -1    0    0  501  502  0.00000000000E+00  0.00000000000E+00  0.11646602254E+03  0.11646602254E+03  0.00000000000E+00 0.  1.
         21   -1    0    0  502  503 -0.00000000000E+00 -0.00000000000E+00 -0.55657693788E+03  0.55657693788E+03  0.00000000000E+00 0. -1.
         -6    2    1    2    0  503  0.52353075028E+02 -0.39186294722E+02 -0.45735693846E+03  0.49335024712E+03  0.17303955334E+03 0.  0.
        -24    2    3    3    0    0  0.72351940132E+02 -0.29379202838E+02 -0.45685670941E+03  0.47058022548E+03  0.81423306722E+02 0.  0.
          6    2    1    2  501    0 -0.52353075028E+02  0.39186294722E+02  0.17246023123E+02  0.17969271329E+03  0.16648013617E+03 0.  0.
         24    2    5    5    0    0 -0.74730338477E+01 -0.29822451658E+02  0.39847118842E+02  0.94198124570E+02  0.79625805708E+02 0.  0.
          5    1    5    5  501    0 -0.44880041181E+02  0.69008746380E+02 -0.22601095719E+02  0.85494588724E+02  0.47000000000E+01 0. -1.
        -13    1    6    6    0    0 -0.31046932653E+02 -0.25029465771E+02 -0.79723023942E+01  0.40668707742E+02  0.00000000000E+00 0.  1.
         14    1    6    6    0    0  0.23573898805E+02 -0.47929858874E+01  0.47819421236E+02  0.53529416828E+02  0.00000000000E+00 0. -1.
         -5    1    3    3    0  503 -0.19998865104E+02 -0.98070918837E+01 -0.50022905043E+00  0.22770021646E+02  0.47000000000E+01 0.  1.
         13    1    4    4    0    0  0.35021066540E+02 -0.49377482867E+02 -0.16674360149E+03  0.17739233228E+03  0.00000000000E+00 0. -1.
        -14    1    4    4    0    0  0.37330873592E+02  0.19998280029E+02 -0.29011310792E+03  0.29318789319E+03  0.00000000000E+00 0.  1.
</event>
<event>
12    1  0.1623092E-001  0.1817317E+03  0.7818608E-02  0.1166418E+00
         21   -1    0    0  501  502  0.00000000000E+00  0.00000000000E+00  0.76769181187E+02  0.76769181187E+02  0.00000000000E+00 0.  1.
         21   -1    0    0  502  503 -0.00000000000E+00 -0.00000000000E+00 -0.45996433993E+03  0.45996433993E+03  0.00000000000E+00 0.  1.
         -6    2    1    2    0  503  0.51726300136E+02  0.18094926527E+02 -0.26353652441E+03  0.32012169235E+03  0.17327250711E+03 0.  0.
        -24    2    3    3    0    0  0.29903251242E+02 -0.55931757278E+02 -0.16413254521E+03  0.19418743784E+03  0.82138314501E+02 0.  0.
          6    2    1    2  501    0 -0.51726300136E+02 -0.18094926527E+02 -0.11965863434E+03  0.21661182877E+03  0.17204493338E+03 0.  0.
         24    2    5    5    0    0 -0.68639379935E+02  0.33421690836E+02 -0.32854115005E+02  0.11415633254E+03  0.78255360769E+02 0.  0.
          5    1    5    5  501    0  0.16913079800E+02 -0.51516617364E+02 -0.86804519330E+02  0.10245549624E+03  0.47000000000E+01 0. -1.
        -13    1    6    6    0    0 -0.77609970628E+02  0.31190081849E+01 -0.21761423798E+02  0.80663469543E+02  0.00000000000E+00 0.  1.
         14    1    6    6    0    0  0.89705906932E+01  0.30302682652E+02 -0.11092691207E+02  0.33492862993E+02  0.00000000000E+00 0. -1.
         -5    1    3    3    0  503  0.21823048894E+02  0.74026683806E+02 -0.99403979198E+02  0.12593425451E+03  0.47000000000E+01 0.  1.
         13    1    4    4    0    0  0.59619962198E+01 -0.35134411754E+02 -0.15789529446E+03  0.16186690923E+03  0.00000000000E+00 0. -1.
        -14    1    4    4    0    0  0.23941255022E+02 -0.20797345524E+02 -0.62372507478E+01  0.32320528612E+02  0.00000000000E+00 0.  1.
</event>
<event>
12    1  0.1623092E-001  0.2235604E+03  0.7818608E-02  0.1131584E+00
         21   -1    0    0  501  502  0.00000000000E+00  0.00000000000E+00  0.21482210480E+03  0.21482210480E+03  0.00000000000E+00 0. -1.
         21   -1    0    0  502  503 -0.00000000000E+00 -0.00000000000E+00 -0.33798384353E+03  0.33798384353E+03  0.00000000000E+00 0. -1.
         -6    2    1    2    0  503  0.55955871673E+01 -0.14386161780E+03 -0.21706837460E+03  0.31032356555E+03  0.16868479603E+03 0.  0.
        -24    2    3    3    0    0 -0.38781723372E+02 -0.14673928589E+03 -0.19756522392E+03  0.26153740408E+03  0.79582384614E+02 0.  0.
          6    2    1    2  501    0 -0.55955871673E+01  0.14386161780E+03  0.93906635871E+02  0.24248238278E+03  0.17103150010E+03 0.  0.
         24    2    5    5    0    0  0.11864222284E+02  0.27556067338E+01  0.14605064448E+02  0.79612555819E+02  0.77307813303E+02 0.  0.
          5    1    5    5  501    0 -0.17459809451E+02  0.14110601106E+03  0.79301571423E+02  0.16286982696E+03  0.47000000000E+01 0. -1.
        -13    1    6    6    0    0 -0.17397683346E+02 -0.29530300967E+02  0.23798998701E+01  0.34356687623E+02  0.00000000000E+00 0.  1.
         14    1    6    6    0    0  0.29261905630E+02  0.32285907701E+02  0.12225164578E+02  0.45255868196E+02  0.00000000000E+00 0. -1.
         -5    1    3    3    0  503  0.44377310539E+02  0.28776680918E+01 -0.19503150681E+02  0.48786161469E+02  0.47000000000E+01 0.  1.
         13    1    4    4    0    0 -0.72747340030E+01 -0.39579079093E+02 -0.11725000952E+03  0.12396366399E+03  0.00000000000E+00 0. -1.
        -14    1    4    4    0    0 -0.31506989369E+02 -0.10716020679E+03 -0.80315214396E+02  0.13757374009E+03  0.00000000000E+00 0.  1.
</event>
<event>
12    1  0.1623092E-001  0.2238173E+03  0.7818608E-02  0.1131087E+00
         21   -1    0    0  501  502  0.00000000000E+00  0.00000000000E+00  0.19390238304E+03  0.19390238304E+03  0.00000000000E+00 0.  1.
         21   -1    0    0  502  503 -0.00000000000E+00 -0.00000000000E+00 -0.50744648409E+03  0.50744648409E+03  0.00000000000E+00 0.  1.
         -6    2    1    2    0  503  0.22554473252E+02  0.14190625513E+03 -0.40254256102E+03  0.46058083306E+03  0.17160448957E+03 0.  0.
        -24    2    3    3    0    0  0.56810372928E+02  0.46126835219E+02 -0.13289407009E+03  0.17234557741E+03  0.81774450699E+02 0.  0.
          6    2    1    2  501    0 -0.22554473252E+02 -0.14190625513E+03  0.88998459972E+02  0.24076803407E+03  0.17147137034E+03 0.  0.
         24    2    5    5    0    0 -0.42684768100E+02 -0.36100198330E+02 -0.53888805323E+01  0.97480873191E+02  0.79676011807E+02 0.  0.
          5    1    5    5  501    0  0.20130294848E+02 -0.10580605680E+03  0.94387340504E+02  0.14328716088E+03  0.47000000000E+01 0. -1.
        -13    1    6    6    0    0 -0.31978932556E+02 -0.62876710392E+01  0.33891591157E+02  0.47019430937E+02  0.00000000000E+00 0.  1.
         14    1    6    6    0    0 -0.10705835544E+02 -0.29812527291E+02 -0.39280471689E+02  0.50461442254E+02  0.00000000000E+00 0. -1.
         -5    1    3    3    0  503 -0.34255899676E+02  0.95779419906E+02 -0.26964849092E+03  0.28823525565E+03  0.47000000000E+01 0.  1.
         13    1    4    4    0    0  0.19280733296E+02 -0.23645890949E+02 -0.36640016648E+02  0.47679824404E+02  0.00000000000E+00 0. -1.
        -14    1    4    4    0    0  0.37529639632E+02  0.69772726168E+02 -0.96254053445E+02  0.12466575301E+03  0.00000000000E+00 0.  1.
</event>
<event>
12    1  0.1623092E-001  0.1848865E+03  0.7818608E-02  0.1163540E+00
         21   -1    0    0  501  502  0.00000000000E+00  0.00000000000E+00  0.13585537572E+02  0.13585537572E+02  0.00000000000E+00 0. -1.
         21   -1    0    0  502  503 -0.00000000000E+00 -0.00000000000E+00 -0.27825769733E+04  0.27825769733E+04  0.00000000000E+00 0. -1.
         -6    2    1    2    0  503  0.44542992153E+02 -0.45692655541E+02 -0.18403169035E+04  0.18495808550E+04  0.17352560832E+03 0.  0.
        -24    2    3    3    0    0  0.49898761167E+02  0.40396545903E+02 -0.10557434434E+04  0.10602661907E+04  0.73813343041E+02 0.  0.
          6    2    1    2  501    0 -0.44542992153E+02  0.45692655541E+02 -0.92867453222E+03  0.94658165592E+03  0.17178052164E+03 0.  0.
         24    2    5    5    0    0 -0.63831706536E+02  0.33489060531E+02 -0.91082802049E+03  0.91722913959E+03  0.80657347321E+02 0.  0.
          5    1    5    5  501    0  0.19288714383E+02  0.12203595010E+02 -0.17846511726E+02  0.29352516323E+02  0.47000000000E+01 0. -1.
        -13    1    6    6    0    0 -0.24683624035E+02  0.54248943312E+02 -0.64342118181E+03  0.64617570857E+03  0.00000000000E+00 0.  1.
         14    1    6    6    0    0 -0.39148082501E+02 -0.20759882781E+02 -0.26740683868E+03  0.27105343102E+03  0.00000000000E+00 0. -1.
         -5    1    3    3    0  503 -0.53557690144E+01 -0.86089201444E+02 -0.78457346011E+03  0.78931466424E+03  0.47000000000E+01 0.  1.
         11    1    4    4    0    0  0.39937363015E+02 -0.78969503720E+01 -0.27845684968E+03  0.28141707823E+03  0.00000000000E+00 0. -1.
        -12    1    4    4    0    0  0.99613981524E+01  0.48293496275E+02 -0.77728659375E+03  0.77884911251E+03  0.00000000000E+00 0.  1.
</event>
<event>
12    1  0.1623092E-001  0.2081105E+03  0.7818608E-02  0.1145818E+00
         21   -1    0    0  503  502  0.00000000000E+00  0.00000000000E+00  0.30867986436E+03  0.30867986436E+03  0.00000000000E+00 0. -1.
         21   -1    0    0  501  503 -0.00000000000E+00 -0.00000000000E+00 -0.13225936605E+03  0.13225936605E+03  0.00000000000E+00 0. -1.
          6    2    1    2  501    0  0.54972743927E+02 -0.82203065411E+02  0.74662881493E+02  0.22109845345E+03  0.18311371797E+03 0.  0.
         24    2    3    3    0    0 -0.67647012748E+01 -0.53859116379E+02 -0.25257682602E+02  0.10018070986E+03  0.80322216709E+02 0.  0.
         -6    2    1    2    0  502 -0.54972743927E+02  0.82203065411E+02  0.10175761682E+03  0.21984077696E+03  0.16791667010E+03 0.  0.
        -24    2    5    5    0    0 -0.24816516801E+02  0.53863928146E+02 -0.11524404635E+02  0.99145246310E+02  0.78611613025E+02 0.  0.
          5    1    3    3  501    0  0.61737445202E+02 -0.28343949033E+02  0.99920564095E+02  0.12091774359E+03  0.47000000000E+01 0. -1.
        -13    1    4    4    0    0 -0.35467008049E+02 -0.83381948846E+01  0.74756874800E+01  0.37193010864E+02  0.00000000000E+00 0.  1.
         14    1    4    4    0    0  0.28702306774E+02 -0.45520921494E+02 -0.32733370082E+02  0.62987698995E+02  0.00000000000E+00 0. -1.
         -5    1    5    5    0  502 -0.30156227126E+02  0.28339137266E+02  0.11328202145E+03  0.12069553065E+03  0.47000000000E+01 0.  1.
         11    1    6    6    0    0 -0.47634397258E+02  0.17777138010E+02  0.92268026249E+01  0.51673942414E+02  0.00000000000E+00 0. -1.
        -12    1    6    6    0    0  0.22817880457E+02  0.36086790136E+02 -0.20751207260E+02  0.47471303896E+02  0.00000000000E+00 0.  1.
</event>
<event>
12    1  0.1623092E-001  0.1832413E+03  0.7818608E-02  0.1164826E+00
         21   -1    0    0  503  502  0.00000000000E+00  0.00000000000E+00  0.14299938019E+03  0.14299938019E+03  0.00000000000E+00 0.  1.
         21   -1    0    0  501  503 -0.00000000000E+00 -0.00000000000E+00 -0.34344135016E+03  0.34344135016E+03  0.00000000000E+00 0.  1.
          6    2    1    2  501    0 -0.42372079090E+02  0.44300632117E+02 -0.23752871761E+03  0.29999545620E+03  0.17268307084E+03 0.  0.
         24    2    3    3    0    0 -0.73980818645E+02  0.23828619471E+02 -0.77412051433E+02  0.13544256954E+03  0.79442427604E+02 0.  0.
         -6    2    1    2    0  502  0.42372079090E+02 -0.44300632117E+02  0.37086747645E+02  0.18644527416E+03  0.17212923724E+03 0.  0.
        -24    2    5    5    0    0  0.42577898951E+02  0.92280492403E+01  0.68601565187E+02  0.12415052466E+03  0.93857038394E+02 0.  0.
          5    1    3    3  501    0  0.31608739555E+02  0.20472012646E+02 -0.16011666618E+03  0.16455288666E+03  0.47000000000E+01 0. -1.
        -11    1    4    4    0    0 -0.24696142866E+02  0.49655000818E+02 -0.40479852164E+02  0.68659573331E+02  0.00000000000E+00 0.  1.
         12    1    4    4    0    0 -0.49284675779E+02 -0.25826381347E+02 -0.36932199269E+02  0.66782996211E+02  0.00000000000E+00 0. -1.
         -5    1    5    5    0  502 -0.20581986152E+00 -0.53528681357E+02 -0.31514817542E+02  0.62294749493E+02  0.47000000000E+01 0.  1.
         13    1    6    6    0    0 -0.11088884848E+02 -0.10750508918E+02 -0.15839685440E+02  0.22123120124E+02  0.00000000000E+00 0. -1.
        -14    1    6    6    0    0  0.53666783799E+02  0.19978558159E+02  0.84441250627E+02  0.10202740454E+03  0.00000000000E+00 0.  1.
</event>
<event>
12    1  0.1623092E-001  0.2118346E+03  0.7818608E-02  0.1141596E+00
         21   -1    0    0  501  502  0.00000000000E+00  0.00000000000E+00  0.14024642278E+03  0.14024642278E+03  0.00000000000E+00 0.  1.
         21   -1    0    0  502  503 -0.00000000000E+00 -0.00000000000E+00 -0.44837810729E+03  0.44837810729E+03  0.00000000000E+00 0. -1.
         -6    2    1    2    0  503  0.10636248106E+03 -0.45347233335E+02 -0.32008180722E+03  0.38383100442E+03  0.17749514837E+03 0.  0.
        -24    2    3    3    0    0  0.47904587391E+02 -0.96952972122E+02 -0.20076028805E+03  0.24121195750E+03  0.78637057968E+02 0.  0.
          6    2    1    2  501    0 -0.10636248106E+03  0.45347233335E+02  0.11950122718E+02  0.20479352565E+03  0.16860674294E+03 0.  0.
         24    2    5    5    0    0 -0.11480689321E+03 -0.16816263591E+02  0.34780377973E+01  0.14131538240E+03  0.80588653711E+02 0.  0.
          5    1    5    5  501    0  0.84444121497E+01  0.62163496926E+02  0.84720849212E+01  0.63478143243E+02  0.47000000000E+01 0. -1.
        -13    1    6    6    0    0 -0.94795465509E+02  0.13337655347E+02 -0.20504104697E+02  0.97900416959E+02  0.00000000000E+00 0.  1.
         14    1    6    6    0    0 -0.20011427703E+02 -0.30153918939E+02  0.23982142494E+02  0.43414965446E+02  0.00000000000E+00 0. -1.
         -5    1    3    3    0  503  0.58457893672E+02  0.51605738787E+02 -0.11932151917E+03  0.14261904692E+03  0.47000000000E+01 0.  1.
         11    1    4    4    0    0 -0.48089215873E+01 -0.46378229324E+02 -0.13534841513E+03  0.14315466936E+03  0.00000000000E+00 0. -1.
        -12    1    4    4    0    0  0.52713508979E+02 -0.50574742798E+02 -0.65411872925E+02  0.98057288140E+02  0.00000000000E+00 0.  1.
</event>
<event>
12    1  0.1623092E-001  0.1951734E+03  0.7818608E-02  0.1154099E+00
         21   -1    0    0  503  502  0.00000000000E+00  0.00000000000E+00  0.25565751126E+03  0.25565751126E+03  0.00000000000E+00 0.  1.
         21   -1    0    0  501  503 -0.00000000000E+00 -0.00000000000E+00 -0.18092734958E+03  0.18092734958E+03  0.00000000000E+00 0. -1.
          6    2    1    2  501    0  0.21440419471E+02 -0.90387715360E+02 -0.55528233756E+02  0.20193638205E+03  0.17048544506E+03 0.  0.
         24    2    3    3    0    0 -0.45420598208E+02 -0.80427474178E+02 -0.14072795386E+02  0.12249932861E+03  0.79223939530E+02 0.  0.
         -6    2    1    2    0  502 -0.21440419471E+02  0.90387715360E+02  0.13025839543E+03  0.23464847879E+03  0.17164797798E+03 0.  0.
        -24    2    5    5    0    0  0.27059376139E+02  0.11103710013E+03  0.86929080062E+02  0.16625149906E+03  0.83794084146E+02 0.  0.
          5    1    3    3  501    0  0.66861017679E+02 -0.99602411822E+01 -0.41455438370E+02  0.79437053444E+02  0.47000000000E+01 0. -1.
        -11    1    4    4    0    0  0.81253184687E+01 -0.22989064165E+02  0.24886102208E+02  0.34840148600E+02  0.00000000000E+00 0.  1.
         12    1    4    4    0    0 -0.53545916676E+02 -0.57438410012E+02 -0.38958897594E+02  0.87659180005E+02  0.00000000000E+00 0. -1.
         -5    1    5    5    0  502 -0.48499795610E+02 -0.20649384770E+02  0.43329315372E+02  0.68396979730E+02  0.47000000000E+01 0.  1.
         11    1    6    6    0    0  0.31919278953E+02  0.12168748917E+02 -0.52646193281E+00  0.34164250047E+02  0.00000000000E+00 0. -1.
        -12    1    6    6    0    0 -0.48599028145E+01  0.98868351214E+02  0.87455541994E+02  0.13208724902E+03  0.00000000000E+00 0.  1.
</event>
<event>
12    1  0.1623092E-001  0.2203799E+03  0.7818608E-02  0.1133773E+00
         21   -1    0    0  501  502  0.00000000000E+00  0.00000000000E+00  0.97700054505E+02  0.97700054505E+02  0.00000000000E+00 0.  1.
         21   -1    0    0  502  503 -0.00000000000E+00 -0.00000000000E+00 -0.14878361528E+04  0.14878361528E+04  0.00000000000E+00 0.  1.
         -6    2    1    2    0  503 -0.13607189892E+03 -0.17287876854E+02 -0.13431539262E+04  0.13611134302E+04  0.17249019658E+03 0.  0.
        -24    2    3    3    0    0 -0.15417924091E+03  0.31061318115E+01 -0.12804446670E+04  0.12925690459E+04  0.86112175616E+02 0.  0.
          6    2    1    2  501    0  0.13607189892E+03  0.17287876854E+02 -0.46982172056E+02  0.22442277711E+03  0.17130039706E+03 0.  0.
         24    2    5    5    0    0  0.12389967019E+03 -0.21927265487E+01  0.24501858666E+02  0.14919170833E+03  0.79384434468E+02 0.  0.
          5    1    5    5  501    0  0.12172228735E+02  0.19480603402E+02 -0.71484030723E+02  0.75231068779E+02  0.47000000000E+01 0. -1.
        -11    1    6    6    0    0  0.79233184390E+02  0.34881491507E+02  0.10298089960E+01  0.86577574838E+02  0.00000000000E+00 0.  1.
         12    1    6    6    0    0  0.44666485795E+02 -0.37074218055E+02  0.23472049670E+02  0.62614133496E+02  0.00000000000E+00 0. -1.
         -5    1    3    3    0  503  0.18107341987E+02 -0.20394008665E+02 -0.62709259211E+02  0.68544384263E+02  0.47000000000E+01 0.  1.
         13    1    4    4    0    0 -0.19781077701E+02 -0.12628972488E+02 -0.49481064390E+03  0.49536688959E+03  0.00000000000E+00 0. -1.
        -14    1    4    4    0    0 -0.13439816321E+03  0.15735104299E+02 -0.78563402313E+03  0.79720215635E+03  0.00000000000E+00 0.  1.
</event>
<event>
12    1  0.1623092E-001  0.2126162E+03  0.7818608E-02  0.1139554E+00
         21   -1    0    0  501  502  0.00000000000E+00  0.00000000000E+00  0.41778984876E+03  0.41778984876E+03  0.00000000000E+00 0. -1.
         21   -1    0    0  502  503 -0.00000000000E+00 -0.00000000000E+00 -0.21362111039E+03  0.21362111039E+03  0.00000000000E+00 0. -1.
         -6    2    1    2    0  503 -0.31551881537E+02 -0.12052621029E+03 -0.11978654430E+03  0.24403786789E+03  0.17228922246E+03 0.  0.
        -24    2    3    3    0    0  0.36258289546E+02 -0.21594871304E+02 -0.42069954332E+02  0.10104280682E+03  0.81601260557E+02 0.  0.
          6    2    1    2  501    0  0.31551881537E+02  0.12052621029E+03  0.32395528266E+03  0.38737309126E+03  0.17201394732E+03 0.  0.
         24    2    5    5    0    0 -0.92430833584E+01  0.29965082147E+01  0.12644180862E+03  0.15389692018E+03  0.87191269200E+02 0.  0.
          5    1    5    5  501    0  0.40794964896E+02  0.11752970207E+03  0.19751347405E+03  0.23347617108E+03  0.47000000000E+01 0. -1.
        -11    1    6    6    0    0 -0.39994355016E+02  0.27392933160E+02  0.69394707882E+02  0.84649552286E+02  0.00000000000E+00 0.  1.
         12    1    6    6    0    0  0.30751271657E+02 -0.24396424946E+02  0.57047100734E+02  0.69247367898E+02  0.00000000000E+00 0. -1.
         -5    1    3    3    0  503 -0.67810171083E+02 -0.98931338984E+02 -0.77716589965E+02  0.14299506107E+03  0.47000000000E+01 0.  1.
         13    1    4    4    0    0  0.38479046889E+02 -0.50020563367E+02 -0.25503278195E+02  0.68066959736E+02  0.00000000000E+00 0. -1.
        -14    1    4    4    0    0 -0.22207573431E+01  0.28425692063E+02 -0.16566676137E+02  0.32975847080E+02  0.00000000000E+00 0.  1.
</event>
<event>
12    1  0.1623092E-001  0.2182930E+03  0.7818608E-02  0.1135318E+00
         21   -1    0    0  503  502  0.00000000000E+00  0.00000000000E+00  0.94998173460E+03  0.94998173460E+03  0.00000000000E+00 0. -1.
         21   -1    0    0  501  503 -0.00000000000E+00 -0.00000000000E+00 -0.65007828257E+02  0.65007828257E+02  0.00000000000E+00 0. -1.
          6    2    1    2  501    0 -0.24781097667E+02 -0.13044589082E+03  0.19905694733E+03  0.29542427396E+03  0.17326742374E+03 0.  0.
         24    2    3    3    0    0 -0.78517454782E+02 -0.59625042115E+02  0.12607052551E+03  0.18030565489E+03  0.83043455063E+02 0.  0.
         -6    2    1    2    0  502  0.24781097667E+02  0.13044589082E+03  0.68591695901E+03  0.71956528889E+03  0.17222629617E+03 0.  0.
        -24    2    5    5    0    0  0.15436980566E+02  0.11953866626E+03  0.29580782244E+03  0.32916356181E+03  0.79489555986E+02 0.  0.
          5    1    3    3  501    0  0.53736357116E+02 -0.70820848703E+02  0.72986421819E+02  0.11511861907E+03  0.47000000000E+01 0. -1.
        -11    1    4    4    0    0 -0.82701144294E+02 -0.40521339235E+02  0.56514181952E+02  0.10805235288E+03  0.00000000000E+00 0.  1.
         12    1    4    4    0    0  0.41836895119E+01 -0.19103702879E+02  0.69556343561E+02  0.72253302009E+02  0.00000000000E+00 0. -1.
         -5    1    5    5    0  502  0.93441171008E+01  0.10907224562E+02  0.39010913657E+03  0.39040172708E+03  0.47000000000E+01 0.  1.
         11    1    6    6    0    0  0.44471447376E+02  0.99741002015E+02  0.22685864812E+03  0.25177534300E+03  0.00000000000E+00 0. -1.
        -12    1    6    6    0    0 -0.29034466810E+02  0.19797664241E+02  0.68949174312E+02  0.77388218810E+02  0.00000000000E+00 0.  1.
</event>
<event>
12    1  0.1623092E-001  0.3023564E+03  0.7818608E-02  0.1084079E+00
         21   -1    0    0  503  502  0.00000000000E+00  0.00000000000E+00  0.50582125194E+02  0.50582125194E+02  0.00000000000E+00 0. -1.
         21   -1    0    0  501  503 -0.00000000000E+00 -0.00000000000E+00 -0.20010142997E+04  0.20010142997E+04  0.00000000000E+00 0.  1.
          6    2    1    2  501    0 -0.24305682741E+03  0.51906362608E+02 -0.12948952306E+04  0.13297266829E+04  0.17218740088E+03 0.  0.
         24    2    3    3    0    0 -0.26072623815E+03  0.47548563022E+02 -0.11145875562E+04  0.11484419732E+04  0.79840518171E+02 0.  0.
         -6    2    1    2    0  502  0.24305682741E+03 -0.51906362608E+02 -0.65553694390E+03  0.72186974204E+03  0.17203589109E+03 0.  0.
        -24    2    5    5    0    0  0.25755752978E+03 -0.54557297984E+02 -0.64899933819E+03  0.70507307225E+03  0.81335824416E+02 0.  0.
          5    1    3    3  501    0  0.17669410736E+02  0.43577995857E+01 -0.18030767448E+03  0.18128470969E+03  0.47000000000E+01 0. -1.
        -13    1    4    4    0    0 -0.33782497032E+01  0.84861914440E+00 -0.11963523795E+03  0.11968593436E+03  0.00000000000E+00 0.  1.
         14    1    4    4    0    0 -0.25734798845E+03  0.46699943878E+02 -0.99495231822E+03  0.10287560388E+04  0.00000000000E+00 0. -1.
         -5    1    5    5    0  502 -0.14500702364E+02  0.26509353755E+01 -0.65376057017E+01  0.16796669780E+02  0.47000000000E+01 0.  1.
         11    1    6    6    0    0  0.20996938854E+03 -0.71760677038E+02 -0.48298142884E+03  0.53151462773E+03  0.00000000000E+00 0. -1.
        -12    1    6    6    0    0  0.47588141238E+02  0.17203379054E+02 -0.16601790936E+03  0.17355844452E+03  0.00000000000E+00 0.  1.
</event>
<event>
12    1  0.1623092E-001  0.1817178E+03  0.7818608E-02  0.1166579E+00
         21   -1    0    0  503  502  0.00000000000E+00  0.00000000000E+00  0.32537765134E+03  0.32537765134E+03  0.00000000000E+00 0.  1.
         21   -1    0    0  501  503 -0.00000000000E+00 -0.00000000000E+00 -0.21604004534E+03  0.21604004534E+03  0.00000000000E+00 0. -1.
          6    2    1    2  501    0  0.52613946585E+02  0.20515480460E+02 -0.14318145925E+03  0.23134886643E+03  0.17272016504E+03 0.  0.
         24    2    3    3    0    0  0.84257906425E+02 -0.13325445283E+02 -0.52491731812E+02  0.12940150201E+03  0.81929265383E+02 0.  0.
         -6    2    1    2    0  502 -0.52613946585E+02 -0.20515480460E+02  0.25251906525E+03  0.31006883025E+03  0.17084404837E+03 0.  0.
        -24    2    5    5    0    0 -0.35248214419E+02 -0.46701959298E+02  0.69678111077E+02  0.12448810697E+03  0.84963168449E+02 0.  0.
          5    1    3    3  501    0 -0.31643959841E+02  0.33840925744E+02 -0.90689727439E+02  0.10194736442E+03  0.47000000000E+01 0. -1.
        -11    1    4    4    0    0 -0.11609238021E+02  0.39734294057E+01  0.80784670541E+01  0.14690955674E+02  0.00000000000E+00 0.  1.
         12    1    4    4    0    0  0.95867144446E+02 -0.17298874689E+02 -0.60570198866E+02  0.11471054633E+03  0.00000000000E+00 0. -1.
         -5    1    5    5    0  502 -0.17365732165E+02  0.26186478837E+02  0.18284095417E+03  0.18558072327E+03  0.47000000000E+01 0.  1.
         13    1    6    6    0    0  0.15085724633E+02 -0.70248192543E+01  0.56704931624E+02  0.59096331898E+02  0.00000000000E+00 0. -1.
        -14    1    6    6    0    0 -0.50333939053E+02 -0.39677140044E+02  0.12973179453E+02  0.65391775077E+02  0.00000000000E+00 0.  1.
</event>
<event>
12    1  0.1623092E-001  0.2329452E+03  0.7818608E-02  0.1124818E+00
         21   -1    0    0  501  502  0.00000000000E+00  0.00000000000E+00  0.51988317606E+03  0.51988317606E+03  0.00000000000E+00 0.  1.
         21   -1    0    0  502  503 -0.00000000000E+00 -0.00000000000E+00 -0.10982599618E+03  0.10982599618E+03  0.00000000000E+00 0. -1.
         -6    2    1    2    0  503 -0.15676940900E+03 -0.14920422473E+02  0.13054787396E+03  0.26585627631E+03  0.16981621140E+03 0.  0.
        -24    2    3    3    0    0 -0.60718777023E+02 -0.40648865566E+02  0.90772127637E+01  0.10880568504E+03  0.80107310219E+02 0.  0.
          6    2    1    2  501    0  0.15676940900E+03  0.14920422473E+02  0.27950930591E+03  0.36385289592E+03  0.17165142345E+03 0.  0.
         24    2    5    5    0    0  0.64624880519E+02  0.27564991217E+02  0.23854719477E+03  0.26211556847E+03  0.82846865832E+02 0.  0.
          5    1    5    5  501    0  0.92144528483E+02 -0.12644568744E+02  0.40962111147E+02  0.10173732746E+03  0.47000000000E+01 0. -1.
        -11    1    6    6    0    0  0.46324668242E+02  0.56929371207E+02  0.14844718840E+03  0.16560041043E+03  0.00000000000E+00 0.  1.
         12    1    6    6    0    0  0.18300212277E+02 -0.29364379990E+02  0.90100006371E+02  0.96515158031E+02  0.00000000000E+00 0. -1.
         -5    1    3    3    0  503 -0.96050631979E+02  0.25728443093E+02  0.12147066120E+03  0.15705059127E+03  0.47000000000E+01 0.  1.
         11    1    4    4    0    0 -0.45474051062E+02  0.57867268043E+01 -0.22042691786E+02  0.50865074346E+02  0.00000000000E+00 0. -1.
        -12    1    4    4    0    0 -0.15244725961E+02 -0.46435592370E+02  0.31119904549E+02  0.57940610694E+02  0.00000000000E+00 0.  1.
</event>
<event>
12    1  0.1623092E-001  0.1783457E+03  0.7818608E-02  0.1170319E+00
         21   -1    0    0  501  502  0.00000000000E+00  0.00000000000E+00  0.46952408188E+02  0.46952408188E+02  0.00000000000E+00 0.  1.
         21   -1    0    0  502  503 -0.00000000000E+00 -0.00000000000E+00 -0.89931621647E+03  0.89931621647E+03  0.00000000000E+00 0.  1.
         -6    2    1    2    0  503 -0.28186649338E+02 -0.17083032368E+02 -0.66513140811E+03  0.68768947698E+03  0.17155380930E+03 0.  0.
        -24    2    3    3    0    0  0.49298245845E+02 -0.15987962356E+02 -0.31180037491E+03  0.32592986455E+03  0.79529056483E+02 0.  0.
          6    2    1    2  501    0  0.28186649338E+02  0.17083032368E+02 -0.18723240017E+03  0.25857914768E+03  0.17527374803E+03 0.  0.
         24    2    5    5    0    0  0.28368618626E+02  0.66148170515E+02 -0.62063827343E+02  0.12405523711E+03  0.79733457241E+02 0.  0.
          5    1    5    5  501    0 -0.18196928751E+00 -0.49065138146E+02 -0.12516857283E+03  0.13452391058E+03  0.47000000000E+01 0. -1.
        -11    1    6    6    0    0 -0.13657494267E+02  0.76850477584E+01 -0.48263133465E+02  0.50743641577E+02  0.00000000000E+00 0.  1.
         12    1    6    6    0    0  0.42026112893E+02  0.58463122756E+02 -0.13800693878E+02  0.73311595528E+02  0.00000000000E+00 0. -1.
         -5    1    3    3    0  503 -0.77484895184E+02 -0.10950700128E+01 -0.35333103320E+03  0.36175961243E+03  0.47000000000E+01 0.  1.
         13    1    4    4    0    0 -0.12534047525E+02 -0.11651316591E+01 -0.66721008974E+01  0.14246992999E+02  0.00000000000E+00 0. -1.
        -14    1    4    4    0    0  0.61832293371E+02 -0.14822830697E+02 -0.30512827401E+03  0.31168287155E+03  0.00000000000E+00 0.  1.
</event>
<event>
12    1  0.1623092E-001  0.1718304E+03  0.7818608E-02  0.1176734E+00
         21   -1    0    0  503  502  0.00000000000E+00  0.00000000000E+00  0.73285069260E+02  0.73285069260E+02  0.00000000000E+00 0. -1.
         21   -1    0    0  501  503 -0.00000000000E+00 -0.00000000000E+00 -0.60361422801E+03  0.60361422801E+03  0.00000000000E+00 0. -1.
          6    2    1    2  501    0  0.87032580501E+01  0.10573072462E+02 -0.46218134066E+03  0.49204855027E+03  0.16826362532E+03 0.  0.
         24    2    3    3    0    0  0.54985207516E+02 -0.22485539804E+02 -0.19776825745E+03  0.22154668473E+03  0.80260060496E+02 0.  0.
         -6    2    1    2    0  502 -0.87032580501E+01 -0.10573072462E+02 -0.68147818088E+02  0.18485074700E+03  0.17128379081E+03 0.  0.
        -24    2    5    5    0    0  0.95298006948E+01  0.43227533121E+02 -0.86679002245E+02  0.12491374358E+03  0.78299151878E+02 0.  0.
          5    1    3    3  501    0 -0.46281949466E+02  0.33058612266E+02 -0.26441308321E+03  0.27050186554E+03  0.47000000000E+01 0. -1.
        -11    1    4    4    0    0  0.24775992970E+01 -0.27546633281E+02 -0.15302780969E+02  0.31609027331E+02  0.00000000000E+00 0.  1.
         12    1    4    4    0    0  0.52507608219E+02  0.50610934764E+01 -0.18246547648E+03  0.18993765739E+03  0.00000000000E+00 0. -1.
         -5    1    5    5    0  502 -0.18233058745E+02 -0.53800605583E+02  0.18531184157E+02  0.59937003416E+02  0.47000000000E+01 0.  1.
         13    1    6    6    0    0 -0.29532906041E+02  0.41196767305E+02 -0.52375664968E+02  0.72887423171E+02  0.00000000000E+00 0. -1.
        -14    1    6    6    0    0  0.39062706736E+02  0.20307658158E+01 -0.34303337278E+02  0.52026320413E+02  0.00000000000E+00 0.  1.
</event>
<event>
12    1  0.1623092E-001  0.2251712E+03  0.7818608E-02  0.1130190E+00
         21   -1    0    0  503  502  0.00000000000E+00  0.00000000000E+00  0.53801309897E+02  0.53801309897E+02  0.00000000000E+00 0. -1.
         21   -1    0    0  501  503 -0.00000000000E+00 -0.00000000000E+00 -0.17860714130E+04  0.17860714130E+04  0.00000000000E+00 0.  1.
          6    2    1    2  501    0  0.10695504415E+03  0.98779345708E+02 -0.14987158058E+04  0.15154506708E+04  0.17101148621E+03 0.  0.
         24    2    3    3    0    0  0.37936631088E+02  0.11884641677E+03 -0.11402872149E+04  0.11498561228E+04  0.79690100401E+02 0.  0.
         -6    2    1    2    0  502 -0.10695504415E+03 -0.98779345708E+02 -0.23355429723E+03  0.32442205204E+03  0.17177111948E+03 0.  0.
        -24    2    5    5    0    0 -0.49759598823E+02 -0.47853685934E+02 -0.22323593760E+03  0.24700564334E+03  0.80071911894E+02 0.  0.
          5    1    3    3  501    0  0.69018413067E+02 -0.20067071064E+02 -0.35842859098E+03  0.36559454798E+03  0.47000000000E+01 0. -1.
        -11    1    4    4    0    0  0.32775543907E+02  0.10017990683E+03 -0.11012094082E+04  0.11062424737E+04  0.00000000000E+00 0.  1.
         12    1    4    4    0    0  0.51610871810E+01  0.18666509945E+02 -0.39077806708E+02  0.43613649142E+02  0.00000000000E+00 0. -1.
         -5    1    5    5    0  502 -0.57195445331E+02 -0.50925659775E+02 -0.10318359630E+02  0.77416408697E+02  0.47000000000E+01 0.  1.
         13    1    6    6    0    0 -0.49557842923E+02 -0.45583501203E+02 -0.83569144923E+02  0.10732025606E+03  0.00000000000E+00 0. -1.
        -14    1    6    6    0    0 -0.20175590018E+00 -0.22701847306E+01 -0.13966679268E+03  0.13968538729E+03  0.00000000000E+00 0.  1.
</event>
<event>
12    1  0.1623092E-001  0.1870660E+03  0.7818608E-02  0.1161295E+00
         21   -1    0    0  503  502  0.00000000000E+00  0.00000000000E+00  0.67156825940E+02  0.67156825940E+02  0.00000000000E+00 0. -1.
         21   -1    0    0  501  503 -0.00000000000E+00 -0.00000000000E+00 -0.59009469381E+03  0.59009469381E+03  0.00000000000E+00 0. -1.
          6    2    1    2  501    0 -0.39824636187E+02 -0.62411590852E+02 -0.14708371545E+03  0.23741819699E+03  0.17103383465E+03 0.  0.
         24    2    3    3    0    0 -0.71711621597E+02  0.23178233893E+01 -0.62170837056E+02  0.12588809423E+03  0.82672064873E+02 0.  0.
         -6    2    1    2    0  502  0.39824636187E+02  0.62411590852E+02 -0.37585415242E+03  0.41983332276E+03  0.17179192846E+03 0.  0.
        -24    2    5    5    0    0  0.27769498707E+02 -0.53323364752E+01 -0.80769229576E+02  0.11679575459E+03  0.79485853917E+02 0.  0.
          5    1    3    3  501    0  0.31886985410E+02 -0.64729414241E+02 -0.84912878391E+02  0.11153010277E+03  0.47000000000E+01 0. -1.
        -11    1    4    4    0    0 -0.57485133512E+02  0.37714060233E+02 -0.52577269779E+02  0.86552066478E+02  0.00000000000E+00 0.  1.
         12    1    4    4    0    0 -0.14226488085E+02 -0.35396236844E+02 -0.95935672768E+01  0.39336027749E+02  0.00000000000E+00 0. -1.
         -5    1    5    5    0  502  0.12055137481E+02  0.67743927327E+02 -0.29508492285E+03  0.30303756817E+03  0.47000000000E+01 0.  1.
         13    1    6    6    0    0  0.37838679372E+02  0.69903685688E+01 -0.90362669481E+02  0.98214270578E+02  0.00000000000E+00 0. -1.
        -14    1    6    6    0    0 -0.10069180665E+02 -0.12322705044E+02  0.95934399048E+01  0.18581484011E+02  0.00000000000E+00 0.  1.
</event>
<event>
12    1  0.1623092E-001  0.2099095E+03  0.7818608E-02  0.1141975E+00
         21   -1    0    0  503  502  0.00000000000E+00  0.00000000000E+00  0.23423451278E+03  0.23423451278E+03  0.00000000000E+00 0. -1.
         21   -1    0    0  501  503 -0.00000000000E+00 -0.00000000000E+00 -0.40233535931E+03  0.40233535931E+03  0.00000000000E+00 0.  1.
          6    2    1    2  501    0  0.11570953508E+03 -0.20257335293E+02 -0.31696216657E+03  0.37923407747E+03  0.17191397366E+03 0.  0.
         24    2    3    3    0    0  0.10346409186E+03  0.88973341659E-01 -0.11153082461E+03  0.17238135350E+03  0.81064048612E+02 0.  0.
         -6    2    1    2    0  502 -0.11570953508E+03  0.20257335293E+02  0.14886132003E+03  0.25733579461E+03  0.17396253173E+03 0.  0.
        -24    2    5    5    0    0 -0.56804687330E+02 -0.41006612143E+01  0.27885549520E+01  0.97891648341E+02  0.79570163070E+02 0.  0.
          5    1    3    3  501    0  0.12245443220E+02 -0.20346308634E+02 -0.20543134196E+03  0.20685272397E+03  0.47000000000E+01 0. -1.
        -11    1    4    4    0    0  0.95581302610E+02 -0.81113755231E+01 -0.12316354254E+03  0.15611162043E+03  0.00000000000E+00 0.  1.
         12    1    4    4    0    0  0.78827892501E+01  0.82003488648E+01  0.11632717932E+02  0.16269733076E+02  0.00000000000E+00 0. -1.
         -5    1    5    5    0  502 -0.58904847750E+02  0.24357996507E+02  0.14607276508E+03  0.15944414627E+03  0.47000000000E+01 0.  1.
         13    1    6    6    0    0  0.19590560742E+02 -0.34182566979E+01 -0.65206086474E+01  0.20928279580E+02  0.00000000000E+00 0. -1.
        -14    1    6    6    0    0 -0.76395248073E+02 -0.68240451634E+00  0.93091635994E+01  0.76963368760E+02  0.00000000000E+00 0.  1.
</event>
<event>
12    1  0.1623092E-001  0.1986231E+03  0.7818608E-02  0.1151000E+00
         21   -1    0    0  501  502  0.00000000000E+00  0.00000000000E+00  0.70646804881E+03  0.70646804881E+03  0.00000000000E+00 0.  1.
         21   -1    0    0  502  503 -0.00000000000E+00 -0.00000000000E+00 -0.81077342337E+02  0.81077342337E+02  0.00000000000E+00 0. -1.
         -6    2    1    2    0  503  0.85161915834E+02 -0.49418011651E+02  0.92714889751E+02  0.21919668370E+03  0.17250056110E+03 0.  0.
        -24    2    3    3    0    0  0.50589156731E+02  0.21597276192E+02  0.10279231460E+03  0.13943396514E+03  0.76484413958E+02 0.  0.
          6    2    1    2  501    0 -0.85161915834E+02  0.49418011651E+02  0.53267581672E+03  0.56834870745E+03  0.17199428989E+03 0.  0.
         24    2    5    5    0    0 -0.73160667952E+02 -0.33589561879E+02  0.29871341135E+03  0.31976314001E+03  0.80858033509E+02 0.  0.
          5    1    5    5  501    0 -0.12001247883E+02  0.83007573531E+02  0.23396240537E+03  0.24858556744E+03  0.47000000000E+01 0. -1.
        -11    1    6    6    0    0 -0.86296590616E+02 -0.97088773396E+01  0.22844835251E+03  0.24439724552E+03  0.00000000000E+00 0.  1.
         12    1    6    6    0    0  0.13135922665E+02 -0.23880684540E+02  0.70265058841E+02  0.75365894490E+02  0.00000000000E+00 0. -1.
         -5    1    3    3    0  503  0.34572759103E+02 -0.71015287843E+02 -0.10077424844E+02  0.79762718553E+02  0.47000000000E+01 0.  1.
         11    1    4    4    0    0  0.11023579084E+02 -0.31155363040E+01 -0.11350558729E+02  0.16126408334E+02  0.00000000000E+00 0. -1.
        -12    1    4    4    0    0  0.39565577647E+02  0.24712812496E+02  0.11414287332E+03  0.12330755681E+03  0.00000000000E+00 0.  1.
</event>
<event>
12    1  0.1623092E-001  0.1850631E+03  0.7818608E-02  0.1163554E+00
         21   -1    0    0  503  502  0.00000000000E+00  0.00000000000E+00  0.24413697131E+03  0.24413697131E+03  0.00000000000E+00 0.  1.
         21   -1    0    0  501  503 -0.00000000000E+00 -0.00000000000E+00 -0.17479721838E+03  0.17479721838E+03  0.00000000000E+00 0.  1.
          6    2    1    2  501    0 -0.61906494958E+02  0.14964902154E+02 -0.60995274074E+02  0.19258145024E+03  0.17120405691E+03 0.  0.
         24    2    3    3    0    0 -0.32964821196E+02  0.44885166907E+02  0.22304997382E+02  0.99340536751E+02  0.79181258445E+02 0.  0.
         -6    2    1    2    0  502  0.61906494958E+02 -0.14964902154E+02  0.13033502700E+03  0.22635273945E+03  0.17375839830E+03 0.  0.
        -24    2    5    5    0    0 -0.24455490841E+02  0.17088138594E+02  0.92067270645E+02  0.12649132954E+03  0.81446906709E+02 0.  0.
          5    1    3    3  501    0 -0.28941673762E+02 -0.29920264753E+02 -0.83300271456E+02  0.93240913486E+02  0.47000000000E+01 0. -1.
        -13    1    4    4    0    0 -0.34158473346E+02  0.21401095931E+02 -0.24351439118E+02  0.47093532416E+02  0.00000000000E+00 0.  1.
         14    1    4    4    0    0  0.11936521491E+01  0.23484070976E+02  0.46656436500E+02  0.52247004335E+02  0.00000000000E+00 0. -1.
         -5    1    5    5    0  502  0.86361985800E+02 -0.32053040748E+02  0.38267756354E+02  0.99861409908E+02  0.47000000000E+01 0.  1.
         13    1    6    6    0    0 -0.18533517150E+02  0.42944752704E+02  0.87996015477E+02  0.99654612450E+02  0.00000000000E+00 0. -1.
        -14    1    6    6    0    0 -0.59219736911E+01 -0.25856614110E+02  0.40712551676E+01  0.26836717092E+02  0.00000000000E+00 0.  1.
</event>
<event>
12    1  0.1623092E-001  0.2016190E+03  0.7818608E-02  0.1148543E+00
         21   -1    0    0  501  502  0.00000000000E+00  0.00000000000E+00  0.38962711310E+03  0.38962711310E+03  0.00000000000E+00 0. -1.
         21   -1    0    0  502  503 -0.00000000000E+00 -0.00000000000E+00 -0.10574981703E+03  0.10574981703E+03  0.00000000000E+00 0. -1.
         -6    2    1    2    0  503  0.80046278667E+02  0.65135771727E+02  0.10915914540E+03  0.22858736708E+03  0.17229738791E+03 0.  0.
        -24    2    3    3    0    0  0.53917693886E+02 -0.12856796865E+02  0.58559387121E+01  0.96454153207E+02  0.78719100052E+02 0.  0.
          6    2    1    2  501    0 -0.80046278667E+02 -0.65135771727E+02  0.17471815068E+03  0.26678956304E+03  0.17320555212E+03 0.  0.
         24    2    5    5    0    0 -0.91162027090E+01 -0.74907202899E+02  0.15658280998E+03  0.19277917779E+03  0.83375300969E+02 0.  0.
          5    1    5    5  501    0 -0.70930075958E+02  0.97714311726E+01  0.18135340700E+02  0.74010385250E+02  0.47000000000E+01 0. -1.
        -13    1    6    6    0    0  0.54589155893E+01 -0.63799928177E+02  0.41632382216E+02  0.76377259992E+02  0.00000000000E+00 0.  1.
         14    1    6    6    0    0 -0.14575118298E+02 -0.11107274722E+02  0.11495042776E+03  0.11640191780E+03  0.00000000000E+00 0. -1.
         -5    1    3    3    0  503  0.26128584781E+02  0.77992568592E+02  0.10330320668E+03  0.13213321388E+03  0.47000000000E+01 0.  1.
         11    1    4    4    0    0  0.28152981194E+02 -0.46102122794E+02  0.63537746780E+01  0.54390868065E+02  0.00000000000E+00 0. -1.
        -12    1    4    4    0    0  0.25764712692E+02  0.33245325929E+02 -0.49783596590E+00  0.42063285141E+02  0.00000000000E+00 0.  1.
</event>
<event>
12    1  0.1623092E-001  0.2568776E+03  0.7818608E-02  0.1109555E+00
         21   -1    0    0  503  502  0.00000000000E+00  0.00000000000E+00  0.46454277544E+03  0.46454277544E+03  0.00000000000E+00 0.  1.
         21   -1    0    0  501  503 -0.00000000000E+00 -0.00000000000E+00 -0.16960029754E+03  0.16960029754E+03  0.00000000000E+00 0.  1.
          6    2    1    2  501    0 -0.18471388732E+03  0.43299258073E+02  0.28034916499E+03  0.38023908618E+03  0.17318216545E+03 0.  0.
         24    2    3    3    0    0 -0.69366356052E+02 -0.55210733954E+01  0.46853119960E+02  0.11522782080E+03  0.78994064538E+02 0.  0.
         -6    2    1    2    0  502  0.18471388732E+03 -0.43299258073E+02  0.14593312909E+02  0.25390398680E+03  0.16810777439E+03 0.  0.
        -24    2    5    5    0    0  0.13541657682E+03 -0.61034140665E+02  0.65085582839E+02  0.18099095500E+03  0.80366517245E+02 0.  0.
          5    1    3    3  501    0 -0.11534753127E+03  0.48820331469E+02  0.23349604503E+03  0.26501126538E+03  0.47000000000E+01 0. -1.
        -13    1    4    4    0    0 -0.71118628599E+02  0.18779988667E+02  0.52309951982E+02  0.90260059741E+02  0.00000000000E+00 0.  1.
         14    1    4    4    0    0  0.17522725463E+01 -0.24301062062E+02 -0.54568320221E+01  0.24967761056E+02  0.00000000000E+00 0. -1.
         -5    1    5    5    0  502  0.49297310496E+02  0.17734882592E+02 -0.50492269930E+02  0.72913031794E+02  0.47000000000E+01 0.  1.
         13    1    6    6    0    0 -0.76356357689E+00 -0.28664311681E+02  0.14711093302E+02  0.32227970145E+02  0.00000000000E+00 0. -1.
        -14    1    6    6    0    0  0.13618014040E+03 -0.32369828984E+02  0.50374489537E+02  0.14876298486E+03  0.00000000000E+00 0.  1.
</event>
<event>
12    1  0.1623092E-001  0.1799932E+03  0.7818608E-02  0.1167993E+00
         21   -1    0    0  501  502  0.00000000000E+00  0.00000000000E+00  0.19350651065E+03  0.19350651065E+03  0.00000000000E+00 0.  1.
         21   -1    0    0  502  503 -0.00000000000E+00 -0.00000000000E+00 -0.17729639817E+03  0.17729639817E+03  0.00000000000E+00 0.  1.
         -6    2    1    2    0  503 -0.27257620386E+01  0.49683773688E+02 -0.37160969914E+02  0.18378927472E+03  0.17297876364E+03 0.  0.
        -24    2    3    3    0    0 -0.11230268458E+02 -0.22341048893E+02  0.24779023715E+02  0.88298152053E+02  0.80977294623E+02 0.  0.
          6    2    1    2  501    0  0.27257620386E+01 -0.49683773688E+02  0.53371082396E+02  0.18701363411E+03  0.17219093983E+03 0.  0.
         24    2    5    5    0    0 -0.36573641377E+02 -0.34006585769E+02 -0.24023806490E+02  0.98683140189E+02  0.81652555135E+02 0.  0.
          5    1    5    5  501    0  0.39299403415E+02 -0.15677187919E+02  0.77394888886E+02  0.88330493917E+02  0.47000000000E+01 0. -1.
        -13    1    6    6    0    0  0.37636622344E+01 -0.35103830553E+02  0.18669813154E+02  0.39937526165E+02  0.00000000000E+00 0.  1.
         14    1    6    6    0    0 -0.40337303611E+02  0.10972447843E+01 -0.42693619644E+02  0.58745614024E+02  0.00000000000E+00 0. -1.
         -5    1    3    3    0  503  0.85045064196E+01  0.72024822581E+02 -0.61939993629E+02  0.95491122666E+02  0.47000000000E+01 0.  1.
         11    1    4    4    0    0 -0.33582063165E+02 -0.48230006691E+01 -0.16869279375E+02  0.37889165846E+02  0.00000000000E+00 0. -1.
        -12    1    4    4    0    0  0.22351794707E+02 -0.17518048223E+02  0.41648303090E+02  0.50408986207E+02  0.00000000000E+00 0.  1.
</event>
<event>
12    1  0.1623092E-001  0.2232149E+03  0.7818608E-02  0.1131613E+00
         21   -1    0    0  503  502  0.00000000000E+00  0.00000000000E+00  0.41822675017E+03  0.41822675017E+03  0.00000000000E+00 0. -1.
         21   -1    0    0  501  503 -0.00000000000E+00 -0.00000000000E+00 -0.23534734969E+03  0.23534734969E+03  0.00000000000E+00 0. -1.
          6    2    1    2  501    0  0.12454691930E+03  0.67494133620E+02 -0.13843666688E+03  0.26265870592E+03  0.17250359960E+03 0.  0.
         24    2    3    3    0    0  0.62704055707E+02  0.10536872079E+03 -0.11601907944E+03  0.18660831238E+03  0.79547907141E+02 0.  0.
         -6    2    1    2    0  502 -0.12454691930E+03 -0.67494133620E+02  0.32131606736E+03  0.39091539395E+03  0.17176564529E+03 0.  0.
        -24    2    5    5    0    0 -0.13252261463E+03 -0.25333458669E+02  0.16232993157E+03  0.22617373072E+03  0.81237443776E+02 0.  0.
          5    1    3    3  501    0  0.61842863594E+02 -0.37874587170E+02 -0.22417587439E+02  0.76050393538E+02  0.47000000000E+01 0. -1.
        -13    1    4    4    0    0  0.67626514292E+02  0.81105668568E+02 -0.51473622438E+02  0.11747769455E+03  0.00000000000E+00 0.  1.
         14    1    4    4    0    0 -0.49224585847E+01  0.24263052222E+02 -0.64545457006E+02  0.69130617831E+02  0.00000000000E+00 0. -1.
         -5    1    5    5    0  502  0.79756953263E+01 -0.42160674951E+02  0.15898613579E+03  0.16474166323E+03  0.47000000000E+01 0.  1.
         13    1    6    6    0    0 -0.11774498859E+03 -0.14037204800E+02  0.16896758576E+03  0.20642424880E+03  0.00000000000E+00 0. -1.
        -14    1    6    6    0    0 -0.14777626042E+02 -0.11296253869E+02 -0.66376541955E+01  0.19749481921E+02  0.00000000000E+00 0.  1.
</event>
<event>
12    1  0.1623092E-001  0.2053278E+03  0.7818608E-02  0.1145517E+00
         21   -1    0    0  503  502  0.00000000000E+00  0.00000000000E+00  0.11703650142E+04  0.11703650142E+04  0.00000000000E+00 0.  1.
         21   -1    0    0  501  503 -0.00000000000E+00 -0.00000000000E+00 -0.42441503772E+02  0.42441503772E+02  0.00000000000E+00 0. -1.
          6    2    1    2  501    0  0.80824829582E+02 -0.77272933653E+02  0.32617658558E+03  0.38542272345E+03  0.17220845339E+03 0.  0.
         24    2    3    3    0    0  0.12085637005E+03 -0.38179728140E+02  0.24046558681E+03  0.28295678638E+03  0.78593197529E+02 0.  0.
         -6    2    1    2    0  502 -0.80824829582E+02  0.77272933653E+02  0.80174692486E+03  0.82738379453E+03  0.17106154618E+03 0.  0.
        -24    2    5    5    0    0 -0.27498184319E+02  0.10263061677E+03  0.40813779479E+03  0.42934236395E+03  0.80431413677E+02 0.  0.
          5    1    3    3  501    0 -0.40031540463E+02 -0.39093205513E+02  0.85710998778E+02  0.10246593708E+03  0.47000000000E+01 0. -1.
        -13    1    4    4    0    0  0.62248107519E+02 -0.57785430545E+02  0.16354682282E+03  0.18428658695E+03  0.00000000000E+00 0.  1.
         14    1    4    4    0    0  0.58608262526E+02  0.19605702405E+02  0.76918763984E+02  0.98670199432E+02  0.00000000000E+00 0. -1.
         -5    1    5    5    0  502 -0.53326645263E+02 -0.25357683113E+02  0.39360913007E+03  0.39804143058E+03  0.47000000000E+01 0.  1.
         11    1    6    6    0    0 -0.15358789540E+01  0.38762283901E+02  0.28980906390E+03  0.29239385612E+03  0.00000000000E+00 0. -1.
        -12    1    6    6    0    0 -0.25962305365E+02  0.63868332865E+02  0.11832873089E+03  0.13694850783E+03  0.00000000000E+00 0.  1.
</event>
<event>
12    1  0.1623092E-001  0.1749804E+03  0.7818608E-02  0.1173255E+00
         21   -1    0    0  503  502  0.00000000000E+00  0.00000000000E+00  0.97754086507E+02  0.97754086507E+02  0.00000000000E+00 0.  1.
         21   -1    0    0  501  503 -0.00000000000E+00 -0.00000000000E+00 -0.31394711252E+03  0.31394711252E+03  0.00000000000E+00 0.  1.
          6    2    1    2  501    0  0.11233207594E+02 -0.81436886232E+01 -0.84654270620E+02  0.19438230235E+03  0.17442943936E+03 0.  0.
         24    2    3    3    0    0  0.32807219092E+02 -0.23425555168E+01 -0.12247711812E+03  0.15020369995E+03  0.80490408281E+02 0.  0.
         -6    2    1    2    0  502 -0.11233207594E+02  0.81436886232E+01 -0.13153875539E+03  0.21731889668E+03  0.17243130245E+03 0.  0.
        -24    2    5    5    0    0  0.50246137446E+02  0.34390935046E+02 -0.10629818047E+03  0.14571020702E+03  0.78897088144E+02 0.  0.
          5    1    3    3  501    0 -0.21574011498E+02 -0.58011331064E+01  0.37822847497E+02  0.44178602402E+02  0.47000000000E+01 0. -1.
        -13    1    4    4    0    0  0.14504509243E+02 -0.20801992699E+02 -0.12157640596E+03  0.12419310035E+03  0.00000000000E+00 0.  1.
         14    1    4    4    0    0  0.18302709849E+02  0.18459437182E+02 -0.90071215370E+00  0.26010599595E+02  0.00000000000E+00 0. -1.
         -5    1    5    5    0  502 -0.61479345040E+02 -0.26247246423E+02 -0.25240574918E+02  0.71608689651E+02  0.47000000000E+01 0.  1.
         11    1    6    6    0    0  0.31322411249E+02  0.10885069254E+02 -0.11038494642E+03  0.11525803476E+03  0.00000000000E+00 0. -1.
        -12    1    6    6    0    0  0.18923726197E+02  0.23505865792E+02  0.40867659512E+01  0.30452172267E+02  0.00000000000E+00 0.  1.
</event>
<event>
12    1  0.1623092E-001  0.1918523E+03  0.7818608E-02  0.1159928E+00
         21   -1    0    0  503  502  0.00000000000E+00  0.00000000000E+00  0.42194825922E+03  0.42194825922E+03  0.00000000000E+00 0. -1.
         21   -1    0    0  501  503 -0.00000000000E+00 -0.00000000000E+00 -0.21115563761E+03  0.21115563761E+03  0.00000000000E+00 0. -1.
          6    2    1    2  501    0 -0.34867647328E+02  0.35529767286E+02 -0.14139897001E+03  0.23832952872E+03  0.18528134916E+03 0.  0.
         24    2    3    3    0    0 -0.74847633946E+02  0.50896618723E+02 -0.43873896108E+02  0.13170978621E+03  0.85028906373E+02 0.  0.
         -6    2    1    2    0  502  0.34867647328E+02 -0.35529767286E+02  0.35219159162E+03  0.39477436810E+03  0.17125935685E+03 0.  0.
        -24    2    5    5    0    0 -0.14397119759E+02 -0.74283155969E+02  0.26714154968E+03  0.28901784563E+03  0.80258602097E+02 0.  0.
          5    1    3    3  501    0  0.39979986618E+02 -0.15366851438E+02 -0.97525073906E+02  0.10661974251E+03  0.47000000000E+01 0. -1.
        -13    1    4    4    0    0 -0.30859601720E+02  0.65604052715E+02 -0.44971881203E+02  0.85315161899E+02  0.00000000000E+00 0.  1.
         14    1    4    4    0    0 -0.43988032226E+02 -0.14707433991E+02  0.10979850943E+01  0.46394624311E+02  0.00000000000E+00 0. -1.
         -5    1    5    5    0  502  0.49264767087E+02  0.38753388683E+02  0.85050041944E+02  0.10575652247E+03  0.47000000000E+01 0.  1.
         11    1    6    6    0    0  0.27510248226E+01  0.15504257219E+02  0.69493527548E+02  0.71255178763E+02  0.00000000000E+00 0. -1.
        -12    1    6    6    0    0 -0.17148144582E+02 -0.89787413187E+02  0.19764802213E+03  0.21776266687E+03  0.00000000000E+00 0.  1.
</event>
<event>
12    1  0.1623092E-001  0.2251563E+03  0.7818608E-02  0.1130164E+00
         21   -1    0    0  501  502  0.00000000000E+00  0.00000000000E+00  0.32056835668E+03  0.32056835668E+03  0.00000000000E+00 0.  1.
         21   -1    0    0  502  503 -0.00000000000E+00 -0.00000000000E+00 -0.37661278807E+03  0.37661278807E+03  0.00000000000E+00 0.  1.
         -6    2    1    2    0  503 -0.13995489083E+03  0.35547012006E+02 -0.29369258952E+03  0.37006849131E+03  0.17275528817E+03 0.  0.
        -24    2    3    3    0    0 -0.30138855261E+02  0.54506819128E+02 -0.98286847721E+02  0.14506953602E+03  0.86634415320E+02 0.  0.
          6    2    1    2  501    0  0.13995489083E+03 -0.35547012006E+02  0.23764815813E+03  0.32711265345E+03  0.17226456239E+03 0.  0.
         24    2    5    5    0    0  0.72104955389E+02  0.40586060978E+02  0.16980487162E+03  0.20453753336E+03  0.78457346302E+02 0.  0.
          5    1    5    5  501    0  0.67849935436E+02 -0.76133072984E+02  0.67843286512E+02  0.12257512009E+03  0.47000000000E+01 0. -1.
        -11    1    6    6    0    0  0.45176088561E+02  0.61581267275E+01  0.14958363271E+03  0.15637795458E+03  0.00000000000E+00 0.  1.
         12    1    6    6    0    0  0.26928866828E+02  0.34427934250E+02  0.20221238909E+02  0.48159578781E+02  0.00000000000E+00 0. -1.
         -5    1    3    3    0  503 -0.10981603556E+03 -0.18959807122E+02 -0.19540574180E+03  0.22499895529E+03  0.47000000000E+01 0.  1.
         13    1    4    4    0    0 -0.17811779329E+01 -0.23445536796E+02 -0.25838516016E+02  0.34935579291E+02  0.00000000000E+00 0. -1.
        -14    1    4    4    0    0 -0.28357677328E+02  0.77952355924E+02 -0.72448331705E+02  0.11013395673E+03  0.00000000000E+00 0.  1.
</event>
<event>
12    1  0.1623092E-001  0.1945531E+03  0.7818608E-02  0.1156564E+00
         21   -1    0    0  501  502  0.00000000000E+00  0.00000000000E+00  0.68226578633E+03  0.68226578633E+03  0.00000000000E+00 0.  1.
         21   -1    0    0  502  503 -0.00000000000E+00 -0.00000000000E+00 -0.70094798448E+02  0.70094798448E+02  0.00000000000E+00 0.  1.
         -6    2    1    2    0  503 -0.63433186007E+02 -0.18600907031E+02  0.12500590999E+03  0.23125179118E+03  0.18297855220E+03 0.  0.
        -24    2    3    3    0    0 -0.21974511609E+02  0.50194522884E+02  0.11312512325E+03  0.14991990350E+03  0.81708718433E+02 0.  0.
          6    2    1    2  501    0  0.63433186007E+02  0.18600907031E+02  0.48716507789E+03  0.52110879359E+03  0.17278541261E+03 0.  0.
         24    2    5    5    0    0 -0.28870057801E+02  0.28013829596E+02  0.28660191782E+03  0.30007449058E+03  0.79282947187E+02 0.  0.
          5    1    5    5  501    0  0.92303243807E+02 -0.94129225647E+01  0.20056316007E+03  0.22103430301E+03  0.47000000000E+01 0. -1.
        -11    1    6    6    0    0  0.25295141256E+01 -0.19593361642E+02  0.16006759679E+03  0.16128215588E+03  0.00000000000E+00 0.  1.
         12    1    6    6    0    0 -0.31399571926E+02  0.47607191238E+02  0.12653432103E+03  0.13879233471E+03  0.00000000000E+00 0. -1.
         -5    1    3    3    0  503 -0.41458674397E+02 -0.68795429915E+02  0.11880786737E+02  0.81331887680E+02  0.47000000000E+01 0.  1.
         13    1    4    4    0    0 -0.22260026486E+02 -0.17881092347E+01  0.90520398716E+02  0.93234375085E+02  0.00000000000E+00 0. -1.
        -14    1    4    4    0    0  0.28551487712E+00  0.51982632119E+02  0.22604724534E+02  0.56685528418E+02  0.00000000000E+00 0.  1.
</event>
<event>
12    1  0.1623092E-001  0.2839072E+03  0.7818608E-02  0.1093795E+00
         21   -1    0    0  501  502  0.00000000000E+00  0.00000000000E+00  0.11584321433E+03  0.11584321433E+03  0.00000000000E+00 0. -1.
         21   -1    0    0  502  503 -0.00000000000E+00 -0.00000000000E+00 -0.76604076089E+03  0.76604076089E+03  0.00000000000E+00 0.  1.
         -6    2    1    2    0  503  0.24315467655E+02  0.22393490279E+03 -0.46323844365E+03  0.54331680465E+03  0.17281554297E+03 0.  0.
        -24    2    3    3    0    0 -0.19076211027E+02  0.77072312289E+02 -0.29579943307E+03  0.31636004549E+03  0.79261154601E+02 0.  0.
          6    2    1    2  501    0 -0.24315467655E+02 -0.22393490279E+03 -0.18695910291E+03  0.33856717056E+03  0.17010567354E+03 0.  0.
         24    2    5    5    0    0 -0.45695960076E+02 -0.58069896862E+02 -0.68835394186E+02  0.13376573940E+03  0.87719597894E+02 0.  0.
          5    1    5    5  501    0  0.21380492422E+02 -0.16586500592E+03 -0.11812370872E+03  0.20480143117E+03  0.47000000000E+01 0. -1.
        -11    1    6    6    0    0 -0.22481037962E+02 -0.62065837745E+02 -0.83175987785E+02  0.10618761805E+03  0.00000000000E+00 0.  1.
         12    1    6    6    0    0 -0.23214922114E+02  0.39959408830E+01  0.14340593599E+02  0.27578121348E+02  0.00000000000E+00 0. -1.
         -5    1    3    3    0  503  0.43391678681E+02  0.14686259050E+03 -0.16743901058E+03  0.22695675916E+03  0.47000000000E+01 0.  1.
         11    1    4    4    0    0 -0.32715035293E+02  0.75968390093E+00 -0.62989597915E+02  0.70982674642E+02  0.00000000000E+00 0. -1.
        -12    1    4    4    0    0  0.13638824267E+02  0.76312628388E+02 -0.23280983516E+03  0.24537737085E+03  0.00000000000E+00 0.  1.
</event>
<event>
12    1  0.1623092E-001  0.1766040E+03  0.7818608E-02  0.1171406E+00
         21   -1    0    0  503  502  0.00000000000E+00  0.00000000000E+00  0.10964638042E+03  0.10964638042E+03  0.00000000000E+00 0. -1.
         21   -1    0    0  501  503 -0.00000000000E+00 -0.00000000000E+00 -0.36996551131E+03  0.36996551131E+03  0.00000000000E+00 0. -1.
          6    2    1    2  501    0 -0.82021778969E+01  0.49154083946E+02 -0.24695799338E+03  0.30360699497E+03  0.16942714426E+03 0.  0.
         24    2    3    3    0    0 -0.60926678036E+02  0.60136356888E+02 -0.12372443716E+03  0.16903700347E+03  0.77054076311E+02 0.  0.
         -6    2    1    2    0  502  0.82021778969E+01 -0.49154083946E+02 -0.13361137516E+02  0.17600489676E+03  0.16827300436E+03 0.  0.
        -24    2    5    5    0    0 -0.54900233349E+02 -0.39906793670E+02 -0.31665554256E+02  0.10948746780E+03  0.79863699368E+02 0.  0.
          5    1    3    3  501    0  0.52724500139E+02 -0.10982272942E+02 -0.12323355622E+03  0.13456999150E+03  0.47000000000E+01 0. -1.
        -11    1    4    4    0    0 -0.14915562156E+02 -0.89988271423E+01  0.28492935943E+01  0.17651384035E+02  0.00000000000E+00 0.  1.
         12    1    4    4    0    0 -0.46011115880E+02  0.69135184031E+02 -0.12657373075E+03  0.15138561944E+03  0.00000000000E+00 0. -1.
         -5    1    5    5    0  502  0.63102411246E+02 -0.92472902762E+01  0.18304416740E+02  0.66517428954E+02  0.47000000000E+01 0.  1.
         13    1    6    6    0    0 -0.39588377118E+02 -0.57735010318E+02  0.61998528159E-01  0.70004106044E+02  0.00000000000E+00 0. -1.
        -14    1    6    6    0    0 -0.15311856231E+02  0.17828216648E+02 -0.31727552784E+02  0.39483361758E+02  0.00000000000E+00 0.  1.
</event>
<event>
12    1  0.1623092E-001  0.2031027E+03  0.7818608E-02  0.1148002E+00
         21   -1    0    0  501  502  0.00000000000E+00  0.00000000000E+00  0.12377314843E+04  0.12377314843E+04  0.00000000000E+00 0.  1.
         21   -1    0    0  502  503 -0.00000000000E+00 -0.00000000000E+00 -0.42820585763E+02  0.42820585763E+02  0.00000000000E+00 0. -1.
         -6    2    1    2    0  503  0.10723684654E+03  0.11529216526E+02  0.29021090833E+03  0.35422180181E+03  0.17209895256E+03 0.  0.
        -24    2    3    3    0    0  0.91575090565E+02  0.62955176729E+02  0.26296480872E+03  0.29377049970E+03  0.69291156570E+02 0.  0.
          6    2    1    2  501    0 -0.10723684654E+03 -0.11529216526E+02  0.90469999024E+03  0.92633026828E+03  0.16725139615E+03 0.  0.
         24    2    5    5    0    0 -0.12177148913E+03  0.35336580774E+02  0.74552114099E+03  0.75969397319E+03  0.72499598241E+02 0.  0.
          5    1    5    5  501    0  0.14534642593E+02 -0.46865797301E+02  0.15917884925E+03  0.16663629509E+03  0.47000000000E+01 0. -1.
        -13    1    6    6    0    0 -0.92443904033E+02  0.16918803040E+02  0.34162645312E+03  0.35431730802E+03  0.00000000000E+00 0.  1.
         14    1    6    6    0    0 -0.29327585101E+02  0.18417777734E+02  0.40389468786E+03  0.40537666517E+03  0.00000000000E+00 0. -1.
         -5    1    3    3    0  503  0.15661755977E+02 -0.51425960203E+02  0.27246099610E+02  0.60451302112E+02  0.47000000000E+01 0.  1.
         11    1    4    4    0    0  0.69409316805E+02  0.18683118454E+02  0.97992237060E+02  0.12152855919E+03  0.00000000000E+00 0. -1.
        -12    1    4    4    0    0  0.22165773760E+02  0.44272058275E+02  0.16497257166E+03  0.17224194051E+03  0.00000000000E+00 0.  1.
</event>
<event>
12    1  0.1623092E-001  0.2172252E+03  0.7818608E-02  0.1136814E+00
         21   -1    0    0  503  502  0.00000000000E+00  0.00000000000E+00  0.83612231073E+02  0.83612231073E+02  0.00000000000E+00 0. -1.
         21   -1    0    0  501  503 -0.00000000000E+00 -0.00000000000E+00 -0.57614081753E+03  0.57614081753E+03  0.00000000000E+00 0.  1.
          6    2    1    2  501    0 -0.79992734310E+02 -0.96292646070E+02 -0.31001905722E+03  0.37603393177E+03  0.17210052520E+03 0.  0.
         24    2    3    3    0    0 -0.28808985729E+02 -0.86637769635E+02 -0.93599015473E+02  0.15338461732E+03  0.80187307888E+02 0.  0.
         -6    2    1    2    0  502  0.79992734310E+02  0.96292646070E+02 -0.18250952924E+03  0.28371911683E+03  0.17752661142E+03 0.  0.
        -24    2    5    5    0    0  0.94012541916E+02  0.95274742195E+02 -0.70963801273E+02  0.17119298404E+03  0.79721654243E+02 0.  0.
          5    1    3    3  501    0 -0.51183748581E+02 -0.96548764355E+01 -0.21642004174E+03  0.22264931445E+03  0.47000000000E+01 0. -1.
        -13    1    4    4    0    0 -0.18266465681E+02  0.84250504311E+01 -0.37356722227E+02  0.42428409572E+02  0.00000000000E+00 0.  1.
         14    1    4    4    0    0 -0.10542520048E+02 -0.95062820066E+02 -0.56242293245E+02  0.11095620775E+03  0.00000000000E+00 0. -1.
         -5    1    5    5    0  502 -0.14019807606E+02  0.10179038754E+01 -0.11154572797E+03  0.11252613279E+03  0.47000000000E+01 0.  1.
         11    1    6    6    0    0 -0.11807806554E+02  0.86134531299E+01  0.40889831296E+01  0.15176813021E+02  0.00000000000E+00 0. -1.
        -12    1    6    6    0    0  0.10582034847E+03  0.86661289065E+02 -0.75052784403E+02  0.15601617102E+03  0.00000000000E+00 0.  1.
</event>
<event>
12    1  0.1623092E-001  0.1842964E+03  0.7818608E-02  0.1164549E+00
         21   -1    0    0  503  502  0.00000000000E+00  0.00000000000E+00  0.15675905872E+04  0.15675905872E+04  0.00000000000E+00 0.  1.
         21   -1    0    0  501  503 -0.00000000000E+00 -0.00000000000E+00 -0.14908340882E+03  0.14908340882E+03  0.00000000000E+00 0.  1.
          6    2    1    2  501    0  0.52348162601E+02  0.20420724194E+01 -0.86530588745E+02  0.20039438990E+03  0.17299094926E+03 0.  0.
         24    2    3    3    0    0  0.25482687816E+02 -0.55200569348E+02 -0.92656285796E+02  0.13669126646E+03  0.80017777982E+02 0.  0.
         -6    2    1    2    0  502 -0.52348162601E+02 -0.20420724194E+01  0.15050377671E+04  0.15162796061E+04  0.17669369907E+03 0.  0.
        -24    2    5    5    0    0  0.16034146611E+02 -0.25258682500E+02  0.42488917167E+03  0.43370941004E+03  0.81718720331E+02 0.  0.
          5    1    3    3  501    0  0.26865474785E+02  0.57242641767E+02  0.61256970511E+01  0.63703123442E+02  0.47000000000E+01 0. -1.
        -13    1    4    4    0    0 -0.21934337286E+02  0.40659818518E+01 -0.34447793364E+02  0.41040197712E+02  0.00000000000E+00 0.  1.
         14    1    4    4    0    0  0.47417025102E+02 -0.59266551199E+02 -0.58208492432E+02  0.95651068744E+02  0.00000000000E+00 0. -1.
         -5    1    5    5    0  502 -0.68382309212E+02  0.23216610081E+02  0.10801485955E+04  0.10825701961E+04  0.47000000000E+01 0.  1.
         13    1    6    6    0    0  0.33947710147E+02  0.19252767493E+02  0.19462664043E+03  0.19850099558E+03  0.00000000000E+00 0. -1.
        -14    1    6    6    0    0 -0.17913563536E+02 -0.44511449993E+02  0.23026253124E+03  0.23520841446E+03  0.00000000000E+00 0.  1.
</event>
<event>
12    1  0.1623092E-001  0.2406567E+03  0.7818608E-02  0.1119678E+00
         21   -1    0    0  503  502  0.00000000000E+00  0.00000000000E+00  0.60999736490E+02  0.60999736490E+02  0.00000000000E+00 0.  1.
         21   -1    0    0  501  503 -0.00000000000E+00 -0.00000000000E+00 -0.13239468129E+04  0.13239468129E+04  0.00000000000E+00 0. -1.
          6    2    1    2  501    0 -0.13946517009E+03  0.92637447057E+02 -0.10052936104E+04  0.10336976878E+04  0.17286826329E+03 0.  0.
         24    2    3    3    0    0 -0.49298131431E+01  0.31359000071E+02 -0.26375198777E+03  0.27754897334E+03  0.80378054262E+02 0.  0.
         -6    2    1    2    0  502  0.13946517009E+03 -0.92637447057E+02 -0.25765346605E+03  0.35124886160E+03  0.17017116071E+03 0.  0.
        -24    2    5    5    0    0  0.33451219423E+02 -0.15691274568E+01 -0.15355319229E+03  0.17691770096E+03  0.81239422749E+02 0.  0.
          5    1    3    3  501    0 -0.13453535695E+03  0.61278446987E+02 -0.74154162261E+03  0.75614871447E+03  0.47000000000E+01 0. -1.
        -11    1    4    4    0    0  0.16347876422E+02  0.34527225653E+02 -0.24790200451E+03  0.25082820060E+03  0.00000000000E+00 0.  1.
         12    1    4    4    0    0 -0.21277689565E+02 -0.31682255819E+01 -0.15849983253E+02  0.26720772738E+02  0.00000000000E+00 0. -1.
         -5    1    5    5    0  502  0.10601395067E+03 -0.91068319601E+02 -0.10410027375E+03  0.17433116063E+03  0.47000000000E+01 0.  1.
         13    1    6    6    0    0 -0.22359329042E+02  0.18025611636E+02 -0.50104705815E+02  0.57752435575E+02  0.00000000000E+00 0. -1.
        -14    1    6    6    0    0  0.55810548465E+02 -0.19594739093E+02 -0.10344848648E+03  0.11916526539E+03  0.00000000000E+00 0.  1.
</event>
<event>
12    1  0.1623092E-001  0.1989722E+03  0.7818608E-02  0.1151370E+00
         21   -1    0    0  503  502  0.00000000000E+00  0.00000000000E+00  0.23067584821E+03  0.23067584821E+03  0.00000000000E+00 0.  1.
         21   -1    0    0  501  503 -0.00000000000E+00 -0.00000000000E+00 -0.26000934491E+03  0.26000934491E+03  0.00000000000E+00 0.  1.
          6    2    1    2  501    0  0.39788188716E+02 -0.78935356196E+02 -0.16006601972E+03  0.25260765401E+03  0.17428598847E+03 0.  0.
         24    2    3    3    0    0 -0.89981966401E+00 -0.11580861173E+03 -0.11774730917E+03  0.18312302073E+03  0.79102260896E+02 0.  0.
         -6    2    1    2    0  502 -0.39788188716E+02  0.78935356196E+02  0.13073252302E+03  0.23807753911E+03  0.17825832837E+03 0.  0.
        -24    2    5    5    0    0 -0.60620614017E+02  0.77403636873E+02  0.15825416746E+03  0.20320825434E+03  0.81135881495E+02 0.  0.
          5    1    3    3  501    0  0.40688008380E+02  0.36873255533E+02 -0.42318710558E+02  0.69484633285E+02  0.47000000000E+01 0. -1.
        -13    1    4    4    0    0 -0.29045833709E+02 -0.56777407600E+02 -0.93905666571E+02  0.11351479500E+03  0.00000000000E+00 0.  1.
         14    1    4    4    0    0  0.28146014045E+02 -0.59031204129E+02 -0.23841642596E+02  0.69608225729E+02  0.00000000000E+00 0. -1.
         -5    1    5    5    0  502  0.20832425300E+02  0.15317193233E+01 -0.27521644437E+02  0.34869284772E+02  0.47000000000E+01 0.  1.
         13    1    6    6    0    0 -0.23068306841E+02  0.76702826958E+02  0.66639503411E+02  0.10419354039E+03  0.00000000000E+00 0. -1.
        -14    1    6    6    0    0 -0.37552307176E+02  0.70080991494E+00  0.91614664051E+02  0.99014713947E+02  0.00000000000E+00 0.  1.
</event>
<event>
12    1  0.1623092E-001  0.2368686E+03  0.7818608E-02  0.1122419E+00
         21   -1    0    0  503  502  0.00000000000E+00  0.00000000000E+00  0.42463332700E+03  0.42463332700E+03  0.00000000000E+00 0. -1.
         21   -1    0    0  501  503 -0.00000000000E+00 -0.00000000000E+00 -0.14720110208E+03  0.14720110208E+03  0.00000000000E+00 0. -1.
          6    2    1    2  501    0  0.14989681767E+03  0.50835012799E+02  0.43002538525E+02  0.24074043010E+03  0.17621998153E+03 0.  0.
         24    2    3    3    0    0  0.75236073848E+01  0.19551738086E+02  0.46732118484E+02  0.94847407479E+02  0.79832729362E+02 0.  0.
         -6    2    1    2    0  502 -0.14989681767E+03 -0.50835012799E+02  0.23442968639E+03  0.33109399899E+03  0.17208342114E+03 0.  0.
        -24    2    5    5    0    0 -0.99393023272E+02  0.11579503409E+02  0.67726286028E+02  0.14600397015E+03  0.81958840319E+02 0.  0.
          5    1    3    3  501    0  0.14237321028E+03  0.31283274713E+02 -0.37295799583E+01  0.14589302262E+03  0.47000000000E+01 0. -1.
        -11    1    4    4    0    0  0.28367902180E+02 -0.75187112892E+01  0.52550437279E+02  0.60189844258E+02  0.00000000000E+00 0.  1.
         12    1    4    4    0    0 -0.20844294795E+02  0.27070449375E+02 -0.58183187954E+01  0.34657563222E+02  0.00000000000E+00 0. -1.
         -5    1    5    5    0  502 -0.50503794394E+02 -0.62414516208E+02  0.16670340037E+03  0.18509002884E+03  0.47000000000E+01 0.  1.
         11    1    6    6    0    0 -0.51915766249E+02 -0.17111162948E+02 -0.45974159168E+01  0.54855946950E+02  0.00000000000E+00 0. -1.
        -12    1    6    6    0    0 -0.47477257022E+02  0.28690666358E+02  0.72323701945E+02  0.91148023201E+02  0.00000000000E+00 0.  1.
</event>
<event>
12    1  0.1623092E-001  0.1801850E+03  0.7818608E-02  0.1168729E+00
         21   -1    0    0  501  502  0.00000000000E+00  0.00000000000E+00  0.27186164887E+02  0.27186164887E+02  0.00000000000E+00 0. -1.
         21   -1    0    0  502  503 -0.00000000000E+00 -0.00000000000E+00 -0.18230466002E+04  0.18230466002E+04  0.00000000000E+00 0. -1.
         -6    2    1    2    0  503 -0.28202604648E+02  0.39016632892E+02 -0.14466407549E+04  0.14572683696E+04  0.16894952761E+03 0.  0.
        -24    2    3    3    0    0 -0.49116141893E+01  0.88804953078E+02 -0.10540724909E+04  0.10608427411E+04  0.80050369385E+02 0.  0.
          6    2    1    2  501    0  0.28202604648E+02 -0.39016632892E+02 -0.34921968050E+03  0.39296439553E+03  0.17363451948E+03 0.  0.
         24    2    5    5    0    0 -0.35687917048E+02  0.22481466832E+02 -0.20000856808E+03  0.21932666604E+03  0.79509215547E+02 0.  0.
          5    1    5    5  501    0  0.63890521696E+02 -0.61498099724E+02 -0.14921111242E+03  0.17363772949E+03  0.47000000000E+01 0. -1.
        -11    1    6    6    0    0 -0.12466291851E+01  0.17711942402E+02 -0.15255399567E+01  0.17821174488E+02  0.00000000000E+00 0.  1.
         12    1    6    6    0    0 -0.34441287863E+02  0.47695244299E+01 -0.19848302812E+03  0.20150549155E+03  0.00000000000E+00 0. -1.
         -5    1    3    3    0  503 -0.23290990459E+02 -0.49788320186E+02 -0.39256826394E+03  0.39642562848E+03  0.47000000000E+01 0.  1.
         11    1    4    4    0    0  0.14633562139E+01  0.26478509574E+02 -0.74563773889E+03  0.74610916798E+03  0.00000000000E+00 0. -1.
        -12    1    4    4    0    0 -0.63749704032E+01  0.62326443504E+02 -0.30843475202E+03  0.31473357314E+03  0.00000000000E+00 0.  1.
</event>
<event>
12    1  0.1623092E-001  0.3761022E+03  0.7818608E-02  0.1052650E+00
         21   -1    0    0  503  502  0.00000000000E+00  0.00000000000E+00  0.11726366479E+03  0.11726366479E+03  0.00000000000E+00 0. -1.
         21   -1    0    0  501  503 -0.00000000000E+00 -0.00000000000E+00 -0.18547168531E+04  0.18547168531E+04  0.00000000000E+00 0.  1.
          6    2    1    2  501    0 -0.14124549138E+03  0.29986671098E+03 -0.14536624458E+04  0.15008222912E+04  0.17164705164E+03 0.  0.
         24    2    3    3    0    0 -0.15483866624E+03  0.17979074436E+03 -0.10558662521E+04  0.10850496203E+04  0.78609235412E+02 0.  0.
         -6    2    1    2    0  502  0.14124549138E+03 -0.29986671098E+03 -0.28379074253E+03  0.47115822668E+03  0.17771481602E+03 0.  0.
        -24    2    5    5    0    0  0.26146441945E+02 -0.93456962895E+02 -0.38765251599E+02  0.13069918877E+03  0.78496451352E+02 0.  0.
          5    1    3    3  501    0  0.13593174862E+02  0.12007596662E+03 -0.39779619373E+03  0.41577267095E+03  0.47000000000E+01 0. -1.
        -13    1    4    4    0    0 -0.10788207361E+03  0.65119154624E+02 -0.54117061672E+03  0.55564798435E+03  0.00000000000E+00 0.  1.
         14    1    4    4    0    0 -0.46956592631E+02  0.11467158974E+03 -0.51469563533E+03  0.52940163592E+03  0.00000000000E+00 0. -1.
         -5    1    5    5    0  502  0.11509904943E+03 -0.20640974809E+03 -0.24502549094E+03  0.34045903791E+03  0.47000000000E+01 0.  1.
         13    1    6    6    0    0 -0.12426424061E+02 -0.76211428708E+02 -0.42745355399E+02  0.88259635672E+02  0.00000000000E+00 0. -1.
        -14    1    6    6    0    0  0.38572866006E+02 -0.17245534187E+02  0.39801038005E+01  0.42439553103E+02  0.00000000000E+00 0.  1.
</event>
<event>
12    1  0.1623092E-001  0.1991852E+03  0.7818608E-02  0.1150467E+00
         21   -1    0    0  501  502  0.00000000000E+00  0.00000000000E+00  0.50813871307E+03  0.50813871307E+03  0.00000000000E+00 0.  1.
         21   -1    0    0  502  503 -0.00000000000E+00 -0.00000000000E+00 -0.23021628531E+03  0.23021628531E+03  0.00000000000E+00 0. -1.
         -6    2    1    2    0  503  0.33852016439E+02  0.93046055173E+02 -0.16120148965E+03  0.25624334537E+03  0.17283287992E+03 0.  0.
        -24    2    3    3    0    0 -0.17506418462E+02 -0.12637880616E+00 -0.10899644789E+03  0.13764213258E+03  0.82210950307E+02 0.  0.
          6    2    1    2  501    0 -0.33852016439E+02 -0.93046055173E+02  0.43912391740E+03  0.48211165301E+03  0.17262185185E+03 0.  0.
         24    2    5    5    0    0 -0.69914212830E+02 -0.72178887331E+02  0.41321889512E+03  0.43282594635E+03  0.80564605222E+02 0.  0.
          5    1    5    5  501    0  0.36062196391E+02 -0.20867167842E+02  0.25905022285E+02  0.49285706669E+02  0.47000000000E+01 0. -1.
        -11    1    6    6    0    0 -0.60433098981E+02 -0.72940538976E+02  0.41255667809E+03  0.42329126416E+03  0.00000000000E+00 0.  1.
         12    1    6    6    0    0 -0.94811138487E+01  0.76165164480E+00  0.66221703339E+00  0.95346821887E+01  0.00000000000E+00 0. -1.
         -5    1    3    3    0  503  0.51358434901E+02  0.93172433980E+02 -0.52205041762E+02  0.11860121279E+03  0.47000000000E+01 0.  1.
         11    1    4    4    0    0  0.31276144372E+02  0.93033671979E+01 -0.30034890545E+02  0.44349120601E+02  0.00000000000E+00 0. -1.
        -12    1    4    4    0    0 -0.48782562835E+02 -0.94297460041E+01 -0.78961557341E+02  0.93293011979E+02  0.00000000000E+00 0.  1.
</event>
<event>
12    1  0.1623092E-001  0.2870274E+03  0.7818608E-02  0.1091934E+00
         21   -1    0    0  503  502  0.00000000000E+00  0.00000000000E+00  0.93542172361E+03  0.93542172361E+03  0.00000000000E+00 0.  1.
         21   -1    0    0  501  503 -0.00000000000E+00 -0.00000000000E+00 -0.93613729573E+02  0.93613729573E+02  0.00000000000E+00 0.  1.
          6    2    1    2  501    0 -0.32556411155E+02 -0.22716689544E+03  0.29524472111E+03  0.41176959303E+03  0.17239499445E+03 0.  0.
         24    2    3    3    0    0 -0.34404609905E+02 -0.24347895903E+03  0.25712216152E+03  0.36999736773E+03  0.10159018412E+03 0.  0.
         -6    2    1    2    0  502  0.32556411155E+02  0.22716689544E+03  0.54656327293E+03  0.61726586015E+03  0.17210756085E+03 0.  0.
        -24    2    5    5    0    0  0.75015472028E+02  0.20008193923E+03  0.37664065477E+03  0.43997470734E+03  0.77842512952E+02 0.  0.
          5    1    3    3  501    0  0.18481987495E+01  0.16312063586E+02  0.38122559593E+02  0.41772225305E+02  0.47000000000E+01 0. -1.
        -13    1    4    4    0    0  0.97489592310E+01 -0.12506806279E+03  0.68436947425E+02  0.14290093880E+03  0.00000000000E+00 0.  1.
         14    1    4    4    0    0 -0.44153569136E+02 -0.11841089624E+03  0.18868521409E+03  0.22709642893E+03  0.00000000000E+00 0. -1.
         -5    1    5    5    0  502 -0.42459060873E+02  0.27084956212E+02  0.16992261816E+03  0.17729115281E+03  0.47000000000E+01 0.  1.
         11    1    6    6    0    0 -0.14658652803E+02  0.12068283843E+02  0.27552073146E+02  0.33460966985E+02  0.00000000000E+00 0. -1.
        -12    1    6    6    0    0  0.89674124831E+02  0.18801365539E+03  0.34908858162E+03  0.40651374035E+03  0.00000000000E+00 0.  1.
</event>
<event>
12    1  0.1623092E-001  0.3042599E+03  0.7818608E-02  0.1083352E+00
         21   -1    0    0  503  502  0.00000000000E+00  0.00000000000E+00  0.11853488498E+04  0.11853488498E+04  0.00000000000E+00 0. -1.
         21   -1    0    0  501  503 -0.00000000000E+00 -0.00000000000E+00 -0.87778946679E+02  0.87778946679E+02  0.00000000000E+00 0.  1.
          6    2    1    2  501    0  0.14334185760E+01  0.25092167012E+03  0.33097677388E+03  0.44836171200E+03  0.16887528153E+03 0.  0.
         24    2    3    3    0    0  0.39930088577E+02  0.20093294678E+03  0.31214501618E+03  0.38234965885E+03  0.82391076105E+02 0.  0.
         -6    2    1    2    0  502 -0.14334185760E+01 -0.25092167012E+03  0.76659312929E+03  0.82476608453E+03  0.17207652103E+03 0.  0.
        -24    2    5    5    0    0 -0.25977439960E+02 -0.15074899123E+03  0.64574458233E+03  0.66582132719E+03  0.54146914919E+02 0.  0.
          5    1    3    3  501    0 -0.38496670001E+02  0.49988723343E+02  0.18831757697E+02  0.66012053146E+02  0.47000000000E+01 0. -1.
        -13    1    4    4    0    0  0.37912659273E+02  0.14690977067E+03  0.15823699892E+03  0.21922317003E+03  0.00000000000E+00 0.  1.
         14    1    4    4    0    0  0.20174293044E+01  0.54023176110E+02  0.15390801726E+03  0.16312648882E+03  0.00000000000E+00 0. -1.
         -5    1    5    5    0  502  0.24544021384E+02 -0.10017267889E+03  0.12084854697E+03  0.15894475734E+03  0.47000000000E+01 0.  1.
         13    1    6    6    0    0 -0.29680299440E+02 -0.81799451058E+02  0.26663997628E+03  0.28047985190E+03  0.00000000000E+00 0. -1.
        -14    1    6    6    0    0  0.37028594802E+01 -0.68949540170E+02  0.37910460604E+03  0.38534147529E+03  0.00000000000E+00 0.  1.
</event>
<event>
12    1  0.1623092E-001  0.1872274E+03  0.7818608E-02  0.1161298E+00
         21   -1    0    0  501  502  0.00000000000E+00  0.00000000000E+00  0.19162445928E+03  0.19162445928E+03  0.00000000000E+00 0.  1.
         21   -1    0    0  502  503 -0.00000000000E+00 -0.00000000000E+00 -0.19572576265E+03  0.19572576265E+03  0.00000000000E+00 0. -1.
         -6    2    1    2    0  503  0.68753487667E+02  0.16226880428E+02 -0.54065159100E+02  0.19487722875E+03  0.17338898218E+03 0.  0.
        -24    2    3    3    0    0  0.52163054587E+02  0.18046616341E+02 -0.10412393762E+03  0.14190058091E+03  0.79039963645E+02 0.  0.
          6    2    1    2  501    0 -0.68753487667E+02 -0.16226880428E+02  0.49963855732E+02  0.19247299319E+03  0.17192763743E+03 0.  0.
         24    2    5    5    0    0  0.20209610473E+02 -0.44770356605E+02  0.26644595818E+02  0.96062201544E+02  0.78135772174E+02 0.  0.
          5    1    5    5  501    0 -0.88963098140E+02  0.28543476177E+02  0.23319259914E+02  0.96410791647E+02  0.47000000000E+01 0. -1.
        -11    1    6    6    0    0 -0.78526687522E+01  0.16534645278E+02 -0.83268760203E+01  0.20109593861E+02  0.00000000000E+00 0.  1.
         12    1    6    6    0    0  0.28062279225E+02 -0.61305001884E+02  0.34971471838E+02  0.75952607682E+02  0.00000000000E+00 0. -1.
         -5    1    3    3    0  503  0.16590433080E+02 -0.18197359134E+01  0.50058778521E+02  0.52976647833E+02  0.47000000000E+01 0.  1.
         11    1    4    4    0    0 -0.48916714587E+01  0.16311636673E+02 -0.76710550269E+02  0.78578027865E+02  0.00000000000E+00 0. -1.
        -12    1    4    4    0    0  0.57054726046E+02  0.17349796683E+01 -0.27413387351E+02  0.63322553049E+02  0.00000000000E+00 0.  1.
</event>
<event>
12    1  0.1623092E-001  0.1725327E+03  0.7818608E-02  0.1176297E+00
         21   -1    0    0  503  502  0.00000000000E+00  0.00000000000E+00  0.21529369512E+03  0.21529369512E+03  0.00000000000E+00 0. -1.
         21   -1    0    0  501  503 -0.00000000000E+00 -0.00000000000E+00 -0.14091387703E+03  0.14091387703E+03  0.00000000000E+00 0. -1.
          6    2    1    2  501    0 -0.97714578858E+01 -0.16804016293E+02  0.11045223916E+01  0.17253623368E+03  0.17143417282E+03 0.  0.
         24    2    3    3    0    0  0.52135713814E+02  0.50303254821E+01  0.30426302108E+02  0.10048699250E+03  0.80177546564E+02 0.  0.
         -6    2    1    2    0  502  0.97714578858E+01  0.16804016293E+02  0.73275295705E+02  0.18367133847E+03  0.16729625000E+03 0.  0.
        -24    2    5    5    0    0  0.39605939154E+02 -0.34725283215E+02  0.78177690558E+02  0.12374230998E+03  0.80161912829E+02 0.  0.
          5    1    3    3  501    0 -0.61907171700E+02 -0.21834341775E+02 -0.29321779716E+02  0.72049241178E+02  0.47000000000E+01 0. -1.
        -11    1    4    4    0    0 -0.18065987038E+02 -0.14131299394E+02  0.57364724010E+01  0.23642771111E+02  0.00000000000E+00 0.  1.
         12    1    4    4    0    0  0.70201700852E+02  0.19161624876E+02  0.24689829707E+02  0.76844221392E+02  0.00000000000E+00 0. -1.
         -5    1    5    5    0  502 -0.29834481268E+02  0.51529299508E+02 -0.49023948529E+01  0.59929028489E+02  0.47000000000E+01 0.  1.
         11    1    6    6    0    0 -0.81704400530E+01 -0.31595908693E+02  0.67075168888E+02  0.74593135194E+02  0.00000000000E+00 0. -1.
        -12    1    6    6    0    0  0.47776379207E+02 -0.31293745219E+01  0.11102521670E+02  0.49149174789E+02  0.00000000000E+00 0.  1.
</event>
<event>
12    1  0.1623092E-001  0.2028287E+03  0.7818608E-02  0.1151401E+00
         21   -1    0    0  503  502  0.00000000000E+00  0.00000000000E+00  0.20994711405E+03  0.20994711405E+03  0.00000000000E+00 0. -1.
         21   -1    0    0  501  503 -0.00000000000E+00 -0.00000000000E+00 -0.26179112622E+03  0.26179112622E+03  0.00000000000E+00 0. -1.
          6    2    1    2  501    0  0.44789551320E+02  0.42622350945E+02 -0.15969944391E+03  0.25815385219E+03  0.19317538743E+03 0.  0.
         24    2    3    3    0    0  0.10149758770E+03  0.72800387686E+01 -0.13170926221E+03  0.18555618907E+03  0.82030544780E+02 0.  0.
         -6    2    1    2    0  502 -0.44789551320E+02 -0.42622350945E+02  0.10785543174E+03  0.21358438807E+03  0.17367420063E+03 0.  0.
        -24    2    5    5    0    0  0.79137348549E+01 -0.66875066688E+02  0.21958157296E+02  0.10982378692E+03  0.83929742988E+02 0.  0.
          5    1    3    3  501    0 -0.56708036376E+02  0.35342312177E+02 -0.27990181707E+02  0.72597663127E+02  0.47000000000E+01 0. -1.
        -13    1    4    4    0    0  0.49759704267E+02 -0.34419739700E+02 -0.84986681921E+02  0.10432393184E+03  0.00000000000E+00 0.  1.
         14    1    4    4    0    0  0.51737883429E+02  0.41699778469E+02 -0.46722580285E+02  0.81232257229E+02  0.00000000000E+00 0. -1.
         -5    1    5    5    0  502 -0.52703286175E+02  0.24252715743E+02  0.85897274445E+02  0.10376060115E+03  0.47000000000E+01 0.  1.
         13    1    6    6    0    0 -0.11560963942E+01 -0.74046712512E+02 -0.11025665272E+02  0.74872007369E+02  0.00000000000E+00 0. -1.
        -14    1    6    6    0    0  0.90698312490E+01  0.71716458243E+01  0.32983822567E+02  0.34951779552E+02  0.00000000000E+00 0.  1.
</event>
<event>
12    1  0.1623092E-001  0.2640163E+03  0.7818608E-02  0.1104795E+00
         21   -1    0    0  503  502  0.00000000000E+00  0.00000000000E+00  0.93644476738E+02  0.93644476738E+02  0.00000000000E+00 0.  1.
         21   -1    0    0  501  503 -0.00000000000E+00 -0.00000000000E+00 -0.83355535825E+03  0.83355535825E+03  0.00000000000E+00 0.  1.
          6    2    1    2  501    0  0.17518029656E+03  0.98214741427E+02 -0.21744940754E+03  0.34181910506E+03  0.17094380365E+03 0.  0.
         24    2    3    3    0    0  0.97400333772E+02  0.12466266533E+03 -0.11946058117E+03  0.21386163015E+03  0.80239399626E+02 0.  0.
         -6    2    1    2    0  502 -0.17518029656E+03 -0.98214741427E+02 -0.52246147397E+03  0.58538072993E+03  0.17137775659E+03 0.  0.
        -24    2    5    5    0    0 -0.52100157397E+02 -0.68777745704E+02 -0.14225736466E+03  0.18464077421E+03  0.80064055580E+02 0.  0.
          5    1    3    3  501    0  0.77779962790E+02 -0.26447923902E+02 -0.97988826373E+02  0.12795747491E+03  0.47000000000E+01 0. -1.
        -13    1    4    4    0    0  0.89337051768E+01  0.58215733691E+02 -0.12991720046E+02  0.60313079238E+02  0.00000000000E+00 0.  1.
         14    1    4    4    0    0  0.88466628595E+02  0.66446931637E+02 -0.10646886112E+03  0.15354855091E+03  0.00000000000E+00 0. -1.
         -5    1    5    5    0  502 -0.12308013916E+03 -0.29436995723E+02 -0.38020410932E+03  0.40073995572E+03  0.47000000000E+01 0.  1.
         13    1    6    6    0    0 -0.37435048171E+02 -0.29830145030E+02 -0.14107049596E+02  0.49902196669E+02  0.00000000000E+00 0. -1.
        -14    1    6    6    0    0 -0.14665109226E+02 -0.38947600675E+02 -0.12815031506E+03  0.13473857754E+03  0.00000000000E+00 0.  1.
</event>
<event>
12    1  0.1623092E-001  0.2748206E+03  0.7818608E-02  0.1098636E+00
         21   -1    0    0  503  502  0.00000000000E+00  0.00000000000E+00  0.85817501644E+02  0.85817501644E+02  0.00000000000E+00 0. -1.
         21   -1    0    0  501  503 -0.00000000000E+00 -0.00000000000E+00 -0.11116466999E+04  0.11116466999E+04  0.00000000000E+00 0. -1.
          6    2    1    2  501    0 -0.18466736980E+02 -0.21256644608E+03 -0.78686529908E+03  0.83328005974E+03  0.17225894661E+03 0.  0.
         24    2    3    3    0    0  0.50774744268E+02 -0.79954467058E+02 -0.37540182168E+03  0.39543921772E+03  0.80466488254E+02 0.  0.
         -6    2    1    2    0  502  0.18466736980E+02  0.21256644608E+03 -0.23896389919E+03  0.36418414182E+03  0.17320747577E+03 0.  0.
        -24    2    5    5    0    0  0.11719082818E+02  0.21282814343E+03 -0.25761136341E+03  0.34380235475E+03  0.80020553847E+02 0.  0.
          5    1    3    3  501    0 -0.69241481248E+02 -0.13261197903E+03 -0.41146347740E+03  0.43784084202E+03  0.47000000000E+01 0. -1.
        -13    1    4    4    0    0 -0.14870606487E+02 -0.11386050960E-01 -0.17890657915E+02  0.23263935772E+02  0.00000000000E+00 0.  1.
         14    1    4    4    0    0  0.65645350755E+02 -0.79943081007E+02 -0.35751116377E+03  0.37217528195E+03  0.00000000000E+00 0. -1.
         -5    1    5    5    0  502  0.67476541622E+01 -0.26169734366E+00  0.18647464220E+02  0.20381787067E+02  0.47000000000E+01 0.  1.
         13    1    6    6    0    0 -0.28209372238E+01  0.20769063390E+03 -0.21711920500E+03  0.30047313736E+03  0.00000000000E+00 0. -1.
        -14    1    6    6    0    0  0.14540020041E+02  0.51375095287E+01 -0.40492158408E+02  0.43329217389E+02  0.00000000000E+00 0.  1.
</event>
<event>
12    1  0.1623092E-001  0.2125848E+03  0.7818608E-02  0.1140199E+00
         21   -1    0    0  503  502  0.00000000000E+00  0.00000000000E+00  0.66372624756E+03  0.66372624756E+03  0.00000000000E+00 0. -1.
         21   -1    0    0  501  503 -0.00000000000E+00 -0.00000000000E+00 -0.13797810552E+03  0.13797810552E+03  0.00000000000E+00 0. -1.
          6    2    1    2  501    0 -0.12458083788E+03 -0.94331135350E+01 -0.23578654551E+02  0.21388838397E+03  0.17199685767E+03 0.  0.
         24    2    3    3    0    0 -0.17157752946E+02  0.37280902633E+02 -0.26052089059E+02  0.96627451166E+02  0.83509872393E+02 0.  0.
         -6    2    1    2    0  502  0.12458083788E+03  0.94331135350E+01  0.54932679659E+03  0.58781596911E+03  0.16780439594E+03 0.  0.
        -24    2    5    5    0    0  0.11095693816E+03 -0.17476355497E+01  0.55143757528E+03  0.56945391094E+03  0.88768580583E+02 0.  0.
          5    1    3    3  501    0 -0.10742308493E+03 -0.46714016168E+02  0.24734345077E+01  0.11726093280E+03  0.47000000000E+01 0. -1.
        -13    1    4    4    0    0 -0.19877860318E+02 -0.45037712204E+01  0.23923464786E+02  0.31428417927E+02  0.00000000000E+00 0.  1.
         14    1    4    4    0    0  0.27201073714E+01  0.41784673853E+02 -0.49975553845E+02  0.65199033239E+02  0.00000000000E+00 0. -1.
         -5    1    5    5    0  502  0.13623899717E+02  0.11180749085E+02 -0.21107786932E+01  0.18362058172E+02  0.47000000000E+01 0.  1.
         11    1    6    6    0    0  0.37957928020E+02  0.42009794957E+02  0.24095853034E+03  0.24752099005E+03  0.00000000000E+00 0. -1.
        -12    1    6    6    0    0  0.72999010143E+02 -0.43757430506E+02  0.31047904494E+03  0.32193292089E+03  0.00000000000E+00 0.  1.
</event>
<event>
12    1  0.1623092E-001  0.1905352E+03  0.7818608E-02  0.1158787E+00
         21   -1    0    0  503  502  0.00000000000E+00  0.00000000000E+00  0.39371203362E+03  0.39371203362E+03  0.00000000000E+00 0. -1.
         21   -1    0    0  501  503 -0.00000000000E+00 -0.00000000000E+00 -0.25648004518E+03  0.25648004518E+03  0.00000000000E+00 0. -1.
          6    2    1    2  501    0 -0.67852608459E+02  0.38570772177E+02 -0.19268064780E+03  0.27097875064E+03  0.17381590928E+03 0.  0.
         24    2    3    3    0    0 -0.66853600878E+02 -0.29533902651E+02 -0.58446599962E+02  0.12037956621E+03  0.75720403846E+02 0.  0.
         -6    2    1    2    0  502  0.67852608459E+02 -0.38570772177E+02  0.32991263624E+03  0.37921332816E+03  0.16990797440E+03 0.  0.
        -24    2    5    5    0    0  0.86762775335E+02 -0.73644148900E+02  0.28642385705E+03  0.32004323368E+03  0.86242713807E+02 0.  0.
          5    1    3    3  501    0 -0.99900758131E+00  0.68104674828E+02 -0.13423404784E+03  0.15059918442E+03  0.47000000000E+01 0. -1.
        -11    1    4    4    0    0 -0.37481479379E+02  0.14013099086E+02  0.22891638887E+01  0.40080774865E+02  0.00000000000E+00 0.  1.
         12    1    4    4    0    0 -0.29372121498E+02 -0.43547001737E+02 -0.60735763850E+02  0.80298791349E+02  0.00000000000E+00 0. -1.
         -5    1    5    5    0  502 -0.18910166876E+02  0.35073376722E+02  0.43488779185E+02  0.59170094482E+02  0.47000000000E+01 0.  1.
         13    1    6    6    0    0  0.16376591402E+00 -0.43090129177E+02  0.14626259757E+03  0.15247797710E+03  0.00000000000E+00 0. -1.
        -14    1    6    6    0    0  0.86599009421E+02 -0.30554019722E+02  0.14016125948E+03  0.16756525658E+03  0.00000000000E+00 0.  1.
</event>
<event>
12    1  0.1623092E-001  0.1908796E+03  0.7818608E-02  0.1157818E+00
         21   -1    0    0  501  502  0.00000000000E+00  0.00000000000E+00  0.91046442189E+03  0.91046442189E+03  0.00000000000E+00 0. -1.
         21   -1    0    0  502  503 -0.00000000000E+00 -0.00000000000E+00 -0.47336888146E+02  0.47336888146E+02  0.00000000000E+00 0.  1.
         -6    2    1    2    0  503 -0.44272473779E+02  0.71162628453E+02  0.24211747702E+03  0.30831135422E+03  0.17149590911E+03 0.  0.
        -24    2    3    3    0    0 -0.54176195810E+02  0.10083163740E+03  0.12176327629E+03  0.18387037450E+03  0.76680765989E+02 0.  0.
          6    2    1    2  501    0  0.44272473779E+02 -0.71162628453E+02  0.62101005673E+03  0.64948995582E+03  0.17076164829E+03 0.  0.
         24    2    5    5    0    0 -0.21140782253E+02 -0.78687076337E+02  0.49005347808E+03  0.50283653147E+03  0.77804738596E+02 0.  0.
          5    1    5    5  501    0  0.65413256032E+02  0.75244478846E+01  0.13095657865E+03  0.14665342435E+03  0.47000000000E+01 0. -1.
        -13    1    6    6    0    0  0.13738835441E+02  0.10158202228E+02  0.66234152402E+02  0.68402541007E+02  0.00000000000E+00 0.  1.
         14    1    6    6    0    0 -0.34879617694E+02 -0.88845278565E+02  0.42381932568E+03  0.43443399047E+03  0.00000000000E+00 0. -1.
         -5    1    3    3    0  503  0.99037220305E+01 -0.29669008943E+02  0.12035420073E+03  0.12444097972E+03  0.47000000000E+01 0.  1.
         11    1    4    4    0    0 -0.43768923025E+02  0.27226121220E+02  0.88528718557E+02  0.10244176057E+03  0.00000000000E+00 0. -1.
        -12    1    4    4    0    0 -0.10407272785E+02  0.73605516176E+02  0.33234557732E+02  0.81428613926E+02  0.00000000000E+00 0.  1.
</event>
<event>
12    1  0.1623092E-001  0.1787709E+03  0.7818608E-02  0.1169105E+00
         21   -1    0    0  503  502  0.00000000000E+00  0.00000000000E+00  0.14053095282E+03  0.14053095282E+03  0.00000000000E+00 0. -1.
         21   -1    0    0  501  503 -0.00000000000E+00 -0.00000000000E+00 -0.29220270318E+03  0.29220270318E+03  0.00000000000E+00 0. -1.
          6    2    1    2  501    0  0.47291270305E+02  0.16831110023E+01 -0.17808197581E+03  0.25202247585E+03  0.17193848061E+03 0.  0.
         24    2    3    3    0    0  0.38941040397E+02 -0.17097068008E+02 -0.20120926536E+03  0.22072738062E+03  0.80166662182E+02 0.  0.
         -6    2    1    2    0  502 -0.47291270305E+02 -0.16831110023E+01  0.26410225450E+02  0.18071118016E+03  0.17239412262E+03 0.  0.
        -24    2    5    5    0    0 -0.21409198619E+02  0.63335602660E+02  0.36457085495E+02  0.10985679315E+03  0.79181080877E+02 0.  0.
          5    1    3    3  501    0  0.83502299081E+01  0.18780179010E+02  0.23127289554E+02  0.31295095227E+02  0.47000000000E+01 0. -1.
        -11    1    4    4    0    0  0.75601778755E+01 -0.44129155514E+02 -0.69620164665E+02  0.82773824267E+02  0.00000000000E+00 0.  1.
         12    1    4    4    0    0  0.31380862521E+02  0.27032087506E+02 -0.13158910070E+03  0.13795355635E+03  0.00000000000E+00 0. -1.
         -5    1    5    5    0  502 -0.25882071686E+02 -0.65018713663E+02 -0.10046860045E+02  0.70854387005E+02  0.47000000000E+01 0.  1.
         13    1    6    6    0    0  0.58281890831E+00 -0.29891820636E+00  0.42273390475E+02  0.42278464639E+02  0.00000000000E+00 0. -1.
        -14    1    6    6    0    0 -0.21992017527E+02  0.63634520867E+02 -0.58163049804E+01  0.67578328512E+02  0.00000000000E+00 0.  1.
</event>
<event>
12    1  0.1623092E-001  0.1947439E+03  0.7818608E-02  0.1156760E+00
         21   -1    0    0  501  502  0.00000000000E+00  0.00000000000E+00  0.11193051819E+03  0.11193051819E+03  0.00000000000E+00 0. -1.
         21   -1    0    0  502  503 -0.00000000000E+00 -0.00000000000E+00 -0.33541485163E+03  0.33541485163E+03  0.00000000000E+00 0. -1.
         -6    2    1    2    0  503 -0.58715849170E+02 -0.73124378205E+02 -0.15694965608E+03  0.24154922241E+03  0.15785470115E+03 0.  0.
        -24    2    3    3    0    0 -0.67265062004E+02 -0.10640890018E+03 -0.12600195855E+03  0.19506483336E+03  0.79538374716E+02 0.  0.
          6    2    1    2  501    0  0.58715849170E+02  0.73124378205E+02 -0.66534677357E+02  0.20579614740E+03  0.17067649330E+03 0.  0.
         24    2    5    5    0    0 -0.22742169671E+02 -0.38856071777E+01 -0.20046944615E+02  0.84350085395E+02  0.78617763217E+02 0.  0.
          5    1    5    5  501    0  0.81458018841E+02  0.77009985383E+02 -0.46487732742E+02  0.12144606201E+03  0.47000000000E+01 0. -1.
        -13    1    6    6    0    0 -0.35797860697E+01 -0.35552004833E+02 -0.29287790378E+02  0.46201023595E+02  0.00000000000E+00 0.  1.
         14    1    6    6    0    0 -0.19162383601E+02  0.31666397656E+02  0.92408457633E+01  0.38149061800E+02  0.00000000000E+00 0. -1.
         -5    1    3    3    0  503  0.85492128341E+01  0.33284521975E+02 -0.30947697529E+02  0.46484389052E+02  0.47000000000E+01 0.  1.
         13    1    4    4    0    0 -0.34651632334E+02 -0.10137781717E+03 -0.12112373051E+03  0.16170700520E+03  0.00000000000E+00 0. -1.
        -14    1    4    4    0    0 -0.32613429670E+02 -0.50310830097E+01 -0.48782280414E+01  0.33357828166E+02  0.00000000000E+00 0.  1.
</event>
<event>
12    1  0.1623092E-001  0.2253256E+03  0.7818608E-02  0.1130264E+00
         21   -1    0    0  501  502  0.00000000000E+00  0.00000000000E+00  0.76531522478E+03  0.76531522478E+03  0.00000000000E+00 0. -1.
         21   -1    0    0  502  503 -0.00000000000E+00 -0.00000000000E+00 -0.65884084643E+02  0.65884084643E+02  0.00000000000E+00 0. -1.
         -6    2    1    2    0  503 -0.93930656095E+02  0.10906778295E+03  0.35709864305E+03  0.42224527937E+03  0.17335768127E+03 0.  0.
        -24    2    3    3    0    0 -0.99170970226E+02  0.20770607870E+02  0.26232150255E+03  0.29251999895E+03  0.80554823573E+02 0.  0.
          6    2    1    2  501    0  0.93930656095E+02 -0.10906778295E+03  0.34233249709E+03  0.40895403005E+03  0.17126911776E+03 0.  0.
         24    2    5    5    0    0  0.66083301331E+02 -0.12770727540E+03  0.33560172199E+03  0.37445331731E+03  0.83130139768E+02 0.  0.
          5    1    5    5  501    0  0.27847354764E+02  0.18639492447E+02  0.67307750993E+01  0.34500712739E+02  0.47000000000E+01 0. -1.
        -13    1    6    6    0    0 -0.13852199873E+02 -0.25792263131E+02  0.11471724391E+03  0.11839413131E+03  0.00000000000E+00 0.  1.
         14    1    6    6    0    0  0.79935501203E+02 -0.10191501227E+03  0.22088447808E+03  0.25605918600E+03  0.00000000000E+00 0. -1.
         -5    1    3    3    0  503  0.52403141311E+01  0.88297175079E+02  0.94777140499E+02  0.12972528042E+03  0.47000000000E+01 0.  1.
         13    1    4    4    0    0 -0.42932991181E+02  0.25197111830E+02  0.20917179878E+03  0.21501390090E+03  0.00000000000E+00 0. -1.
        -14    1    4    4    0    0 -0.56237979045E+02 -0.44265039601E+01  0.53149703771E+02  0.77506098052E+02  0.00000000000E+00 0.  1.
</event>
<event>
12    1  0.1623092E-001  0.2107054E+03  0.7818608E-02  0.1141831E+00
         21   -1    0    0  503  502  0.00000000000E+00  0.00000000000E+00  0.15997652358E+04  0.15997652358E+04  0.00000000000E+00 0.  1.
         21   -1    0    0  501  503 -0.00000000000E+00 -0.00000000000E+00 -0.49203917958E+02  0.49203917958E+02  0.00000000000E+00 0.  1.
          6    2    1    2  501    0 -0.11263889807E+03 -0.21388842414E+02  0.22831802159E+03  0.31068617669E+03  0.17678172266E+03 0.  0.
         24    2    3    3    0    0 -0.20584029994E+02 -0.71828972234E+01  0.22735521661E+02  0.84938171405E+02  0.78881510591E+02 0.  0.
         -6    2    1    2    0  502  0.11263889807E+03  0.21388842414E+02  0.13222432963E+04  0.13382829771E+04  0.17184000779E+03 0.  0.
        -24    2    5    5    0    0  0.69496326337E+02  0.81052977807E+02  0.81609685978E+03  0.82678772225E+03  0.78514511573E+02 0.  0.
          5    1    3    3  501    0 -0.92054868077E+02 -0.14205945190E+02  0.20558249993E+03  0.22574800529E+03  0.47000000000E+01 0. -1.
        -11    1    4    4    0    0 -0.50379652285E+02  0.17480805740E+01  0.10372732130E+02  0.51466092934E+02  0.00000000000E+00 0.  1.
         12    1    4    4    0    0  0.29795622291E+02 -0.89309777974E+01  0.12362789531E+02  0.33472078471E+02  0.00000000000E+00 0. -1.
         -5    1    5    5    0  502  0.43142571733E+02 -0.59664135394E+02  0.50614643647E+03  0.51149525482E+03  0.47000000000E+01 0.  1.
         11    1    6    6    0    0  0.43092423268E+02  0.45262518814E+02  0.21105334089E+03  0.22011171085E+03  0.00000000000E+00 0. -1.
        -12    1    6    6    0    0  0.26403903069E+02  0.35790458993E+02  0.60504351889E+03  0.60667601139E+03  0.00000000000E+00 0.  1.
</event>
<event>
12    1  0.1623092E-001  0.2145423E+03  0.7818608E-02  0.1138293E+00
         21   -1    0    0  501  502  0.00000000000E+00  0.00000000000E+00  0.25096768220E+03  0.25096768220E+03  0.00000000000E+00 0.  1.
         21   -1    0    0  502  503 -0.00000000000E+00 -0.00000000000E+00 -0.18894825142E+03  0.18894825142E+03  0.00000000000E+00 0.  1.
         -6    2    1    2    0  503  0.12845862029E+03 -0.10910008171E+02 -0.10679197246E+02  0.21339114010E+03  0.16970883305E+03 0.  0.
        -24    2    3    3    0    0  0.13317841029E+03 -0.80276792508E+01 -0.53644385236E+02  0.16981727618E+03  0.90328592496E+02 0.  0.
          6    2    1    2  501    0 -0.12845862029E+03  0.10910008171E+02  0.72698628026E+02  0.22652479353E+03  0.17148686877E+03 0.  0.
         24    2    5    5    0    0 -0.39896938768E+02  0.63174518715E+02  0.58727056759E+02  0.12264002419E+03  0.77517241954E+02 0.  0.
          5    1    5    5  501    0 -0.88561681524E+02 -0.52264510544E+02  0.13971571266E+02  0.10388476934E+03  0.47000000000E+01 0. -1.
        -11    1    6    6    0    0 -0.60428755515E+02  0.52410898576E+02  0.59099422018E+02  0.99454906694E+02  0.00000000000E+00 0.  1.
         12    1    6    6    0    0  0.20531816748E+02  0.10763620139E+02 -0.37236525868E+00  0.23185117497E+02  0.00000000000E+00 0. -1.
         -5    1    3    3    0  503 -0.47197899943E+01 -0.28823289207E+01  0.42965187991E+02  0.43573863917E+02  0.47000000000E+01 0.  1.
         11    1    4    4    0    0  0.12479024612E+03 -0.35216573724E+02 -0.56054665606E+02  0.14126194862E+03  0.00000000000E+00 0. -1.
        -12    1    4    4    0    0  0.83881641646E+01  0.27188894473E+02  0.24102803694E+01  0.28555327562E+02  0.00000000000E+00 0.  1.
</event>
<event>
12    1  0.1623092E-001  0.1891536E+03  0.7818608E-02  0.1160323E+00
         21   -1    0    0  503  502  0.00000000000E+00  0.00000000000E+00  0.26885024838E+03  0.26885024838E+03  0.00000000000E+00 0.  1.
         21   -1    0    0  501  503 -0.00000000000E+00 -0.00000000000E+00 -0.13580448615E+03  0.13580448615E+03  0.00000000000E+00 0.  1.
          6    2    1    2  501    0  0.77027272090E+01  0.68156448582E+02  0.24616244068E+02  0.19074863913E+03  0.17627946667E+03 0.  0.
         24    2    3    3    0    0  0.46587373667E+02 -0.17975716840E+02  0.17326343030E+02  0.95848700738E+02  0.79957873217E+02 0.  0.
         -6    2    1    2    0  502 -0.77027272090E+01 -0.68156448582E+02  0.10842951816E+03  0.21390609540E+03  0.17115555424E+03 0.  0.
        -24    2    5    5    0    0 -0.25536763475E+02 -0.10317959755E+03  0.11195976315E+03  0.17416661323E+03  0.80627941563E+02 0.  0.
          5    1    3    3  501    0 -0.38884646458E+02  0.86132165422E+02  0.72899010378E+01  0.94899938396E+02  0.47000000000E+01 0. -1.
        -11    1    4    4    0    0  0.79795227519E+01  0.10133705063E+02 -0.27484411372E+02  0.30360461626E+02  0.00000000000E+00 0.  1.
         12    1    4    4    0    0  0.38607850915E+02 -0.28109421903E+02  0.44810754402E+02  0.65488239113E+02  0.00000000000E+00 0. -1.
         -5    1    5    5    0  502  0.17834036266E+02  0.35023148969E+02 -0.35302449813E+01  0.39739482166E+02  0.47000000000E+01 0.  1.
         11    1    6    6    0    0  0.21483074072E+02 -0.43619461368E+02  0.14679836919E+02  0.50790525628E+02  0.00000000000E+00 0. -1.
        -12    1    6    6    0    0 -0.47019837548E+02 -0.59560136183E+02  0.97279926227E+02  0.12337608760E+03  0.00000000000E+00 0.  1.
</event>
<event>
12    1  0.1623092E-001  0.2057468E+03  0.7818608E-02  0.1145330E+00
         21   -1    0    0  503  502  0.00000000000E+00  0.00000000000E+00  0.11033330809E+04  0.11033330809E+04  0.00000000000E+00 0. -1.
         21   -1    0    0  501  503 -0.00000000000E+00 -0.00000000000E+00 -0.96815019495E+02  0.96815019495E+02  0.00000000000E+00 0. -1.
          6    2    1    2  501    0 -0.96691231489E+02  0.55925226927E+02  0.34909871517E+02  0.20699443415E+03  0.17073714120E+03 0.  0.
         24    2    3    3    0    0  0.47584251592E+01  0.57865192361E+02  0.25753679892E+02  0.10500560071E+03  0.83617588200E+02 0.  0.
         -6    2    1    2    0  502  0.96691231489E+02 -0.55925226927E+02  0.97160818987E+03  0.99315366623E+03  0.17278571952E+03 0.  0.
        -24    2    5    5    0    0  0.24045765397E+02 -0.68305357524E+02  0.81528329481E+03  0.82026585812E+03  0.53901822815E+02 0.  0.
          5    1    3    3  501    0 -0.10144965665E+03 -0.19399654335E+01  0.91561916248E+01  0.10198883343E+03  0.47000000000E+01 0. -1.
        -11    1    4    4    0    0  0.71163136389E+01  0.19086080081E+01  0.45141273143E+02  0.45738596888E+02  0.00000000000E+00 0.  1.
         12    1    4    4    0    0 -0.23578884797E+01  0.55956584352E+02 -0.19387593250E+02  0.59267003826E+02  0.00000000000E+00 0. -1.
         -5    1    5    5    0  502  0.72645466092E+02  0.12380130596E+02  0.15632489506E+03  0.17288780811E+03  0.47000000000E+01 0.  1.
         11    1    6    6    0    0 -0.12261822403E+02 -0.87951942844E+00  0.17235649757E+03  0.17279435205E+03  0.00000000000E+00 0. -1.
        -12    1    6    6    0    0  0.36307587800E+02 -0.67425838095E+02  0.64292679724E+03  0.64747150608E+03  0.00000000000E+00 0.  1.
</event>
<event>
12    1  0.1623092E-001  0.2234023E+03  0.7818608E-02  0.1132085E+00
         21   -1    0    0  503  502  0.00000000000E+00  0.00000000000E+00  0.80930139174E+03  0.80930139174E+03  0.00000000000E+00 0. -1.
         21   -1    0    0  501  503 -0.00000000000E+00 -0.00000000000E+00 -0.61101682103E+02  0.61101682103E+02  0.00000000000E+00 0. -1.
          6    2    1    2  501    0  0.13788506360E+02 -0.14165682657E+03  0.41654437765E+03  0.47267093845E+03  0.17219703272E+03 0.  0.
         24    2    3    3    0    0  0.77217232029E+02 -0.93767998441E+02  0.26662403491E+03  0.30292188170E+03  0.76930825849E+02 0.  0.
         -6    2    1    2    0  502 -0.13788506360E+02  0.14165682657E+03  0.33165533199E+03  0.39773213539E+03  0.16714907379E+03 0.  0.
        -24    2    5    5    0    0 -0.43986352967E+01  0.69309313458E+02  0.29968329503E+03  0.31794094867E+03  0.80332064540E+02 0.  0.
          5    1    3    3  501    0 -0.63428725669E+02 -0.47888828133E+02  0.14992034274E+03  0.16974905675E+03  0.47000000000E+01 0. -1.
        -13    1    4    4    0    0  0.55163249084E+02 -0.88016618755E+01  0.11024126874E+03  0.12358636913E+03  0.00000000000E+00 0.  1.
         14    1    4    4    0    0  0.22053982945E+02 -0.84966336565E+02  0.15638276617E+03  0.17933551257E+03  0.00000000000E+00 0. -1.
         -5    1    5    5    0  502 -0.93898710630E+01  0.72347513115E+02  0.31972036956E+02  0.79791186729E+02  0.47000000000E+01 0.  1.
         13    1    6    6    0    0  0.37823803983E+02  0.27708627456E+02  0.12864502345E+03  0.13692315451E+03  0.00000000000E+00 0. -1.
        -14    1    6    6    0    0 -0.42222439280E+02  0.41600686002E+02  0.17103827159E+03  0.18101779416E+03  0.00000000000E+00 0.  1.
</event>
<event>
12    1  0.1623092E-001  0.2278415E+03  0.7818608E-02  0.1128348E+00
         21   -1    0    0  503  502  0.00000000000E+00  0.00000000000E+00  0.35359788911E+03  0.35359788911E+03  0.00000000000E+00 0. -1.
         21   -1    0    0  501  503 -0.00000000000E+00 -0.00000000000E+00 -0.16454246394E+03  0.16454246394E+03  0.00000000000E+00 0.  1.
          6    2    1    2  501    0  0.78071252799E+02  0.12531246890E+03  0.81274570600E+01  0.22798637459E+03  0.17353211826E+03 0.  0.
         24    2    3    3    0    0 -0.10199970641E+02  0.10579554551E+02  0.14659121410E+02  0.83002916362E+02  0.80365589082E+02 0.  0.
         -6    2    1    2    0  502 -0.78071252799E+02 -0.12531246890E+03  0.18092796811E+03  0.29015397846E+03  0.17220936733E+03 0.  0.
        -24    2    5    5    0    0 -0.15634634880E+01 -0.12032605050E+03  0.85198346973E+02  0.16741622324E+03  0.79300886695E+02 0.  0.
          5    1    3    3  501    0  0.88271223440E+02  0.11473291434E+03 -0.65316643501E+01  0.14498345823E+03  0.47000000000E+01 0. -1.
        -13    1    4    4    0    0  0.22347704626E+02  0.17503728937E+02 -0.20177633568E+02  0.34827249750E+02  0.00000000000E+00 0.  1.
         14    1    4    4    0    0 -0.32547675266E+02 -0.69241743860E+01  0.34836754978E+02  0.48175666612E+02  0.00000000000E+00 0. -1.
         -5    1    5    5    0  502 -0.76507789311E+02 -0.49864183985E+01  0.95729621135E+02  0.12273775522E+03  0.47000000000E+01 0.  1.
         13    1    6    6    0    0  0.24824289189E+02 -0.93135749907E+01  0.31889805757E+02  0.41472252459E+02  0.00000000000E+00 0. -1.
        -14    1    6    6    0    0 -0.26387752677E+02 -0.11101247551E+03  0.53308541216E+02  0.12594397078E+03  0.00000000000E+00 0.  1.
</event>
<event>
12    1  0.1623092E-001  0.2490410E+03  0.7818608E-02  0.1114116E+00
         21   -1    0    0  501  502  0.00000000000E+00  0.00000000000E+00  0.10678046453E+03  0.10678046453E+03  0.00000000000E+00 0.  1.
         21   -1    0    0  502  503 -0.00000000000E+00 -0.00000000000E+00 -0.58695311835E+03  0.58695311835E+03  0.00000000000E+00 0. -1.
         -6    2    1    2    0  503  0.14979689593E+03  0.99535000149E+02 -0.28265393731E+03  0.37587347621E+03  0.17041506845E+03 0.  0.
        -24    2    3    3    0    0  0.12372225951E+03  0.43997439379E+02 -0.27340403124E+03  0.31364841629E+03  0.79891129481E+02 0.  0.
          6    2    1    2  501    0 -0.14979689593E+03 -0.99535000149E+02 -0.19751871650E+03  0.31786010667E+03  0.17226455746E+03 0.  0.
         24    2    5    5    0    0 -0.12440254022E+03  0.12632970909E+01 -0.12238650245E+03  0.18951638997E+03  0.73894642231E+02 0.  0.
          5    1    5    5  501    0 -0.25394355703E+02 -0.10079829724E+03 -0.75132214051E+02  0.12834371670E+03  0.47000000000E+01 0. -1.
        -11    1    6    6    0    0 -0.34590624513E+02 -0.33720279712E+02 -0.41795069327E+02  0.63877980464E+02  0.00000000000E+00 0.  1.
         12    1    6    6    0    0 -0.89811915711E+02  0.34983576803E+02 -0.80591433121E+02  0.12563840950E+03  0.00000000000E+00 0. -1.
         -5    1    3    3    0  503  0.26074636415E+02  0.55537560770E+02 -0.92499060753E+01  0.62225059926E+02  0.47000000000E+01 0.  1.
         13    1    4    4    0    0  0.12732271794E+03  0.50953516644E+02 -0.21699779681E+03  0.25670095283E+03  0.00000000000E+00 0. -1.
        -14    1    4    4    0    0 -0.36004584281E+01 -0.69560772656E+01 -0.56406234427E+02  0.56947463456E+02  0.00000000000E+00 0.  1.
</event>
<event>
12    1  0.1623092E-001  0.1948051E+03  0.7818608E-02  0.1154823E+00
         21   -1    0    0  501  502  0.00000000000E+00  0.00000000000E+00  0.27665421375E+04  0.27665421375E+04  0.00000000000E+00 0. -1.
         21   -1    0    0  502  503 -0.00000000000E+00 -0.00000000000E+00 -0.14273040031E+02  0.14273040031E+02  0.00000000000E+00 0. -1.
         -6    2    1    2    0  503  0.28067869900E+01  0.87333420488E+02  0.10466942387E+04  0.10641513714E+04  0.17092193381E+03 0.  0.
        -24    2    3    3    0    0  0.14869133010E+02 -0.14200214596E+02  0.32732185433E+03  0.33753366126E+03  0.79791220999E+02 0.  0.
          6    2    1    2  501    0 -0.28067869900E+01 -0.87333420488E+02  0.17055748587E+04  0.17166638061E+04  0.17410921903E+03 0.  0.
         24    2    5    5    0    0  0.64040178137E+02 -0.63062984526E+02  0.91889192404E+03  0.92675893810E+03  0.80260057578E+02 0.  0.
          5    1    5    5  501    0 -0.66846965127E+02 -0.24270435962E+02  0.78668293469E+03  0.78990486804E+03  0.47000000000E+01 0. -1.
        -13    1    6    6    0    0 -0.12206023188E+02 -0.19025754124E+02  0.76272802719E+02  0.79551912339E+02  0.00000000000E+00 0.  1.
         14    1    6    6    0    0  0.76246201325E+02 -0.44037230401E+02  0.84261912133E+03  0.84720702576E+03  0.00000000000E+00 0. -1.
         -5    1    3    3    0  503 -0.12062346020E+02  0.10153363508E+03  0.71937238435E+03  0.72661771009E+03  0.47000000000E+01 0.  1.
         11    1    4    4    0    0 -0.71117900012E+01  0.20878078919E+02  0.29421571752E+02  0.36770920858E+02  0.00000000000E+00 0. -1.
        -12    1    4    4    0    0  0.21980923011E+02 -0.35078293515E+02  0.29790028258E+03  0.30076274040E+03  0.00000000000E+00 0.  1.
</event>
<event>
12    1  0.1623092E-001  0.1891956E+03  0.7818608E-02  0.1159393E+00
         21   -1    0    0  503  502  0.00000000000E+00  0.00000000000E+00  0.82205734643E+03  0.82205734643E+03  0.00000000000E+00 0.  1.
         21   -1    0    0  501  503 -0.00000000000E+00 -0.00000000000E+00 -0.14744094008E+03  0.14744094008E+03  0.00000000000E+00 0.  1.
          6    2    1    2  501    0 -0.95117905742E+01 -0.78314925692E+02 -0.69782017919E+02  0.20165439123E+03  0.17196296616E+03 0.  0.
         24    2    3    3    0    0 -0.77072625479E+01  0.14550422452E+02  0.56949655527E+01  0.81879209152E+02  0.80004097203E+02 0.  0.
         -6    2    1    2    0  502  0.95117905742E+01  0.78314925692E+02  0.74439842427E+03  0.76784389528E+03  0.17097231272E+03 0.  0.
        -24    2    5    5    0    0 -0.45728198629E+01  0.85097392165E+02  0.27986943226E+03  0.30302817640E+03  0.78972778487E+02 0.  0.
          5    1    3    3  501    0 -0.18045280262E+01 -0.92865348144E+02 -0.75476983472E+02  0.11977518208E+03  0.47000000000E+01 0. -1.
        -13    1    4    4    0    0  0.23126033358E+02  0.36578627332E+02 -0.15293830747E+01  0.43302983835E+02  0.00000000000E+00 0.  1.
         14    1    4    4    0    0 -0.30833295906E+02 -0.22028204880E+02  0.72243486274E+01  0.38576225318E+02  0.00000000000E+00 0. -1.
         -5    1    5    5    0  502  0.14084610437E+02 -0.67824664730E+01  0.46452899201E+03  0.46481571888E+03  0.47000000000E+01 0.  1.
         13    1    6    6    0    0  0.11469032019E+02  0.17789747936E+02  0.18167610200E+03  0.18290494762E+03  0.00000000000E+00 0. -1.
        -14    1    6    6    0    0 -0.16041851882E+02  0.67307644230E+02  0.98193330264E+02  0.12012322878E+03  0.00000000000E+00 0.  1.
</event>
<event>
12    1  0.1623092E-001  0.1941266E+03  0.7818608E-02  0.1155010E+00
         21   -1    0    0  501  502  0.00000000000E+00  0.00000000000E+00  0.37440328247E+03  0.37440328247E+03  0.00000000000E+00 0. -1.
         21   -1    0    0  502  503 -0.00000000000E+00 -0.00000000000E+00 -0.11760641957E+03  0.11760641957E+03  0.00000000000E+00 0. -1.
         -6    2    1    2    0  503  0.77576753443E+02 -0.44837598743E+02  0.33870367982E+02  0.19705922644E+03  0.17221084160E+03 0.  0.
        -24    2    3    3    0    0  0.34968830361E+02 -0.67298642662E+02  0.75148183092E+02  0.13345198139E+03  0.80064071301E+02 0.  0.
          6    2    1    2  501    0 -0.77576753443E+02  0.44837598743E+02  0.22292649491E+03  0.29495047559E+03  0.17108769091E+03 0.  0.
         24    2    5    5    0    0 -0.80053626830E+02 -0.26335398888E+01  0.62684704338E+02  0.12774053165E+03  0.77283585376E+02 0.  0.
          5    1    5    5  501    0  0.24768733873E+01  0.47471138632E+02  0.16024179058E+03  0.16720994394E+03  0.47000000000E+01 0. -1.
        -11    1    6    6    0    0 -0.52305998760E+02  0.19845960207E+02  0.40136642004E+00  0.55945873287E+02  0.00000000000E+00 0.  1.
         12    1    6    6    0    0 -0.27747628070E+02 -0.22479500095E+02  0.62283337918E+02  0.71794658368E+02  0.00000000000E+00 0. -1.
         -5    1    3    3    0  503  0.42607923082E+02  0.22461043919E+02 -0.41277815110E+02  0.63607245056E+02  0.47000000000E+01 0.  1.
         13    1    4    4    0    0  0.47094923443E+02 -0.66277233528E+02  0.29953492670E+02  0.86647649832E+02  0.00000000000E+00 0. -1.
        -14    1    4    4    0    0 -0.12126093082E+02 -0.10214091341E+01  0.45194690422E+02  0.46804331556E+02  0.00000000000E+00 0.  1.
</event>
<event>
12    1  0.1623092E-001  0.2151281E+03  0.7818608E-02  0.1138189E+00
         21   -1    0    0  503  502  0.00000000000E+00  0.00000000000E+00  0.35332676595E+03  0.35332676595E+03  0.00000000000E+00 0.  1.
         21   -1    0    0  501  503 -0.00000000000E+00 -0.00000000000E+00 -0.14056839662E+03  0.14056839662E+03  0.00000000000E+00 0. -1.
          6    2    1    2  501    0  0.30799022803E+02  0.11972886614E+03  0.36384166296E+02  0.21818317258E+03  0.17605825185E+03 0.  0.
         24    2    3    3    0    0  0.81617913596E+02  0.98353934054E+02  0.72228242152E+01  0.15563781899E+03  0.88521078544E+02 0.  0.
         -6    2    1    2    0  502 -0.30799022803E+02 -0.11972886614E+03  0.17637420304E+03  0.27571199000E+03  0.17212106419E+03 0.  0.
        -24    2    5    5    0    0 -0.37817097587E+02 -0.12326090379E+03  0.81642952679E+02  0.18053936548E+03  0.96465058406E+02 0.  0.
          5    1    3    3  501    0 -0.50818890792E+02  0.21374932090E+02  0.29161342081E+02  0.62545353586E+02  0.47000000000E+01 0. -1.
        -13    1    4    4    0    0  0.12775672772E+02  0.26722417872E+02  0.41109180291E+02  0.50668235966E+02  0.00000000000E+00 0.  1.
         14    1    4    4    0    0  0.68842240824E+02  0.71631516182E+02 -0.33886356075E+02  0.10496958302E+03  0.00000000000E+00 0. -1.
         -5    1    5    5    0  502  0.70180747842E+01  0.35320376436E+01  0.94731250357E+02  0.95172624518E+02  0.47000000000E+01 0.  1.
         13    1    6    6    0    0 -0.52011248907E+02 -0.33198193900E+02  0.58577350675E+01  0.61980667560E+02  0.00000000000E+00 0. -1.
        -14    1    6    6    0    0  0.14194151320E+02 -0.90062709888E+02  0.75785217612E+02  0.11855869792E+03  0.00000000000E+00 0.  1.
</event>
<event>
12    1  0.1623092E-001  0.1850871E+03  0.7818608E-02  0.1163132E+00
         21   -1    0    0  503  502  0.00000000000E+00  0.00000000000E+00  0.13376419891E+03  0.13376419891E+03  0.00000000000E+00 0.  1.
         21   -1    0    0  501  503 -0.00000000000E+00 -0.00000000000E+00 -0.56180744588E+03  0.56180744588E+03  0.00000000000E+00 0.  1.
          6    2    1    2  501    0  0.46870850419E+02 -0.44268629173E+02 -0.47079126993E+03  0.50561207956E+03  0.17275001304E+03 0.  0.
         24    2    3    3    0    0  0.63015696100E+02 -0.89331017385E+02 -0.35843030378E+03  0.38338953014E+03  0.81020000787E+02 0.  0.
         -6    2    1    2    0  502 -0.46870850419E+02  0.44268629173E+02  0.42748022959E+02  0.18995956523E+03  0.17349540284E+03 0.  0.
        -24    2    5    5    0    0  0.40341200625E+01  0.36488471030E+02  0.86264821232E+02  0.12237518381E+03  0.78653566901E+02 0.  0.
          5    1    3    3  501    0 -0.16144845681E+02  0.45062388212E+02 -0.11236096615E+03  0.12222254942E+03  0.47000000000E+01 0. -1.
        -11    1    4    4    0    0  0.18989231928E+02 -0.78647723603E+02 -0.15356756157E+03  0.17357722006E+03  0.00000000000E+00 0.  1.
         12    1    4    4    0    0  0.44026464171E+02 -0.10683293783E+02 -0.20486274221E+03  0.20981231008E+03  0.00000000000E+00 0. -1.
         -5    1    5    5    0  502 -0.50904970482E+02  0.77801581432E+01 -0.43516798273E+02  0.67584381424E+02  0.47000000000E+01 0.  1.
         13    1    6    6    0    0  0.17105863018E+02 -0.16475031721E+02  0.54008278686E+02  0.58999418527E+02  0.00000000000E+00 0. -1.
        -14    1    6    6    0    0 -0.13071742956E+02  0.52963502751E+02  0.32256542546E+02  0.63375765278E+02  0.00000000000E+00 0.  1.
</event>
<event>
12    1  0.1623092E-001  0.2280273E+03  0.7818608E-02  0.1128908E+00
         21   -1    0    0  501  502  0.00000000000E+00  0.00000000000E+00  0.71576301819E+02  0.71576301819E+02  0.00000000000E+00 0.  1.
         21   -1    0    0  502  503 -0.00000000000E+00 -0.00000000000E+00 -0.72598096818E+03  0.72598096818E+03  0.00000000000E+00 0.  1.
         -6    2    1    2    0  503  0.12292945298E+03  0.71681241662E+02 -0.38086238501E+03  0.44143671978E+03  0.17193129569E+03 0.  0.
        -24    2    3    3    0    0  0.66220963306E+02  0.45901458713E+02 -0.35729185943E+03  0.37466764246E+03  0.78906334326E+02 0.  0.
          6    2    1    2  501    0 -0.12292945298E+03 -0.71681241662E+02 -0.27354228135E+03  0.35612055022E+03  0.17817580023E+03 0.  0.
         24    2    5    5    0    0 -0.65761571233E+01 -0.32063722361E+02 -0.44805645826E+02  0.96408833651E+02  0.78840276344E+02 0.  0.
          5    1    5    5  501    0 -0.11635329586E+03 -0.39617519301E+02 -0.22873663552E+03  0.25971171657E+03  0.47000000000E+01 0. -1.
        -13    1    6    6    0    0 -0.36205480399E+02 -0.37706584310E+02 -0.40096945359E+02  0.65881623677E+02  0.00000000000E+00 0.  1.
         14    1    6    6    0    0  0.29629323275E+02  0.56428619488E+01 -0.47087004667E+01  0.30527209974E+02  0.00000000000E+00 0. -1.
         -5    1    3    3    0  503  0.56708489675E+02  0.25779782949E+02 -0.23570525581E+02  0.66769077321E+02  0.47000000000E+01 0.  1.
         11    1    4    4    0    0 -0.17562178528E+01  0.11396374797E+02 -0.25269625079E+01  0.11804541464E+02  0.00000000000E+00 0. -1.
        -12    1    4    4    0    0  0.67977181158E+02  0.34505083916E+02 -0.35476489692E+03  0.36286310099E+03  0.00000000000E+00 0.  1.
</event>
<event>
12    1  0.1623092E-001  0.1948491E+03  0.7818608E-02  0.1154268E+00
         21   -1    0    0  503  502  0.00000000000E+00  0.00000000000E+00  0.75924757504E+03  0.75924757504E+03  0.00000000000E+00 0. -1.
         21   -1    0    0  501  503 -0.00000000000E+00 -0.00000000000E+00 -0.55529825380E+02  0.55529825380E+02  0.00000000000E+00 0.  1.
          6    2    1    2  501    0  0.40579122777E+02 -0.81416845053E+02  0.22228455125E+03  0.29559530198E+03  0.17231016501E+03 0.  0.
         24    2    3    3    0    0 -0.16842315312E+02  0.31867779580E+01  0.64885327325E+02  0.10784120677E+03  0.84414459874E+02 0.  0.
         -6    2    1    2    0  502 -0.40579122777E+02  0.81416845053E+02  0.48143319841E+03  0.51918209844E+03  0.17174620503E+03 0.  0.
        -24    2    5    5    0    0 -0.67558683706E+02  0.88666425642E+01  0.19079776516E+03  0.21837905050E+03  0.81503554595E+02 0.  0.
          5    1    3    3  501    0  0.57421438090E+02 -0.84603623011E+02  0.15739922392E+03  0.18775409522E+03  0.47000000000E+01 0. -1.
        -11    1    4    4    0    0 -0.19040406912E+02 -0.24226059242E+02 -0.63687404021E+01  0.31464263794E+02  0.00000000000E+00 0.  1.
         12    1    4    4    0    0  0.21980916001E+01  0.27412837200E+02  0.71254067727E+02  0.76376942972E+02  0.00000000000E+00 0. -1.
         -5    1    5    5    0  502  0.26979560929E+02  0.72550202489E+02  0.29063543325E+03  0.30080304794E+03  0.47000000000E+01 0.  1.
         13    1    6    6    0    0 -0.19419355367E+02 -0.31631038695E+02  0.10927275864E+03  0.11540437493E+03  0.00000000000E+00 0. -1.
        -14    1    6    6    0    0 -0.48139328339E+02  0.40497681260E+02  0.81525006514E+02  0.10297467556E+03  0.00000000000E+00 0.  1.
</event>
<event>
12    1  0.1623092E-001  0.2389814E+03  0.7818608E-02  0.1120591E+00
         21   -1    0    0  501  502  0.00000000000E+00  0.00000000000E+00  0.65918552934E+03  0.65918552934E+03  0.00000000000E+00 0. -1.
         21   -1    0    0  502  503 -0.00000000000E+00 -0.00000000000E+00 -0.21172793269E+03  0.21172793269E+03  0.00000000000E+00 0.  1.
         -6    2    1    2    0  503  0.60985183090E+02 -0.15418418348E+03 -0.11145001277E+03  0.26305673087E+03  0.17113089528E+03 0.  0.
        -24    2    3    3    0    0  0.89022589644E+01 -0.30829957160E+02  0.53528349875E+01  0.85310025190E+02  0.78863242910E+02 0.  0.
          6    2    1    2  501    0 -0.60985183090E+02  0.15418418348E+03  0.55890760942E+03  0.60785673117E+03  0.17210501088E+03 0.  0.
         24    2    5    5    0    0 -0.71925128126E+02  0.17980322010E+03  0.46752314042E+03  0.51220513103E+03  0.79207243409E+02 0.  0.
          5    1    5    5  501    0  0.10939945036E+02 -0.25619036628E+02  0.91384469000E+02  0.95651600141E+02  0.47000000000E+01 0. -1.
        -11    1    6    6    0    0  0.16645034991E+02  0.40887961907E+02  0.87432085198E+02  0.97945148633E+02  0.00000000000E+00 0.  1.
         12    1    6    6    0    0 -0.88570163117E+02  0.13891525820E+03  0.38009105522E+03  0.41425998239E+03  0.00000000000E+00 0. -1.
         -5    1    3    3    0  503  0.52082924125E+02 -0.12335422632E+03 -0.11680284775E+03  0.17774670568E+03  0.47000000000E+01 0.  1.
         11    1    4    4    0    0  0.56783933151E+01  0.17049722690E+02 -0.23295202850E+02  0.29421143252E+02  0.00000000000E+00 0. -1.
        -12    1    4    4    0    0  0.32238656493E+01 -0.47879679850E+02  0.28648037838E+02  0.55888881937E+02  0.00000000000E+00 0.  1.
</event>
<event>
12    1  0.1623092E-001  0.1751148E+03  0.7818608E-02  0.1172814E+00
         21   -1    0    0  501  502  0.00000000000E+00  0.00000000000E+00  0.11883238622E+03  0.11883238622E+03  0.00000000000E+00 0. -1.
         21   -1    0    0  502  503 -0.00000000000E+00 -0.00000000000E+00 -0.37724752985E+03  0.37724752985E+03  0.00000000000E+00 0. -1.
         -6    2    1    2    0  503 -0.30979762416E+02 -0.12126251410E+02 -0.26950368663E+03  0.32139916573E+03  0.17192555068E+03 0.  0.
        -24    2    3    3    0    0 -0.54032754341E+02 -0.66017967484E+02 -0.16653863430E+03  0.20282577286E+03  0.78264084014E+02 0.  0.
          6    2    1    2  501    0  0.30979762416E+02  0.12126251410E+02  0.11088542997E+02  0.17468075035E+03  0.17112456604E+03 0.  0.
         24    2    5    5    0    0 -0.44194766179E+01 -0.30096675648E+02  0.56076791640E+02  0.10339320438E+03  0.81364651373E+02 0.  0.
          5    1    5    5  501    0  0.35399239034E+02  0.42222927058E+02 -0.44988248643E+02  0.71287545964E+02  0.47000000000E+01 0. -1.
        -13    1    6    6    0    0  0.26277413572E+02 -0.31900355151E+02  0.22358998918E+01  0.41390027436E+02  0.00000000000E+00 0.  1.
         14    1    6    6    0    0 -0.30696890190E+02  0.18036795030E+01  0.53840891748E+02  0.62003176945E+02  0.00000000000E+00 0. -1.
         -5    1    3    3    0  503  0.23052991924E+02  0.53891716075E+02 -0.10296505232E+03  0.11857339288E+03  0.47000000000E+01 0.  1.
         13    1    4    4    0    0 -0.72090227896E+02 -0.35746317497E+02 -0.11872105789E+03  0.14342067410E+03  0.00000000000E+00 0. -1.
        -14    1    4    4    0    0  0.18057473556E+02 -0.30271649987E+02 -0.47817576411E+02  0.59405098754E+02  0.00000000000E+00 0.  1.
</event>
<event>
12    1  0.1623092E-001  0.1946887E+03  0.7818608E-02  0.1163552E+00
         21   -1    0    0  501  502  0.00000000000E+00  0.00000000000E+00  0.49240414023E+02  0.49240414023E+02  0.00000000000E+00 0.  1.
         21   -1    0    0  502  503 -0.00000000000E+00 -0.00000000000E+00 -0.66249344563E+03  0.66249344563E+03  0.00000000000E+00 0.  1.
         -6    2    1    2    0  503 -0.22505779242E+02 -0.28581411655E+02 -0.25663164408E+03  0.32212339232E+03  0.19125969764E+03 0.  0.
        -24    2    3    3    0    0 -0.35666808002E+02 -0.21713002820E+02 -0.27977489626E+03  0.29422916640E+03  0.80952048166E+02 0.  0.
          6    2    1    2  501    0  0.22505779242E+02  0.28581411655E+02 -0.35662138753E+03  0.38961046734E+03  0.15262403162E+03 0.  0.
         24    2    5    5    0    0 -0.14913777904E+02  0.45351186221E+02 -0.32174584634E+03  0.33557490526E+03  0.82528640737E+02 0.  0.
          5    1    5    5  501    0  0.37419557146E+02 -0.16769774566E+02 -0.34875541185E+02  0.54035562076E+02  0.47000000000E+01 0. -1.
        -11    1    6    6    0    0 -0.64137024810E+00  0.31949200959E+02 -0.31213181527E+03  0.31376333901E+03  0.00000000000E+00 0.  1.
         12    1    6    6    0    0 -0.14272407656E+02  0.13401985262E+02 -0.96140310668E+01  0.21811566258E+02  0.00000000000E+00 0. -1.
         -5    1    3    3    0  503  0.13161028760E+02 -0.68684088352E+01  0.23143252175E+02  0.27894225911E+02  0.47000000000E+01 0.  1.
         11    1    4    4    0    0 -0.26740430694E+02  0.20366312698E+02 -0.48632144523E+02  0.59117872150E+02  0.00000000000E+00 0. -1.
        -12    1    4    4    0    0 -0.89263773080E+01 -0.42079315518E+02 -0.23114275174E+03  0.23511129425E+03  0.00000000000E+00 0.  1.
</event>
<event>
12    1  0.1623092E-001  0.2149735E+03  0.7818608E-02  0.1137760E+00
         21   -1    0    0  503  502  0.00000000000E+00  0.00000000000E+00  0.10607308982E+03  0.10607308982E+03  0.00000000000E+00 0.  1.
         21   -1    0    0  501  503 -0.00000000000E+00 -0.00000000000E+00 -0.55000110818E+03  0.55000110818E+03  0.00000000000E+00 0.  1.
          6    2    1    2  501    0  0.60172705741E+02 -0.11358692739E+03 -0.37187088780E+03  0.42934566946E+03  0.17183422856E+03 0.  0.
         24    2    3    3    0    0  0.73281794286E+02 -0.16383023226E+02 -0.14895745882E+03  0.18576214373E+03  0.81735088444E+02 0.  0.
         -6    2    1    2    0  502 -0.60172705741E+02  0.11358692739E+03 -0.72057130560E+02  0.22672852853E+03  0.17231033340E+03 0.  0.
        -24    2    5    5    0    0 -0.69290150375E+02  0.24359927452E+02  0.18208430307E+01  0.11043308453E+03  0.82447678468E+02 0.  0.
          5    1    3    3  501    0 -0.13109088545E+02 -0.97203904162E+02 -0.22291342898E+03  0.24358352573E+03  0.47000000000E+01 0. -1.
        -13    1    4    4    0    0  0.19143926385E+02 -0.70876822576E+01 -0.12357741284E+03  0.12525215416E+03  0.00000000000E+00 0.  1.
         14    1    4    4    0    0  0.54137867900E+02 -0.92953409685E+01 -0.25380045980E+02  0.60509989576E+02  0.00000000000E+00 0. -1.
         -5    1    5    5    0  502  0.91174446338E+01  0.89226999937E+02 -0.73877973590E+02  0.11629544400E+03  0.47000000000E+01 0.  1.
         11    1    6    6    0    0  0.14046937166E+02  0.18901122459E+02 -0.10908086878E+02  0.25952942671E+02  0.00000000000E+00 0. -1.
        -12    1    6    6    0    0 -0.83337087540E+02  0.54588049928E+01  0.12728929908E+02  0.84480141858E+02  0.00000000000E+00 0.  1.
</event>
<event>
12    1  0.1623092E-001  0.1913390E+03  0.7818608E-02  0.1158524E+00
         21   -1    0    0  501  502  0.00000000000E+00  0.00000000000E+00  0.16512409688E+03  0.16512409688E+03  0.00000000000E+00 0. -1.
         21   -1    0    0  502  503 -0.00000000000E+00 -0.00000000000E+00 -0.14743584943E+04  0.14743584943E+04  0.00000000000E+00 0. -1.
         -6    2    1    2    0  503  0.38424231851E+02  0.63954129896E+02 -0.14135423369E+04  0.14264335119E+04  0.17619328421E+03 0.  0.
        -24    2    3    3    0    0 -0.43500222102E+02  0.47027788571E+02 -0.55365235622E+03  0.56247113654E+03  0.75755961365E+02 0.  0.
          6    2    1    2  501    0 -0.38424231851E+02 -0.63954129896E+02  0.10430793952E+03  0.21304907922E+03  0.17012704543E+03 0.  0.
         24    2    5    5    0    0  0.28130786713E+02 -0.53137377150E+02  0.15090520750E+02  0.10111869707E+03  0.79889580480E+02 0.  0.
          5    1    5    5  501    0 -0.66555018564E+02 -0.10816752746E+02  0.89217418771E+02  0.11193038215E+03  0.47000000000E+01 0. -1.
        -11    1    6    6    0    0 -0.90800191779E+01 -0.58475501426E+02 -0.33027061191E+01  0.59268363255E+02  0.00000000000E+00 0.  1.
         12    1    6    6    0    0  0.37210805891E+02  0.53381242756E+01  0.18393226869E+02  0.41850333815E+02  0.00000000000E+00 0. -1.
         -5    1    3    3    0  503  0.81924453953E+02  0.16926341325E+02 -0.85988998070E+03  0.86396237539E+03  0.47000000000E+01 0.  1.
         13    1    4    4    0    0  0.13655899280E+02 -0.19156585847E+01 -0.22030890635E+03  0.22074004519E+03  0.00000000000E+00 0. -1.
        -14    1    4    4    0    0 -0.57156121382E+02  0.48943447156E+02 -0.33334344986E+03  0.34173109135E+03  0.00000000000E+00 0.  1.
</event>
<event>
12    1  0.1623092E-001  0.1970413E+03  0.7818608E-02  0.1152647E+00
         21   -1    0    0  503  502  0.00000000000E+00  0.00000000000E+00  0.38134698049E+03  0.38134698049E+03  0.00000000000E+00 0. -1.
         21   -1    0    0  501  503 -0.00000000000E+00 -0.00000000000E+00 -0.20373493729E+03  0.20373493729E+03  0.00000000000E+00 0. -1.
          6    2    1    2  501    0 -0.91567699034E+02  0.15293426502E+02 -0.11924424047E+03  0.22878296497E+03  0.17176706254E+03 0.  0.
         24    2    3    3    0    0 -0.38409781034E+02 -0.47185073270E+02 -0.29520909718E+02  0.10712075530E+03  0.83076047616E+02 0.  0.
         -6    2    1    2    0  502  0.91567699034E+02 -0.15293426502E+02  0.29685628367E+03  0.35629895281E+03  0.17380091546E+03 0.  0.
        -24    2    5    5    0    0  0.76589103612E+02 -0.46495639381E+02  0.97912229622E+02  0.15431191597E+03  0.78725011444E+02 0.  0.
          5    1    3    3  501    0 -0.53157918000E+02  0.62478499772E+02 -0.89723330751E+02  0.12166220967E+03  0.47000000000E+01 0. -1.
        -11    1    4    4    0    0 -0.18392848680E+02 -0.65056175054E+02 -0.39723558643E+02  0.78412778974E+02  0.00000000000E+00 0.  1.
         12    1    4    4    0    0 -0.20016932355E+02  0.17871101784E+02  0.10202648924E+02  0.28707976329E+02  0.00000000000E+00 0. -1.
         -5    1    5    5    0  502  0.14978595422E+02  0.31202212879E+02  0.19894405405E+03  0.20198703684E+03  0.47000000000E+01 0.  1.
         11    1    6    6    0    0 -0.75333419899E+01  0.36705350251E+01  0.39268585864E+02  0.40152782029E+02  0.00000000000E+00 0. -1.
        -12    1    6    6    0    0  0.84122445602E+02 -0.50166174406E+02  0.58643643758E+02  0.11415913394E+03  0.00000000000E+00 0.  1.
</event>
<event>
12    1  0.1623092E-001  0.2545613E+03  0.7818608E-02  0.1110503E+00
         21   -1    0    0  503  502  0.00000000000E+00  0.00000000000E+00  0.52855696811E+03  0.52855696811E+03  0.00000000000E+00 0. -1.
         21   -1    0    0  501  503 -0.00000000000E+00 -0.00000000000E+00 -0.28082187520E+03  0.28082187520E+03  0.00000000000E+00 0.  1.
          6    2    1    2  501    0  0.89505097299E+02  0.16512200927E+03 -0.18007323639E+03  0.31156219001E+03  0.17137148943E+03 0.  0.
         24    2    3    3    0    0  0.62666645316E+02  0.24582821892E+02 -0.43067829914E+02  0.11341038684E+03  0.80471450234E+02 0.  0.
         -6    2    1    2    0  502 -0.89505097299E+02 -0.16512200927E+03  0.42780832930E+03  0.49781665330E+03  0.17182844145E+03 0.  0.
        -24    2    5    5    0    0 -0.79405710630E+02 -0.19200928774E+03  0.34751703308E+03  0.41241345895E+03  0.78383285123E+02 0.  0.
          5    1    3    3  501    0  0.26838451983E+02  0.14053918738E+03 -0.13700540648E+03  0.19815180316E+03  0.47000000000E+01 0. -1.
        -11    1    4    4    0    0  0.17728713552E+02  0.42432344126E+02 -0.45900525006E+02  0.64974374241E+02  0.00000000000E+00 0.  1.
         12    1    4    4    0    0  0.44937931764E+02 -0.17849522234E+02  0.28326950921E+01  0.48436012601E+02  0.00000000000E+00 0. -1.
         -5    1    5    5    0  502 -0.10099386670E+02  0.26887278473E+02  0.80291296228E+02  0.85403194348E+02  0.47000000000E+01 0.  1.
         13    1    6    6    0    0 -0.26832861117E+02 -0.24374754524E+02  0.11757897881E+03  0.12304042974E+03  0.00000000000E+00 0. -1.
        -14    1    6    6    0    0 -0.52572849513E+02 -0.16763453322E+03  0.22993805427E+03  0.28937302921E+03  0.00000000000E+00 0.  1.
</event>
<event>
12    1  0.1623092E-001  0.2392483E+03  0.7818608E-02  0.1122300E+00
         21   -1    0    0  501  502  0.00000000000E+00  0.00000000000E+00  0.96209056663E+03  0.96209056663E+03  0.00000000000E+00 0. -1.
         21   -1    0    0  502  503 -0.00000000000E+00 -0.00000000000E+00 -0.85811207149E+02  0.85811207149E+02  0.00000000000E+00 0.  1.
         -6    2    1    2    0  503  0.26772124696E+02 -0.15227888883E+03  0.12540860506E+03  0.25983665730E+03  0.16697953050E+03 0.  0.
        -24    2    3    3    0    0  0.14165588592E+01 -0.13983086553E+03  0.33913851270E+02  0.16396571293E+03  0.78612518810E+02 0.  0.
          6    2    1    2  501    0 -0.26772124696E+02  0.15227888883E+03  0.75087075442E+03  0.78806511648E+03  0.18257637122E+03 0.  0.
         24    2    5    5    0    0 -0.85471916611E+02  0.13343953262E+03  0.57172563760E+03  0.59855086954E+03  0.79255166035E+02 0.  0.
          5    1    5    5  501    0  0.58699791915E+02  0.18839356213E+02  0.17914511682E+03  0.18951424694E+03  0.47000000000E+01 0. -1.
        -13    1    6    6    0    0 -0.42957706528E+02  0.49056517508E+02  0.11542663615E+03  0.13257154594E+03  0.00000000000E+00 0.  1.
         14    1    6    6    0    0 -0.42514210084E+02  0.84383015112E+02  0.45629900145E+03  0.46597932360E+03  0.00000000000E+00 0. -1.
         -5    1    3    3    0  503  0.25355565837E+02 -0.12448023302E+02  0.91494753793E+02  0.95870944372E+02  0.47000000000E+01 0.  1.
         11    1    4    4    0    0 -0.57852176443E+01  0.88497835365E+01 -0.21843971738E+01  0.10796249481E+02  0.00000000000E+00 0. -1.
        -12    1    4    4    0    0  0.72017765035E+01 -0.14868064907E+03  0.36098248444E+02  0.15316946345E+03  0.00000000000E+00 0.  1.
</event>
<event>
12    1  0.1623092E-001  0.2549174E+03  0.7818608E-02  0.1110248E+00
         21   -1    0    0  501  502  0.00000000000E+00  0.00000000000E+00  0.62184501598E+03  0.62184501598E+03  0.00000000000E+00 0.  1.
         21   -1    0    0  502  503 -0.00000000000E+00 -0.00000000000E+00 -0.23470054068E+03  0.23470054068E+03  0.00000000000E+00 0. -1.
         -6    2    1    2    0  503 -0.34631061074E+02  0.18198710878E+03 -0.12546499965E+03  0.28404982383E+03  0.17499776606E+03 0.  0.
        -24    2    3    3    0    0 -0.43752093667E+02  0.12521776947E+03 -0.15511469489E+03  0.21918731116E+03  0.79929802414E+02 0.  0.
          6    2    1    2  501    0  0.34631061074E+02 -0.18198710878E+03  0.51260947495E+03  0.57249573283E+03  0.17511217018E+03 0.  0.
         24    2    5    5    0    0  0.58693385162E+02 -0.20109259092E+03  0.45918588194E+03  0.51068808623E+03  0.77894182439E+02 0.  0.
          5    1    5    5  501    0 -0.24062324088E+02  0.19105482138E+02  0.53423593007E+02  0.61807646598E+02  0.47000000000E+01 0. -1.
        -13    1    6    6    0    0  0.12357047339E+01 -0.11592161832E+03  0.19015098408E+03  0.22270326739E+03  0.00000000000E+00 0.  1.
         14    1    6    6    0    0  0.57457680428E+02 -0.85170972600E+02  0.26903489786E+03  0.28798481884E+03  0.00000000000E+00 0. -1.
         -5    1    3    3    0  503  0.91210325923E+01  0.56769339313E+02  0.29649695240E+02  0.64862512667E+02  0.47000000000E+01 0.  1.
         11    1    4    4    0    0  0.25911005768E+00  0.45005464055E+02 -0.76594710143E+01  0.45653328784E+02  0.00000000000E+00 0. -1.
        -12    1    4    4    0    0 -0.44011203724E+02  0.80212305415E+02 -0.14745522387E+03  0.17353398238E+03  0.00000000000E+00 0.  1.
</event>
<event>
12    1  0.1623092E-001  0.1846551E+03  0.7818608E-02  0.1163995E+00
         21   -1    0    0  501  502  0.00000000000E+00  0.00000000000E+00  0.98092905979E+03  0.98092905979E+03  0.00000000000E+00 0. -1.
         21   -1    0    0  502  503 -0.00000000000E+00 -0.00000000000E+00 -0.50339035711E+02  0.50339035711E+02  0.00000000000E+00 0. -1.
         -6    2    1    2    0  503  0.63996609448E+02 -0.11183542239E+02  0.17620802755E+03  0.25523869355E+03  0.17284931031E+03 0.  0.
        -24    2    3    3    0    0  0.49130293131E+02 -0.27349455258E+02  0.23646117556E+02  0.10103243399E+03  0.80539651336E+02 0.  0.
          6    2    1    2  501    0 -0.63996609448E+02  0.11183542239E+02  0.75438199653E+03  0.77602940195E+03  0.17002587559E+03 0.  0.
         24    2    5    5    0    0 -0.10241997148E+03 -0.61089516676E+01  0.65849218570E+03  0.67118508443E+03  0.79688701155E+02 0.  0.
          5    1    5    5  501    0  0.38423362028E+02  0.17292493907E+02  0.95889810834E+02  0.10484431752E+03  0.47000000000E+01 0. -1.
        -11    1    6    6    0    0 -0.80142591024E+02 -0.13872797152E+01  0.26075438481E+03  0.27279591023E+03  0.00000000000E+00 0.  1.
         12    1    6    6    0    0 -0.22277380451E+02 -0.47216719523E+01  0.39773780089E+03  0.39838917420E+03  0.00000000000E+00 0. -1.
         -5    1    3    3    0  503  0.14866316317E+02  0.16165913019E+02  0.15256191000E+03  0.15420625956E+03  0.47000000000E+01 0.  1.
         13    1    4    4    0    0 -0.22595034786E+02 -0.70046208386E+01  0.64664108401E+01  0.24523759484E+02  0.00000000000E+00 0. -1.
        -14    1    4    4    0    0  0.71725327918E+02 -0.20344834419E+02  0.17179706715E+02  0.76508674510E+02  0.00000000000E+00 0.  1.
</event>
<event>
12    1  0.1623092E-001  0.2078348E+03  0.7818608E-02  0.1143742E+00
         21   -1    0    0  501  502  0.00000000000E+00  0.00000000000E+00  0.16592584280E+03  0.16592584280E+03  0.00000000000E+00 0.  1.
         21   -1    0    0  502  503 -0.00000000000E+00 -0.00000000000E+00 -0.34737951955E+03  0.34737951955E+03  0.00000000000E+00 0.  1.
         -6    2    1    2    0  503  0.56711917395E+02  0.97424633128E+02 -0.22087988712E+03  0.30176403579E+03  0.17194710828E+03 0.  0.
        -24    2    3    3    0    0  0.76278742947E+02  0.73767125346E+02 -0.23289527047E+03  0.26846241761E+03  0.81066807330E+02 0.  0.
          6    2    1    2  501    0 -0.56711917395E+02 -0.97424633128E+02  0.39426210367E+02  0.21154132656E+03  0.17460671827E+03 0.  0.
         24    2    5    5    0    0 -0.60100108955E+02  0.78093086990E+01  0.31357177080E+02  0.10583956852E+03  0.80905706302E+02 0.  0.
          5    1    5    5  501    0  0.33881915596E+01 -0.10523394183E+03  0.80690332872E+01  0.10570175804E+03  0.47000000000E+01 0. -1.
        -13    1    6    6    0    0 -0.19767987602E+02 -0.35837456179E+02  0.19077777209E+02  0.45155931864E+02  0.00000000000E+00 0.  1.
         14    1    6    6    0    0 -0.40332121353E+02  0.43646764878E+02  0.12279399871E+02  0.60683636660E+02  0.00000000000E+00 0. -1.
         -5    1    3    3    0  503 -0.19566825552E+02  0.23657507782E+02  0.12015383349E+02  0.33301618184E+02  0.47000000000E+01 0.  1.
         13    1    4    4    0    0  0.51969882081E+02  0.11539783277E+02 -0.47314003988E+02  0.71222540077E+02  0.00000000000E+00 0. -1.
        -14    1    4    4    0    0  0.24308860866E+02  0.62227342069E+02 -0.18558126648E+03  0.19723987753E+03  0.00000000000E+00 0.  1.
</event>
<event>
12    1  0.1623092E-001  0.2090593E+03  0.7818608E-02  0.1142319E+00
         21   -1    0    0  503  502  0.00000000000E+00  0.00000000000E+00  0.13114267652E+03  0.13114267652E+03  0.00000000000E+00 0.  1.
         21   -1    0    0  501  503 -0.00000000000E+00 -0.00000000000E+00 -0.33508634265E+03  0.33508634265E+03  0.00000000000E+00 0.  1.
          6    2    1    2  501    0 -0.10784067065E+03 -0.50051409970E+02 -0.11936705989E+03  0.24070963394E+03  0.17192405009E+03 0.  0.
         24    2    3    3    0    0 -0.80554565550E+02 -0.78443913765E+02 -0.27668145075E+02  0.14080244310E+03  0.80108152482E+02 0.  0.
         -6    2    1    2    0  502  0.10784067065E+03  0.50051409970E+02 -0.84576606237E+02  0.22551938522E+03  0.17196231244E+03 0.  0.
        -24    2    5    5    0    0  0.57250314184E+01 -0.15766248408E+02 -0.12675955785E+02  0.84270096849E+02  0.81605262050E+02 0.  0.
          5    1    3    3  501    0 -0.27286105097E+02  0.28392503795E+02 -0.91698914818E+02  0.99907190842E+02  0.47000000000E+01 0. -1.
        -13    1    4    4    0    0 -0.71831133224E+02 -0.14258905402E+02 -0.12800818103E+02  0.74343049625E+02  0.00000000000E+00 0.  1.
         14    1    4    4    0    0 -0.87234323260E+01 -0.64185008363E+02 -0.14867326971E+02  0.66459393478E+02  0.00000000000E+00 0. -1.
         -5    1    5    5    0  502  0.10211563923E+03  0.65817658378E+02 -0.71900650453E+02  0.14124928837E+03  0.47000000000E+01 0.  1.
         13    1    6    6    0    0 -0.21336306344E+02  0.61500338901E+01  0.24681101514E+02  0.33199663511E+02  0.00000000000E+00 0. -1.
        -14    1    6    6    0    0  0.27061337763E+02 -0.21916282298E+02 -0.37357057299E+02  0.51070433338E+02  0.00000000000E+00 0.  1.
</event>
<event>
12    1  0.1623092E-001  0.2669105E+03  0.7818608E-02  0.1103167E+00
         21   -1    0    0  503  502  0.00000000000E+00  0.00000000000E+00  0.66797732032E+03  0.66797732032E+03  0.00000000000E+00 0. -1.
         21   -1    0    0  501  503 -0.00000000000E+00 -0.00000000000E+00 -0.10691550111E+03  0.10691550111E+03  0.00000000000E+00 0.  1.
          6    2    1    2  501    0 -0.70957529986E+02 -0.19050588352E+03  0.25299761537E+03  0.36776213246E+03  0.17295586134E+03 0.  0.
         24    2    3    3    0    0 -0.25799077431E+01 -0.19279843787E+02  0.84270196651E+02  0.11779235882E+03  0.79970028463E+02 0.  0.
         -6    2    1    2    0  502  0.70957529986E+02  0.19050588352E+03  0.30806420384E+03  0.40713068896E+03  0.17182660297E+03 0.  0.
        -24    2    5    5    0    0  0.85503554226E+01  0.88677914457E+02  0.24378822444E+03  0.27142113790E+03  0.79371623602E+02 0.  0.
          5    1    3    3  501    0 -0.68377622243E+02 -0.17122603974E+03  0.16872741872E+03  0.24996977364E+03  0.47000000000E+01 0. -1.
        -13    1    4    4    0    0 -0.14316008565E+01 -0.34590483429E+02  0.26287666887E+01  0.34719755747E+02  0.00000000000E+00 0.  1.
         14    1    4    4    0    0 -0.11483068866E+01  0.15310639642E+02  0.81641429962E+02  0.83072603072E+02  0.00000000000E+00 0. -1.
         -5    1    5    5    0  502  0.62407174564E+02  0.10182796907E+03  0.64275979395E+02  0.13570955106E+03  0.47000000000E+01 0.  1.
         11    1    6    6    0    0  0.37100583291E+02  0.14976830881E+02  0.90745188519E+02  0.99173827107E+02  0.00000000000E+00 0. -1.
        -12    1    6    6    0    0 -0.28550227868E+02  0.73701083576E+02  0.15304303593E+03  0.17224731080E+03  0.00000000000E+00 0.  1.
</event>
<event>
12    1  0.1623092E-001  0.1830537E+03  0.7818608E-02  0.1165186E+00
         21   -1    0    0  501  502  0.00000000000E+00  0.00000000000E+00  0.25064541219E+03  0.25064541219E+03  0.00000000000E+00 0.  1.
         21   -1    0    0  502  503 -0.00000000000E+00 -0.00000000000E+00 -0.35208146820E+03  0.35208146820E+03  0.00000000000E+00 0.  1.
         -6    2    1    2    0  503  0.55383292162E+02 -0.22837436824E+02 -0.28850889043E+03  0.34099243414E+03  0.17160886548E+03 0.  0.
        -24    2    3    3    0    0  0.30928609707E+02 -0.54768744471E+02 -0.82569251643E+02  0.13110945549E+03  0.80098774854E+02 0.  0.
          6    2    1    2  501    0 -0.55383292162E+02  0.22837436824E+02  0.18707283442E+03  0.26173444625E+03  0.17297345867E+03 0.  0.
         24    2    5    5    0    0 -0.13122910009E+02 -0.21225731547E+02  0.18472254037E+03  0.20045544014E+03  0.73737535322E+02 0.  0.
          5    1    5    5  501    0 -0.42260382153E+02  0.44063168371E+02  0.23502940462E+01  0.61279006101E+02  0.47000000000E+01 0. -1.
        -13    1    6    6    0    0 -0.22617765286E+02 -0.32575768539E+02  0.45121929659E+02  0.60072727078E+02  0.00000000000E+00 0.  1.
         14    1    6    6    0    0  0.94948552769E+01  0.11350036992E+02  0.13960061071E+03  0.14038271307E+03  0.00000000000E+00 0. -1.
         -5    1    3    3    0  503  0.24454682456E+02  0.31931307647E+02 -0.20593963878E+03  0.20988297864E+03  0.47000000000E+01 0.  1.
         13    1    4    4    0    0 -0.26512299502E+02 -0.22919026653E+02 -0.19765918615E+02  0.40235250047E+02  0.00000000000E+00 0. -1.
        -14    1    4    4    0    0  0.57440909209E+02 -0.31849717818E+02 -0.62803333028E+02  0.90874205445E+02  0.00000000000E+00 0.  1.
</event>
<event>
12    1  0.1623092E-001  0.2805536E+03  0.7818608E-02  0.1095395E+00
         21   -1    0    0  501  502  0.00000000000E+00  0.00000000000E+00  0.62319424718E+03  0.62319424718E+03  0.00000000000E+00 0. -1.
         21   -1    0    0  502  503 -0.00000000000E+00 -0.00000000000E+00 -0.43455643617E+03  0.43455643617E+03  0.00000000000E+00 0. -1.
         -6    2    1    2    0  503 -0.22110628232E+03 -0.19246135395E+02 -0.35113801908E+03  0.44941833339E+03  0.17152413280E+03 0.  0.
        -24    2    3    3    0    0 -0.49836398974E+02  0.16984987453E+02 -0.16919065771E+03  0.19688516821E+03  0.85826186819E+02 0.  0.
          6    2    1    2  501    0  0.22110628232E+03  0.19246135395E+02  0.53977583009E+03  0.60833234997E+03  0.17161555716E+03 0.  0.
         24    2    5    5    0    0  0.12316980754E+03  0.64663445611E+02  0.40439432377E+03  0.43511420019E+03  0.80233630246E+02 0.  0.
          5    1    5    5  501    0  0.97936474771E+02 -0.45417310216E+02  0.13538150632E+03  0.17321814977E+03  0.47000000000E+01 0. -1.
        -11    1    6    6    0    0  0.68867037201E+02  0.60181585396E+00  0.11765189119E+03  0.13632680769E+03  0.00000000000E+00 0.  1.
         12    1    6    6    0    0  0.54302770343E+02  0.64061629757E+02  0.28674243258E+03  0.29878739250E+03  0.00000000000E+00 0. -1.
         -5    1    3    3    0  503 -0.17126988334E+03 -0.36231122848E+02 -0.18194736137E+03  0.25253316518E+03  0.47000000000E+01 0.  1.
         11    1    4    4    0    0 -0.45319055182E+02 -0.28057035320E+02 -0.11123253077E+03  0.12334378742E+03  0.00000000000E+00 0. -1.
        -12    1    4    4    0    0 -0.45173437923E+01  0.45042022773E+02 -0.57958126940E+02  0.73541380792E+02  0.00000000000E+00 0.  1.
</event>
<event>
12    1  0.1623092E-001  0.2824276E+03  0.7818608E-02  0.1094420E+00
         21   -1    0    0  503  502  0.00000000000E+00  0.00000000000E+00  0.73539096785E+02  0.73539096785E+02  0.00000000000E+00 0.  1.
         21   -1    0    0  501  503 -0.00000000000E+00 -0.00000000000E+00 -0.11530196302E+04  0.11530196302E+04  0.00000000000E+00 0.  1.
          6    2    1    2  501    0 -0.21772694604E+03  0.51090714013E+02 -0.38921639453E+03  0.48088953347E+03  0.17248204990E+03 0.  0.
         24    2    3    3    0    0 -0.15919922061E+03 -0.31518600855E+02 -0.24698275906E+03  0.30624048364E+03  0.80280361893E+02 0.  0.
         -6    2    1    2    0  502  0.21772694604E+03 -0.51090714013E+02 -0.69026413891E+03  0.74566919354E+03  0.17187984361E+03 0.  0.
        -24    2    5    5    0    0  0.73649401885E+02 -0.68020166136E+02 -0.41546829017E+03  0.43489629645E+03  0.80435757794E+02 0.  0.
          5    1    3    3  501    0 -0.58527725434E+02  0.82609314867E+02 -0.14223363548E+03  0.17464904983E+03  0.47000000000E+01 0. -1.
        -11    1    4    4    0    0 -0.15769577959E+03 -0.11511133767E+02 -0.19854770505E+03  0.25381421607E+03  0.00000000000E+00 0.  1.
         12    1    4    4    0    0 -0.15034410216E+01 -0.20007467088E+02 -0.48435054008E+02  0.52426267566E+02  0.00000000000E+00 0. -1.
         -5    1    5    5    0  502  0.14407754416E+03  0.16929452123E+02 -0.27479584874E+03  0.31077289709E+03  0.47000000000E+01 0.  1.
         13    1    6    6    0    0 -0.16738526901E+02 -0.54913564765E+01 -0.78670923239E+02  0.80619150591E+02  0.00000000000E+00 0. -1.
        -14    1    6    6    0    0  0.90387928787E+02 -0.62528809660E+02 -0.33679736693E+03  0.35427714586E+03  0.00000000000E+00 0.  1.
</event>
<event>
12    1  0.1623092E-001  0.2058816E+03  0.7818608E-02  0.1145353E+00
         21   -1    0    0  501  502  0.00000000000E+00  0.00000000000E+00  0.33535008796E+03  0.33535008796E+03  0.00000000000E+00 0.  1.
         21   -1    0    0  502  503 -0.00000000000E+00 -0.00000000000E+00 -0.14403827546E+03  0.14403827546E+03  0.00000000000E+00 0.  1.
         -6    2    1    2    0  503 -0.11103781159E+03 -0.14665578016E+02  0.18243697112E+03  0.27331559551E+03  0.16992260455E+03 0.  0.
        -24    2    3    3    0    0 -0.11468454625E+03  0.17243653080E+02  0.19304771371E+03  0.23916628277E+03  0.80518335337E+02 0.  0.
          6    2    1    2  501    0  0.11103781159E+03  0.14665578016E+02  0.88748413747E+01  0.20607276790E+03  0.17275053713E+03 0.  0.
         24    2    5    5    0    0  0.55506106214E+02  0.69454134498E+02  0.41486945450E+02  0.12138985607E+03  0.71480947733E+02 0.  0.
          5    1    5    5  501    0  0.55531705380E+02 -0.54788556482E+02 -0.32612104076E+02  0.84682911830E+02  0.47000000000E+01 0. -1.
        -11    1    6    6    0    0  0.17466478953E+02  0.35373533636E+02 -0.17677412849E+02  0.43230263634E+02  0.00000000000E+00 0.  1.
         12    1    6    6    0    0  0.38039627261E+02  0.34080600862E+02  0.59164358299E+02  0.78159592439E+02  0.00000000000E+00 0. -1.
         -5    1    3    3    0  503  0.36467346553E+01 -0.31909231096E+02 -0.10610742585E+02  0.34149312745E+02  0.47000000000E+01 0.  1.
         11    1    4    4    0    0 -0.17873171813E+02 -0.22346758229E+02  0.14117163792E+02  0.31908027008E+02  0.00000000000E+00 0. -1.
        -12    1    4    4    0    0 -0.96811374435E+02  0.39590411309E+02  0.17893054991E+03  0.20725825576E+03  0.00000000000E+00 0.  1.
</event>
<event>
12    1  0.1623092E-001  0.1744141E+03  0.7818608E-02  0.1173542E+00
         21   -1    0    0  501  502  0.00000000000E+00  0.00000000000E+00  0.14409598348E+03  0.14409598348E+03  0.00000000000E+00 0.  1.
         21   -1    0    0  502  503 -0.00000000000E+00 -0.00000000000E+00 -0.22317976847E+03  0.22317976847E+03  0.00000000000E+00 0.  1.
         -6    2    1    2    0  503  0.13448138800E+02  0.22389464400E+02  0.48984658658E+01  0.17448284850E+03  0.17244746707E+03 0.  0.
        -24    2    3    3    0    0 -0.54145400603E+02  0.13080383422E+02  0.30753031088E+02  0.10136585936E+03  0.78907969721E+02 0.  0.
          6    2    1    2  501    0 -0.13448138800E+02 -0.22389464400E+02 -0.83982250857E+02  0.19279290346E+03  0.17156323794E+03 0.  0.
         24    2    5    5    0    0 -0.13518126711E+02 -0.75922778427E+02 -0.83126831483E+02  0.13904681196E+03  0.80479424514E+02 0.  0.
          5    1    5    5  501    0  0.69987910442E-01  0.53533314027E+02 -0.85541937352E+00  0.53746091498E+02  0.47000000000E+01 0. -1.
        -11    1    6    6    0    0 -0.89463571882E+01  0.13961574260E+02 -0.75709413368E-01  0.16582177018E+02  0.00000000000E+00 0.  1.
         12    1    6    6    0    0 -0.45717695224E+01 -0.89884352686E+02 -0.83051122070E+02  0.12246463494E+03  0.00000000000E+00 0. -1.
         -5    1    3    3    0  503  0.67593539403E+02  0.93090809777E+01 -0.25854565222E+02  0.73116989137E+02  0.47000000000E+01 0.  1.
         13    1    4    4    0    0 -0.36289921029E+02  0.29477625090E+02 -0.15407476886E+02  0.49226812747E+02  0.00000000000E+00 0. -1.
        -14    1    4    4    0    0 -0.17855479574E+02 -0.16397241668E+02  0.46160507975E+02  0.52139046612E+02  0.00000000000E+00 0.  1.
</event>
<event>
12    1  0.1623092E-001  0.3578158E+03  0.7818608E-02  0.1059459E+00
         21   -1    0    0  503  502  0.00000000000E+00  0.00000000000E+00  0.21441234534E+03  0.21441234534E+03  0.00000000000E+00 0.  1.
         21   -1    0    0  501  503 -0.00000000000E+00 -0.00000000000E+00 -0.59702981207E+03  0.59702981207E+03  0.00000000000E+00 0. -1.
          6    2    1    2  501    0  0.25808509321E+03  0.17843267503E+03 -0.18913397151E+03  0.40472679145E+03  0.17200576061E+03 0.  0.
         24    2    3    3    0    0  0.17837255929E+03  0.80872920036E+02 -0.18077749375E+03  0.27837840571E+03  0.80354436185E+02 0.  0.
         -6    2    1    2    0  502 -0.25808509321E+03 -0.17843267503E+03 -0.19348349522E+03  0.40671536596E+03  0.17185863704E+03 0.  0.
        -24    2    5    5    0    0 -0.21472453653E+03 -0.11701064148E+03 -0.20682312531E+03  0.33021151107E+03  0.80409701385E+02 0.  0.
          5    1    3    3  501    0  0.79712533927E+02  0.97559754995E+02 -0.83564777505E+01  0.12634838574E+03  0.47000000000E+01 0. -1.
        -11    1    4    4    0    0  0.81238390230E+02  0.72076479198E+02 -0.63349561468E+02  0.12572931973E+03  0.00000000000E+00 0.  1.
         12    1    4    4    0    0  0.97134169057E+02  0.87964408381E+01 -0.11742793229E+03  0.15264908598E+03  0.00000000000E+00 0. -1.
         -5    1    5    5    0  502 -0.43360556689E+02 -0.61422033552E+02  0.13339630086E+02  0.76503854889E+02  0.47000000000E+01 0.  1.
         11    1    6    6    0    0 -0.13534485515E+03 -0.11008847173E+03 -0.16540424190E+03  0.24040853700E+03  0.00000000000E+00 0. -1.
        -12    1    6    6    0    0 -0.79379681379E+02 -0.69221697466E+01 -0.41418883410E+02  0.89802974075E+02  0.00000000000E+00 0.  1.
</event>
<event>
12    1  0.1623092E-001  0.1956723E+03  0.7818608E-02  0.1153971E+00
         21   -1    0    0  503  502  0.00000000000E+00  0.00000000000E+00  0.49679724351E+03  0.49679724351E+03  0.00000000000E+00 0. -1.
         21   -1    0    0  501  503 -0.00000000000E+00 -0.00000000000E+00 -0.76340367590E+02  0.76340367590E+02  0.00000000000E+00 0.  1.
          6    2    1    2  501    0 -0.86489114815E+02 -0.22781329894E+02  0.19349250881E+03  0.27347033776E+03  0.17131059131E+03 0.  0.
         24    2    3    3    0    0 -0.10550498228E+03 -0.17744490088E+02  0.74678496493E+02  0.15294717611E+03  0.79810980609E+02 0.  0.
         -6    2    1    2    0  502  0.86489114815E+02  0.22781329894E+02  0.22696436711E+03  0.29966727334E+03  0.17403532630E+03 0.  0.
        -24    2    5    5    0    0  0.28345205850E+02 -0.35804530121E+02  0.18300456357E+03  0.20603196231E+03  0.82904065867E+02 0.  0.
          5    1    3    3  501    0  0.19015867469E+02 -0.50368398056E+01  0.11881401232E+03  0.12052316165E+03  0.47000000000E+01 0. -1.
        -13    1    4    4    0    0 -0.27188520986E+02 -0.59100434854E+01 -0.16359349064E+02  0.32276502122E+02  0.00000000000E+00 0.  1.
         14    1    4    4    0    0 -0.78316461297E+02 -0.11834446603E+02  0.91037845557E+02  0.12067067399E+03  0.00000000000E+00 0. -1.
         -5    1    5    5    0  502  0.58143908965E+02  0.58585860015E+02  0.43959803539E+02  0.93635311024E+02  0.47000000000E+01 0.  1.
         13    1    6    6    0    0  0.32909449159E+02 -0.57800919528E+02  0.10044570764E+03  0.12047123443E+03  0.00000000000E+00 0. -1.
        -14    1    6    6    0    0 -0.45642433090E+01  0.21996389407E+02  0.82558855928E+02  0.85560727884E+02  0.00000000000E+00 0.  1.
</event>
<event>
12    1  0.1623092E-001  0.1846775E+03  0.7818608E-02  0.1163464E+00
         21   -1    0    0  503  502  0.00000000000E+00  0.00000000000E+00  0.84684847431E+02  0.84684847431E+02  0.00000000000E+00 0.  1.
         21   -1    0    0  501  503 -0.00000000000E+00 -0.00000000000E+00 -0.70999206723E+03  0.70999206723E+03  0.00000000000E+00 0.  1.
          6    2    1    2  501    0  0.52291346973E+02  0.44074370383E+02 -0.57471246095E+03  0.60365568345E+03  0.17154834975E+03 0.  0.
         24    2    3    3    0    0 -0.12985165225E+02 -0.20027266084E+02 -0.34499576024E+03  0.35634637221E+03  0.85970672328E+02 0.  0.
         -6    2    1    2    0  502 -0.52291346973E+02 -0.44074370383E+02 -0.50594758849E+02  0.19102123121E+03  0.17103317239E+03 0.  0.
        -24    2    5    5    0    0 -0.28529573980E+02 -0.16701956187E+02  0.37770885893E+02  0.95394623586E+02  0.81120912569E+02 0.  0.
          5    1    3    3  501    0  0.65276512198E+02  0.64101636467E+02 -0.22971670071E+03  0.24730931125E+03  0.47000000000E+01 0. -1.
        -13    1    4    4    0    0  0.29351666518E+02  0.14008712218E+02 -0.91858090097E+02  0.97445744194E+02  0.00000000000E+00 0.  1.
         14    1    4    4    0    0 -0.42336831743E+02 -0.34035978302E+02 -0.25313767014E+03  0.25890062801E+03  0.00000000000E+00 0. -1.
         -5    1    5    5    0  502 -0.23761772993E+02 -0.27372414196E+02 -0.88365644742E+02  0.95626607622E+02  0.47000000000E+01 0.  1.
         13    1    6    6    0    0  0.24617349730E+02 -0.11167403780E+02 -0.43181846582E+01  0.27374651298E+02  0.00000000000E+00 0. -1.
        -14    1    6    6    0    0 -0.53146923710E+02 -0.55345524074E+01  0.42089070551E+02  0.68019972288E+02  0.00000000000E+00 0.  1.
</event>
<event>
12    1  0.1623092E-001  0.2662834E+03  0.7818608E-02  0.1103486E+00
         21   -1    0    0  503  502  0.00000000000E+00  0.00000000000E+00  0.17371987713E+04  0.17371987713E+04  0.00000000000E+00 0. -1.
         21   -1    0    0  501  503 -0.00000000000E+00 -0.00000000000E+00 -0.49535064792E+02  0.49535064792E+02  0.00000000000E+00 0.  1.
          6    2    1    2  501    0 -0.18349853085E+03 -0.87578768497E+02  0.12205113654E+04  0.12492217026E+04  0.17194510099E+03 0.  0.
         24    2    3    3    0    0 -0.20407255150E+02 -0.54294234151E+02  0.39931959365E+03  0.41131679131E+03  0.79756159739E+02 0.  0.
         -6    2    1    2    0  502  0.18349853085E+03  0.87578768497E+02  0.46715234107E+03  0.53751213342E+03  0.17130742041E+03 0.  0.
        -24    2    5    5    0    0  0.13221879425E+03  0.82118104697E+02  0.45080751577E+03  0.48321044331E+03  0.77715658516E+02 0.  0.
          5    1    3    3  501    0 -0.16309127570E+03 -0.33284534347E+02  0.82119177175E+03  0.83790491133E+03  0.47000000000E+01 0. -1.
        -13    1    4    4    0    0  0.22865756287E+01  0.18467876124E+02  0.13333060965E+03  0.13462296367E+03  0.00000000000E+00 0.  1.
         14    1    4    4    0    0 -0.22693830778E+02 -0.72762110275E+02  0.26598898400E+03  0.27669382764E+03  0.00000000000E+00 0. -1.
         -5    1    5    5    0  502  0.51279736596E+02  0.54606638006E+01  0.16344825306E+02  0.54301690110E+02  0.47000000000E+01 0.  1.
         13    1    6    6    0    0  0.57459749526E+01  0.36080309278E+02  0.13635526737E+03  0.14116502359E+03  0.00000000000E+00 0. -1.
        -14    1    6    6    0    0  0.12647281930E+03  0.46037795418E+02  0.31445224840E+03  0.34204541972E+03  0.00000000000E+00 0.  1.
</event>
<event>
12    1  0.1623092E-001  0.2100663E+03  0.7818608E-02  0.1142552E+00
         21   -1    0    0  503  502  0.00000000000E+00  0.00000000000E+00  0.33133298618E+03  0.33133298618E+03  0.00000000000E+00 0.  1.
         21   -1    0    0  501  503 -0.00000000000E+00 -0.00000000000E+00 -0.28345343685E+03  0.28345343685E+03  0.00000000000E+00 0. -1.
          6    2    1    2  501    0 -0.37168658980E+02 -0.11324879258E+03 -0.20242189658E+03  0.28801634910E+03  0.16664931713E+03 0.  0.
         24    2    3    3    0    0 -0.57278425721E+02 -0.17773542507E+02 -0.14145403297E+03  0.17286819893E+03  0.79230384888E+02 0.  0.
         -6    2    1    2    0  502  0.37168658980E+02  0.11324879258E+03  0.25030144591E+03  0.32677007393E+03  0.17297707699E+03 0.  0.
        -24    2    5    5    0    0 -0.14113869638E+02  0.46851142442E+00  0.13270629753E+03  0.15589000347E+03  0.80568672313E+02 0.  0.
          5    1    3    3  501    0  0.20109766741E+02 -0.95475250074E+02 -0.60967863608E+02  0.11514815017E+03  0.47000000000E+01 0. -1.
        -11    1    4    4    0    0 -0.11753369084E+02  0.27210814696E+02 -0.74816183585E+02  0.80473793545E+02  0.00000000000E+00 0.  1.
         12    1    4    4    0    0 -0.45525056637E+02 -0.44984357203E+02 -0.66637849387E+02  0.92394405381E+02  0.00000000000E+00 0. -1.
         -5    1    5    5    0  502  0.51282528618E+02  0.11278028116E+03  0.11759514838E+03  0.17088007046E+03  0.47000000000E+01 0.  1.
         13    1    6    6    0    0  0.13680332170E+02  0.78222505280E+01 -0.39465734414E+01  0.16245446547E+02  0.00000000000E+00 0. -1.
        -14    1    6    6    0    0 -0.27794201808E+02 -0.73537391036E+01  0.13665287097E+03  0.13964455692E+03  0.00000000000E+00 0.  1.
</event>
<event>
12    1  0.1623092E-001  0.2214861E+03  0.7818608E-02  0.1132950E+00
         21   -1    0    0  501  502  0.00000000000E+00  0.00000000000E+00  0.51738299417E+03  0.51738299417E+03  0.00000000000E+00 0. -1.
         21   -1    0    0  502  503 -0.00000000000E+00 -0.00000000000E+00 -0.14648885038E+03  0.14648885038E+03  0.00000000000E+00 0. -1.
         -6    2    1    2    0  503 -0.61858553525E+02 -0.12445423086E+03 -0.12690686598E+02  0.22093459548E+03  0.17127669348E+03 0.  0.
        -24    2    3    3    0    0 -0.13091112145E+02 -0.69765800171E+02 -0.70497876666E+02  0.12748488166E+03  0.79017721722E+02 0.  0.
          6    2    1    2  501    0  0.61858553525E+02  0.12445423086E+03  0.38358483039E+03  0.44293724906E+03  0.17245506162E+03 0.  0.
         24    2    5    5    0    0 -0.30776326711E+02  0.78251329358E+02  0.22735712496E+03  0.25546694451E+03  0.80632776445E+02 0.  0.
          5    1    5    5  501    0  0.92634880236E+02  0.46202901505E+02  0.15622770543E+03  0.18747030455E+03  0.47000000000E+01 0. -1.
        -13    1    6    6    0    0 -0.33429828244E+02  0.76970640316E+02  0.23378836616E+03  0.24839290054E+03  0.00000000000E+00 0.  1.
         14    1    6    6    0    0  0.26535015330E+01  0.12806890424E+01 -0.64312411987E+01  0.70740439753E+01  0.00000000000E+00 0. -1.
         -5    1    3    3    0  503 -0.48767441381E+02 -0.54688430692E+02  0.57807190068E+02  0.93449713825E+02  0.47000000000E+01 0.  1.
         11    1    4    4    0    0 -0.30650144499E+02 -0.73389446569E+02 -0.33360176929E+02  0.86245832539E+02  0.00000000000E+00 0. -1.
        -12    1    4    4    0    0  0.17559032354E+02  0.36236463987E+01 -0.37137699737E+02  0.41239049119E+02  0.00000000000E+00 0.  1.
</event>
<event>
12    1  0.1623092E-001  0.2499640E+03  0.7818608E-02  0.1113352E+00
         21   -1    0    0  501  502  0.00000000000E+00  0.00000000000E+00  0.54478250880E+03  0.54478250880E+03  0.00000000000E+00 0.  1.
         21   -1    0    0  502  503 -0.00000000000E+00 -0.00000000000E+00 -0.35339807061E+03  0.35339807061E+03  0.00000000000E+00 0.  1.
         -6    2    1    2    0  503  0.90275204401E+02 -0.15821843206E+03 -0.27346231481E+03  0.37038847946E+03  0.17094824749E+03 0.  0.
        -24    2    3    3    0    0  0.13651770135E+02 -0.14759759461E+03 -0.16167537738E+03  0.23436509085E+03  0.82562990470E+02 0.  0.
          6    2    1    2  501    0 -0.90275204401E+02  0.15821843206E+03  0.46484675300E+03  0.52779209995E+03  0.17117041864E+03 0.  0.
         24    2    5    5    0    0 -0.43937367330E+02  0.17312816548E+03  0.40334762226E+03  0.44921902328E+03  0.84879753547E+02 0.  0.
          5    1    5    5  501    0 -0.46337837072E+02 -0.14909733421E+02  0.61499130742E+02  0.78573076668E+02  0.47000000000E+01 0. -1.
        -11    1    6    6    0    0 -0.67635213365E+02  0.10429282404E+03  0.27164579766E+03  0.29873559316E+03  0.00000000000E+00 0.  1.
         12    1    6    6    0    0  0.23697846035E+02  0.68835341439E+02  0.13170182460E+03  0.15048343012E+03  0.00000000000E+00 0. -1.
         -5    1    3    3    0  503  0.76623434267E+02 -0.10620837444E+02 -0.11178693744E+03  0.13602338861E+03  0.47000000000E+01 0.  1.
         13    1    4    4    0    0 -0.13596700240E+02 -0.50142494506E+02 -0.11390992563E+02  0.53187354928E+02  0.00000000000E+00 0. -1.
        -14    1    4    4    0    0  0.27248470375E+02 -0.97455100109E+02 -0.15028438481E+03  0.18117773592E+03  0.00000000000E+00 0.  1.
</event>
<event>
12    1  0.1623092E-001  0.1839020E+03  0.7818608E-02  0.1164360E+00
         21   -1    0    0  501  502  0.00000000000E+00  0.00000000000E+00  0.38571568281E+03  0.38571568281E+03  0.00000000000E+00 0. -1.
         21   -1    0    0  502  503 -0.00000000000E+00 -0.00000000000E+00 -0.11634563450E+03  0.11634563450E+03  0.00000000000E+00 0.  1.
         -6    2    1    2    0  503 -0.61252801930E+02  0.23453743283E+02  0.85342506118E+01  0.18291362906E+03  0.17053614997E+03 0.  0.
        -24    2    3    3    0    0 -0.85188706822E+01  0.69192942141E+02  0.25401287947E+02  0.11094468600E+03  0.82481898154E+02 0.  0.
          6    2    1    2  501    0  0.61252801930E+02 -0.23453743283E+02  0.26083579770E+03  0.31914768824E+03  0.17180788610E+03 0.  0.
         24    2    5    5    0    0  0.31907791722E+02 -0.36631889982E+01  0.40053350266E+02  0.95496677156E+02  0.80522160640E+02 0.  0.
          5    1    5    5  501    0  0.29345010208E+02 -0.19790554285E+02  0.22078244743E+03  0.22365101108E+03  0.47000000000E+01 0. -1.
        -11    1    6    6    0    0  0.49336195457E+02 -0.25979465296E+02  0.37220243163E+02  0.67039833684E+02  0.00000000000E+00 0.  1.
         12    1    6    6    0    0 -0.17428403735E+02  0.22316276298E+02  0.28331071031E+01  0.28456843472E+02  0.00000000000E+00 0. -1.
         -5    1    3    3    0  503 -0.52733931247E+02 -0.45739198858E+02 -0.16867037335E+02  0.71968943062E+02  0.47000000000E+01 0.  1.
         11    1    4    4    0    0 -0.16259939268E+02  0.10881145576E+01  0.37914603865E+02  0.41268472283E+02  0.00000000000E+00 0. -1.
        -12    1    4    4    0    0  0.77410685862E+01  0.68104827583E+02 -0.12513315919E+02  0.69676213720E+02  0.00000000000E+00 0.  1.
</event>
<event>
12    1  0.1623092E-001  0.1790213E+03  0.7818608E-02  0.1168788E+00
         21   -1    0    0  501  502  0.00000000000E+00  0.00000000000E+00  0.68703068097E+02  0.68703068097E+02  0.00000000000E+00 0.  1.
         21   -1    0    0  502  503 -0.00000000000E+00 -0.00000000000E+00 -0.12186208296E+04  0.12186208296E+04  0.00000000000E+00 0.  1.
         -6    2    1    2    0  503 -0.41845617726E+02 -0.25936186897E+02 -0.69245015168E+02  0.19194656129E+03  0.17211876351E+03 0.  0.
        -24    2    3    3    0    0 -0.49707247586E+02 -0.79209060076E+02 -0.55731693577E+02  0.13622848432E+03  0.81898062311E+02 0.  0.
          6    2    1    2  501    0  0.41845617726E+02  0.25936186897E+02 -0.10806727464E+04  0.10953773364E+04  0.17197145964E+03 0.  0.
         24    2    5    5    0    0  0.81690638035E+02  0.23069092548E+02 -0.47677748502E+03  0.49014397438E+03  0.75622761285E+02 0.  0.
          5    1    5    5  501    0 -0.39845020309E+02  0.28670943486E+01 -0.60389526134E+03  0.60523336206E+03  0.47000000000E+01 0. -1.
        -11    1    6    6    0    0  0.14094140304E+02 -0.72394077912E+01 -0.27056859347E+03  0.27103213386E+03  0.00000000000E+00 0.  1.
         12    1    6    6    0    0  0.67596497732E+02  0.30308500340E+02 -0.20620889156E+03  0.21911184052E+03  0.00000000000E+00 0. -1.
         -5    1    3    3    0  503  0.78616298595E+01  0.53272873179E+02 -0.13513321591E+02  0.55718076970E+02  0.47000000000E+01 0.  1.
         13    1    4    4    0    0  0.20035138637E+02 -0.38877059926E+02 -0.18963184020E+02  0.47670063109E+02  0.00000000000E+00 0. -1.
        -14    1    4    4    0    0 -0.69742386223E+02 -0.40332000150E+02 -0.36768509558E+02  0.88558421210E+02  0.00000000000E+00 0.  1.
</event>
<event>
12    1  0.1623092E-001  0.1826894E+03  0.7818608E-02  0.1165336E+00
         21   -1    0    0  503  502  0.00000000000E+00  0.00000000000E+00  0.11647762944E+03  0.11647762944E+03  0.00000000000E+00 0.  1.
         21   -1    0    0  501  503 -0.00000000000E+00 -0.00000000000E+00 -0.33161509896E+03  0.33161509896E+03  0.00000000000E+00 0.  1.
          6    2    1    2  501    0 -0.53849095203E+02  0.17442990954E+02 -0.19095740790E+03  0.26427286975E+03  0.17369926617E+03 0.  0.
         24    2    3    3    0    0 -0.98604905611E+02 -0.47219199837E+01 -0.16090353626E+03  0.20579474527E+03  0.81953067438E+02 0.  0.
         -6    2    1    2    0  502  0.53849095203E+02 -0.17442990954E+02 -0.24180061623E+02  0.18381985865E+03  0.17320820439E+03 0.  0.
        -24    2    5    5    0    0 -0.24999464599E+02  0.14175070687E+02 -0.45950790208E+02  0.95997015223E+02  0.79234121133E+02 0.  0.
          5    1    3    3  501    0  0.44755810407E+02  0.22164910938E+02 -0.30053871637E+02  0.58478124478E+02  0.47000000000E+01 0. -1.
        -13    1    4    4    0    0 -0.61298171206E+02 -0.34604465515E+02 -0.13291569217E+03  0.15040450808E+03  0.00000000000E+00 0.  1.
         14    1    4    4    0    0 -0.37306734405E+02  0.29882545532E+02 -0.27987844095E+02  0.55390237195E+02  0.00000000000E+00 0. -1.
         -5    1    5    5    0  502  0.78848559803E+02 -0.31618061642E+02  0.21770728585E+02  0.87822843429E+02  0.47000000000E+01 0.  1.
         11    1    6    6    0    0  0.15224816849E+02 -0.12990043989E+02 -0.42929164647E+02  0.47365065905E+02  0.00000000000E+00 0. -1.
        -12    1    6    6    0    0 -0.40224281448E+02  0.27165114676E+02 -0.30216255613E+01  0.48631949318E+02  0.00000000000E+00 0.  1.
</event>
<event>
12    1  0.1623092E-001  0.2348475E+03  0.7818608E-02  0.1123442E+00
         21   -1    0    0  501  502  0.00000000000E+00  0.00000000000E+00  0.30297865746E+03  0.30297865746E+03  0.00000000000E+00 0.  1.
         21   -1    0    0  502  503 -0.00000000000E+00 -0.00000000000E+00 -0.21260204476E+03  0.21260204476E+03  0.00000000000E+00 0.  1.
         -6    2    1    2    0  503  0.82240473734E+02 -0.13721081472E+03 -0.53682458782E+02  0.24090485842E+03  0.17193906256E+03 0.  0.
        -24    2    3    3    0    0  0.86069574534E+02 -0.11490849080E+03  0.18203930760E+02  0.16539460305E+03  0.80075331430E+02 0.  0.
          6    2    1    2  501    0 -0.82240473734E+02  0.13721081472E+03  0.14405907149E+03  0.27467584380E+03  0.17059747916E+03 0.  0.
         24    2    5    5    0    0  0.39017705998E+01  0.11810515979E+03  0.62338030608E+02  0.15431833124E+03  0.77227357277E+02 0.  0.
          5    1    5    5  501    0 -0.86142244334E+02  0.19105654926E+02  0.81721040879E+02  0.12035751257E+03  0.47000000000E+01 0. -1.
        -11    1    6    6    0    0 -0.24988121450E+02  0.20422304003E+02  0.37488409602E+02  0.49465721150E+02  0.00000000000E+00 0.  1.
         12    1    6    6    0    0  0.28889892050E+02  0.97682855789E+02  0.24849621006E+02  0.10485261009E+03  0.00000000000E+00 0. -1.
         -5    1    3    3    0  503 -0.38291007995E+01 -0.22302323920E+02 -0.71886389542E+02  0.75510255374E+02  0.47000000000E+01 0.  1.
         13    1    4    4    0    0 -0.15578084458E+02 -0.13758340908E+02 -0.43367632223E+00  0.20788379809E+02  0.00000000000E+00 0. -1.
        -14    1    4    4    0    0  0.10164765899E+03 -0.10115014989E+03  0.18637607082E+02  0.14460622324E+03  0.00000000000E+00 0.  1.
</event>
<event>
12    1  0.1623092E-001  0.1961509E+03  0.7818608E-02  0.1153243E+00
         21   -1    0    0  503  502  0.00000000000E+00  0.00000000000E+00  0.24224458534E+03  0.24224458534E+03  0.00000000000E+00 0.  1.
         21   -1    0    0  501  503 -0.00000000000E+00 -0.00000000000E+00 -0.16204950492E+03  0.16204950492E+03  0.00000000000E+00 0.  1.
          6    2    1    2  501    0 -0.95240011670E+02 -0.13695760855E+02  0.81354685109E+01  0.19532579060E+03  0.16978735211E+03 0.  0.
         24    2    3    3    0    0 -0.50368585360E+01  0.13741268051E+02 -0.58499197199E+02  0.79776372320E+02  0.52229504267E+02 0.  0.
         -6    2    1    2    0  502  0.95240011670E+02  0.13695760855E+02  0.72059611906E+02  0.20896829967E+03  0.17092960220E+03 0.  0.
        -24    2    5    5    0    0  0.98068495179E+02 -0.45991154278E+02  0.36177226115E+02  0.13911013073E+03  0.79436898000E+02 0.  0.
          5    1    3    3  501    0 -0.90203153134E+02 -0.27437028906E+02  0.66634665710E+02  0.11554941828E+03  0.47000000000E+01 0. -1.
        -13    1    4    4    0    0  0.90725028350E+00 -0.14382081530E+02 -0.46404963089E+02  0.48591027685E+02  0.00000000000E+00 0.  1.
         14    1    4    4    0    0 -0.59441088195E+01  0.28123349580E+02 -0.12094234110E+02  0.31185344635E+02  0.00000000000E+00 0. -1.
         -5    1    5    5    0  502 -0.28284835094E+01  0.59686915133E+02  0.35882385791E+02  0.69858168936E+02  0.47000000000E+01 0.  1.
         11    1    6    6    0    0  0.90078568793E+02 -0.18794617321E+02  0.52958128576E+02  0.10616943806E+03  0.00000000000E+00 0. -1.
        -12    1    6    6    0    0  0.79899263861E+01 -0.27196536957E+02 -0.16780902460E+02  0.32940692669E+02  0.00000000000E+00 0.  1.
</event>
<event>
12    1  0.1623092E-001  0.2192078E+03  0.7818608E-02  0.1134505E+00
         21   -1    0    0  501  502  0.00000000000E+00  0.00000000000E+00  0.17535734217E+03  0.17535734217E+03  0.00000000000E+00 0.  1.
         21   -1    0    0  502  503 -0.00000000000E+00 -0.00000000000E+00 -0.13748243231E+04  0.13748243231E+04  0.00000000000E+00 0. -1.
         -6    2    1    2    0  503 -0.78808166701E+02  0.11182210621E+03 -0.12933115217E+04  0.13117307491E+04  0.17107879862E+03 0.  0.
        -24    2    3    3    0    0 -0.62513530255E+02 -0.45756240522E+01 -0.62275970356E+03  0.63094019568E+03  0.79542468806E+02 0.  0.
          6    2    1    2  501    0  0.78808166701E+02 -0.11182210621E+03  0.93844540842E+02  0.23845091612E+03  0.17128085408E+03 0.  0.
         24    2    5    5    0    0  0.12032295190E+03 -0.77361811958E+02  0.83258504829E+02  0.18326809788E+03  0.78694055494E+02 0.  0.
          5    1    5    5  501    0 -0.41514785202E+02 -0.34460294253E+02  0.10586036013E+02  0.55182818239E+02  0.47000000000E+01 0. -1.
        -11    1    6    6    0    0  0.88430065460E+02 -0.84373305626E+02  0.39057145425E+02  0.12831286681E+03  0.00000000000E+00 0.  1.
         12    1    6    6    0    0  0.31892886443E+02  0.70114936680E+01  0.44201359403E+02  0.54955231072E+02  0.00000000000E+00 0. -1.
         -5    1    3    3    0  503 -0.16294636446E+02  0.11639773026E+03 -0.67055181818E+03  0.68079055344E+03  0.47000000000E+01 0.  1.
         11    1    4    4    0    0 -0.51291073273E+01  0.28603306320E+02 -0.30250421378E+03  0.30389678549E+03  0.00000000000E+00 0. -1.
        -12    1    4    4    0    0 -0.57384422928E+02 -0.33178930372E+02 -0.32025548977E+03  0.32704341019E+03  0.00000000000E+00 0.  1.
</event>
<event>
12    1  0.1623092E-001  0.2670303E+03  0.7818608E-02  0.1103263E+00
         21   -1    0    0  503  502  0.00000000000E+00  0.00000000000E+00  0.93642503221E+02  0.93642503221E+02  0.00000000000E+00 0. -1.
         21   -1    0    0  501  503 -0.00000000000E+00 -0.00000000000E+00 -0.82090885300E+03  0.82090885300E+03  0.00000000000E+00 0. -1.
          6    2    1    2  501    0  0.11905404254E+03 -0.16309526989E+03 -0.49089417216E+03  0.55793253063E+03  0.17186532044E+03 0.  0.
         24    2    3    3    0    0  0.12802660202E+03 -0.12775223096E+03 -0.27303106681E+03  0.33698896341E+03  0.79398707017E+02 0.  0.
         -6    2    1    2    0  502 -0.11905404254E+03  0.16309526989E+03 -0.23637217762E+03  0.35661882559E+03  0.17473193270E+03 0.  0.
        -24    2    5    5    0    0 -0.16802193533E+02  0.13031049263E+03 -0.16817599040E+03  0.22932745826E+03  0.83933194667E+02 0.  0.
          5    1    3    3  501    0 -0.89725594801E+01 -0.35343038934E+02 -0.21786310535E+03  0.22094356722E+03  0.47000000000E+01 0. -1.
        -11    1    4    4    0    0 -0.20786613644E+01  0.70851520121E+00  0.42900702386E+01  0.48194947360E+01  0.00000000000E+00 0.  1.
         12    1    4    4    0    0  0.13010526339E+03 -0.12846074616E+03 -0.27732113705E+03  0.33216946867E+03  0.00000000000E+00 0. -1.
         -5    1    5    5    0  502 -0.10225184901E+03  0.32784777263E+02 -0.68196187217E+02  0.12729136733E+03  0.47000000000E+01 0.  1.
         13    1    6    6    0    0 -0.34825943040E+02  0.27327880123E+02 -0.84591098470E+02  0.95474149805E+02  0.00000000000E+00 0. -1.
        -14    1    6    6    0    0  0.18023749507E+02  0.10298261250E+03 -0.83584891931E+02  0.13385330845E+03  0.00000000000E+00 0.  1.
</event>
<event>
12    1  0.1623092E-001  0.1876718E+03  0.7818608E-02  0.1161524E+00
         21   -1    0    0  503  502  0.00000000000E+00  0.00000000000E+00  0.78007381441E+02  0.78007381441E+02  0.00000000000E+00 0. -1.
         21   -1    0    0  501  503 -0.00000000000E+00 -0.00000000000E+00 -0.62528580041E+03  0.62528580041E+03  0.00000000000E+00 0.  1.
          6    2    1    2  501    0  0.29550478806E+02 -0.55521031313E+02 -0.46202455488E+03  0.49716476899E+03  0.17248275999E+03 0.  0.
         24    2    3    3    0    0 -0.30579494178E+02  0.60026746225E+00 -0.13199037507E+03  0.15700324314E+03  0.79329020279E+02 0.  0.
         -6    2    1    2    0  502 -0.29550478806E+02  0.55521031313E+02 -0.85253864080E+02  0.20612841286E+03  0.17681879292E+03 0.  0.
        -24    2    5    5    0    0 -0.21036302523E+02  0.95901087234E+02 -0.14268057564E+02  0.12388417391E+03  0.74190070233E+02 0.  0.
          5    1    3    3  501    0  0.60129972984E+02 -0.56121298775E+02 -0.33003417981E+03  0.34016152585E+03  0.47000000000E+01 0. -1.
        -13    1    4    4    0    0 -0.10795626124E+02 -0.11305719322E+01 -0.13625863893E+03  0.13669030843E+03  0.00000000000E+00 0.  1.
         14    1    4    4    0    0 -0.19783868055E+02  0.17308393945E+01  0.42682638518E+01  0.20312934710E+02  0.00000000000E+00 0. -1.
         -5    1    5    5    0  502 -0.85141762830E+01 -0.40380055920E+02 -0.70985806517E+02  0.82244238952E+02  0.47000000000E+01 0. -1.
         13    1    6    6    0    0 -0.24771407915E+02  0.10195878775E+03  0.32506230492E+01  0.10497515706E+03  0.00000000000E+00 0. -1.
        -14    1    6    6    0    0  0.37351053925E+01 -0.60577005121E+01 -0.17518680613E+02  0.18909016849E+02  0.00000000000E+00 0.  1.
</event>
<event>
12    1  0.1623092E-001  0.2165276E+03  0.7818608E-02  0.1136667E+00
         21   -1    0    0  501  502  0.00000000000E+00  0.00000000000E+00  0.19184197499E+03  0.19184197499E+03  0.00000000000E+00 0. -1.
         21   -1    0    0  502  503 -0.00000000000E+00 -0.00000000000E+00 -0.25341862528E+03  0.25341862528E+03  0.00000000000E+00 0.  1.
         -6    2    1    2    0  503 -0.68617679083E+02 -0.11302407419E+03  0.13554224728E+02  0.21606882232E+03  0.17035020323E+03 0.  0.
        -24    2    3    3    0    0 -0.13688998594E+02 -0.11021335701E+03  0.54143772314E+02  0.14755122280E+03  0.80656323514E+02 0.  0.
          6    2    1    2  501    0  0.68617679083E+02  0.11302407419E+03 -0.75130875014E+02  0.22919177795E+03  0.17146835122E+03 0.  0.
         24    2    5    5    0    0  0.29971937462E+02  0.18795744245E+01 -0.70993842767E+02  0.11135376112E+03  0.80359719827E+02 0.  0.
          5    1    5    5  501    0  0.38645741621E+02  0.11114449977E+03 -0.41370322478E+01  0.11783801683E+03  0.47000000000E+01 0. -1.
        -13    1    6    6    0    0 -0.24836295761E+01  0.37314101414E+02 -0.36014393230E+02  0.51918658495E+02  0.00000000000E+00 0.  1.
         14    1    6    6    0    0  0.32455567038E+02 -0.35434526989E+02 -0.34979449537E+02  0.59435102630E+02  0.00000000000E+00 0. -1.
         -5    1    3    3    0  503 -0.54928680489E+02 -0.28107171833E+01 -0.40589547585E+02  0.68517599524E+02  0.47000000000E+01 0.  1.
         13    1    4    4    0    0  0.12338120077E+02 -0.40781295858E+02  0.59529485186E+02  0.73205893925E+02  0.00000000000E+00 0. -1.
        -14    1    4    4    0    0 -0.26027118671E+02 -0.69432061150E+02 -0.53857128716E+01  0.74345328871E+02  0.00000000000E+00 0.  1.
</event>
<event>
12    1  0.1623092E-001  0.1944054E+03  0.7818608E-02  0.1154841E+00
         21   -1    0    0  503  502  0.00000000000E+00  0.00000000000E+00  0.13690566215E+03  0.13690566215E+03  0.00000000000E+00 0.  1.
         21   -1    0    0  501  503 -0.00000000000E+00 -0.00000000000E+00 -0.44107204898E+03  0.44107204898E+03  0.00000000000E+00 0.  1.
          6    2    1    2  501    0 -0.11443143457E+02  0.95138934197E+02 -0.32953218743E+03  0.38192442245E+03  0.16760799377E+03 0.  0.
         24    2    3    3    0    0  0.52977283463E+02  0.54026187983E+02 -0.14424474001E+03  0.18144056405E+03  0.79929417051E+02 0.  0.
         -6    2    1    2    0  502  0.11443143457E+02 -0.95138934197E+02  0.25365800601E+02  0.19605328868E+03  0.16914817714E+03 0.  0.
        -24    2    5    5    0    0 -0.21796616457E+02 -0.11776770943E+03 -0.88875156432E+01  0.14302195095E+03  0.77665723741E+02 0.  0.
          5    1    3    3  501    0 -0.64420426920E+02  0.41112746214E+02 -0.18528744742E+03  0.20048385840E+03  0.47000000000E+01 0. -1.
        -13    1    4    4    0    0  0.29126776194E+02  0.57363513774E+02 -0.14359579450E+03  0.15734895616E+03  0.00000000000E+00 0.  1.
         14    1    4    4    0    0  0.23850507270E+02 -0.33373257909E+01 -0.64894550356E+00  0.24091607890E+02  0.00000000000E+00 0. -1.
         -5    1    5    5    0  502  0.33239759914E+02  0.22628775236E+02  0.34253316244E+02  0.53031337731E+02  0.47000000000E+01 0.  1.
         13    1    6    6    0    0  0.26549322668E+02 -0.29975857518E+02 -0.14636246838E+02  0.42633769357E+02  0.00000000000E+00 0. -1.
        -14    1    6    6    0    0 -0.48345939125E+02 -0.87791851915E+02  0.57487311953E+01  0.10038818159E+03  0.00000000000E+00 0.  1.
</event>
<event>
12    1  0.1623092E-001  0.1837085E+03  0.7818608E-02  0.1165035E+00
         21   -1    0    0  501  502  0.00000000000E+00  0.00000000000E+00  0.12406214741E+04  0.12406214741E+04  0.00000000000E+00 0.  1.
         21   -1    0    0  502  503 -0.00000000000E+00 -0.00000000000E+00 -0.30327962106E+02  0.30327962106E+02  0.00000000000E+00 0.  1.
         -6    2    1    2    0  503  0.50089864957E+02  0.25071799496E+02  0.39084780349E+03  0.43186898103E+03  0.17496062866E+03 0.  0.
        -24    2    3    3    0    0  0.88342220167E+02 -0.22865530741E+02  0.23479475179E+03  0.26413146211E+03  0.79433452944E+02 0.  0.
          6    2    1    2  501    0 -0.50089864957E+02 -0.25071799496E+02  0.81944570846E+03  0.83908045513E+03  0.17154343872E+03 0.  0.
         24    2    5    5    0    0 -0.59882324371E+00  0.36219873469E+02  0.26924672930E+03  0.28325041002E+03  0.80154573869E+02 0.  0.
          5    1    5    5  501    0 -0.49491041713E+02 -0.61291672965E+02  0.55019897916E+03  0.55583004511E+03  0.47000000000E+01 0. -1.
        -13    1    6    6    0    0  0.29097179455E+02  0.47349675263E+02  0.18767741349E+03  0.19573310689E+03  0.00000000000E+00 0.  1.
         14    1    6    6    0    0 -0.29696002698E+02 -0.11129801794E+02  0.81569315814E+02  0.87517303127E+02  0.00000000000E+00 0. -1.
         -5    1    3    3    0  503 -0.38252355211E+02  0.47937330237E+02  0.15605305170E+03  0.16773751892E+03  0.47000000000E+01 0.  1.
         11    1    4    4    0    0  0.93212742770E+02  0.40149224812E+01  0.17263075208E+03  0.19622974184E+03  0.00000000000E+00 0. -1.
        -12    1    4    4    0    0 -0.48705226028E+01 -0.26880453222E+02  0.62163999710E+02  0.67901720272E+02  0.00000000000E+00 0.  1.
</event>
<event>
12    1  0.1623092E-001  0.1959044E+03  0.7818608E-02  0.1153419E+00
         21   -1    0    0  503  502  0.00000000000E+00  0.00000000000E+00  0.24487269894E+03  0.24487269894E+03  0.00000000000E+00 0. -1.
         21   -1    0    0  501  503 -0.00000000000E+00 -0.00000000000E+00 -0.28555596147E+03  0.28555596147E+03  0.00000000000E+00 0.  1.
          6    2    1    2  501    0  0.82843455232E+02  0.36255891069E+02 -0.19890711516E+03  0.27860865962E+03  0.17286184380E+03 0.  0.
         24    2    3    3    0    0  0.97420865520E+02  0.79459070923E+02 -0.16317397328E+03  0.22048841299E+03  0.78643662907E+02 0.  0.
         -6    2    1    2    0  502 -0.82843455232E+02 -0.36255891069E+02  0.15822385263E+03  0.25182000078E+03  0.17378434204E+03 0.  0.
        -24    2    5    5    0    0 -0.92053461433E+02 -0.87867121793E+02  0.10487316215E+03  0.17687382325E+03  0.63964821261E+02 0.  0.
          5    1    3    3  501    0 -0.14577410288E+02 -0.43203179854E+02 -0.35733141879E+02  0.58120246634E+02  0.47000000000E+01 0. -1.
        -11    1    4    4    0    0 -0.61912730847E+01 -0.87029807563E+01 -0.21868397198E+02  0.24337225241E+02  0.00000000000E+00 0.  1.
         12    1    4    4    0    0  0.10361213860E+03  0.88162051679E+02 -0.14130557608E+03  0.19615118775E+03  0.00000000000E+00 0. -1.
         -5    1    5    5    0  502  0.92100062012E+01  0.51611230724E+02  0.53350690483E+02  0.74946177528E+02  0.47000000000E+01 0.  1.
         13    1    6    6    0    0 -0.47411066293E+02 -0.17674307605E+02  0.70702466173E+02  0.86942676973E+02  0.00000000000E+00 0. -1.
        -14    1    6    6    0    0 -0.44642395140E+02 -0.70192814188E+02  0.34170695973E+02  0.89931146278E+02  0.00000000000E+00 0.  1.
</event>
<event>
12    1  0.1623092E-001  0.6305481E+03  0.7818608E-02  0.9844262E-01
         21   -1    0    0  503  502  0.00000000000E+00  0.00000000000E+00  0.12332530527E+04  0.12332530527E+04  0.00000000000E+00 0.  1.
         21   -1    0    0  501  503 -0.00000000000E+00 -0.00000000000E+00 -0.33552883266E+03  0.33552883266E+03  0.00000000000E+00 0. -1.
          6    2    1    2  501    0 -0.24099251173E+03 -0.55598024578E+03  0.60600414392E+03  0.87454666410E+03  0.17435429688E+03 0.  0.
         24    2    3    3    0    0 -0.24909164992E+03 -0.53083808155E+03  0.60692941336E+03  0.84770135566E+03  0.79990978876E+02 0.  0.
         -6    2    1    2    0  502  0.24099251173E+03  0.55598024578E+03  0.29172007608E+03  0.69423522122E+03  0.17225131403E+03 0.  0.
        -24    2    5    5    0    0  0.74348405643E+02  0.30188583881E+03  0.10174694113E+03  0.33584143256E+03  0.75988701124E+02 0.  0.
          5    1    3    3  501    0  0.80991381937E+01 -0.25142164224E+02 -0.92526944800E+00  0.26845308434E+02  0.47000000000E+01 0. -1.
        -13    1    4    4    0    0 -0.20419095540E+02 -0.11064144440E+03  0.13457198247E+03  0.17540834400E+03  0.00000000000E+00 0.  1.
         14    1    4    4    0    0 -0.22867255438E+03 -0.42019663716E+03  0.47235743090E+03  0.67229301166E+03  0.00000000000E+00 0. -1.
         -5    1    5    5    0  502  0.16664410609E+03  0.25409440697E+03  0.18997313495E+03  0.35839378866E+03  0.47000000000E+01 0.  1.
         11    1    6    6    0    0  0.85258843426E+02  0.21602889380E+03  0.87224945148E+02  0.24808414781E+03  0.00000000000E+00 0. -1.
        -12    1    6    6    0    0 -0.10910437784E+02  0.85856945012E+02  0.14521995980E+02  0.87757284750E+02  0.00000000000E+00 0.  1.
</event>
<event>
12    1  0.1623092E-001  0.1725021E+03  0.7818608E-02  0.1175330E+00
         21   -1    0    0  503  502  0.00000000000E+00  0.00000000000E+00  0.48635922210E+02  0.48635922210E+02  0.00000000000E+00 0.  1.
         21   -1    0    0  501  503 -0.00000000000E+00 -0.00000000000E+00 -0.72665025829E+03  0.72665025829E+03  0.00000000000E+00 0.  1.
          6    2    1    2  501    0  0.53112344205E+01 -0.23500068315E+02 -0.49349798743E+03  0.52269313588E+03  0.17055025150E+03 0.  0.
         24    2    3    3    0    0  0.20005137281E+02 -0.50808828058E+02 -0.47730623470E+03  0.48739523232E+03  0.82165249801E+02 0.  0.
         -6    2    1    2    0  502 -0.53112344205E+01  0.23500068315E+02 -0.18451634866E+03  0.25259304462E+03  0.17081130187E+03 0.  0.
        -24    2    5    5    0    0 -0.49516891577E+02 -0.23022790812E+02 -0.56429737580E+02  0.10925154162E+03  0.75957966099E+02 0.  0.
          5    1    3    3  501    0 -0.14693902861E+02  0.27308759743E+02 -0.16191752726E+02  0.35297903568E+02  0.47000000000E+01 0. -1.
        -13    1    4    4    0    0  0.45845057767E+02 -0.55026371310E+02 -0.37598837282E+03  0.38274917029E+03  0.00000000000E+00 0.  1.
         14    1    4    4    0    0 -0.25839920486E+02  0.42175432522E+01 -0.10131786188E+03  0.10464606202E+03  0.00000000000E+00 0. -1.
         -5    1    5    5    0  502  0.44205657157E+02  0.46522859127E+02 -0.12808661108E+03  0.14334150300E+03  0.47000000000E+01 0.  1.
         13    1    6    6    0    0  0.20245774776E+02 -0.51243608202E+01 -0.18253928278E+02  0.27737273977E+02  0.00000000000E+00 0. -1.
        -14    1    6    6    0    0 -0.69762666353E+02 -0.17898429992E+02 -0.38175809302E+02  0.81514267639E+02  0.00000000000E+00 0.  1.
</event>
<event>
12    1  0.1623092E-001  0.2003964E+03  0.7818608E-02  0.1149861E+00
         21   -1    0    0  501  502  0.00000000000E+00  0.00000000000E+00  0.15254725875E+03  0.15254725875E+03  0.00000000000E+00 0. -1.
         21   -1    0    0  502  503 -0.00000000000E+00 -0.00000000000E+00 -0.59122894745E+03  0.59122894745E+03  0.00000000000E+00 0. -1.
         -6    2    1    2    0  503  0.99023827068E+02  0.35347111361E+01 -0.49699089458E+03  0.53506901750E+03  0.17169942251E+03 0.  0.
        -24    2    3    3    0    0  0.61762580978E+02 -0.59827952260E+02 -0.37347194448E+03  0.39125577539E+03  0.78776825182E+02 0.  0.
          6    2    1    2  501    0 -0.99023827068E+02 -0.35347111361E+01  0.58309205877E+02  0.20870718869E+03  0.17418528816E+03 0.  0.
         24    2    5    5    0    0 -0.64607741241E+01 -0.48452211004E+02  0.47952522881E+02  0.10519462208E+03  0.79856782495E+02 0.  0.
          5    1    5    5  501    0 -0.92563052944E+02  0.44917499868E+02  0.10356682996E+02  0.10351256662E+03  0.47000000000E+01 0. -1.
        -11    1    6    6    0    0  0.39841729680E+01 -0.50457834761E+02 -0.52988598577E+01  0.50891498689E+02  0.00000000000E+00 0.  1.
         12    1    6    6    0    0 -0.10444947092E+02  0.20056237575E+01  0.53251382738E+02  0.54303123390E+02  0.00000000000E+00 0. -1.
         -5    1    3    3    0  503  0.37261246090E+02  0.63362663396E+02 -0.12351895010E+03  0.14381324211E+03  0.47000000000E+01 0.  1.
         13    1    4    4    0    0  0.57609408909E+02 -0.47951576892E+02 -0.15248902893E+03  0.16991498364E+03  0.00000000000E+00 0. -1.
        -14    1    4    4    0    0  0.41531720684E+01 -0.11876375369E+02 -0.22098291554E+03  0.22134079175E+03  0.00000000000E+00 0.  1.
</event>
<event>
12    1  0.1623092E-001  0.2008925E+03  0.7818608E-02  0.1149066E+00
         21   -1    0    0  501  502  0.00000000000E+00  0.00000000000E+00  0.39455813145E+02  0.39455813145E+02  0.00000000000E+00 0.  1.
         21   -1    0    0  502  503 -0.00000000000E+00 -0.00000000000E+00 -0.10315131673E+04  0.10315131673E+04  0.00000000000E+00 0.  1.
         -6    2    1    2    0  503  0.23631944417E+02 -0.10071073162E+03 -0.55062819563E+03  0.58613069073E+03  0.17221108134E+03 0.  0.
        -24    2    3    3    0    0 -0.24149910425E+02 -0.17915884322E+02 -0.39504452782E+03  0.40346580609E+03  0.76290763795E+02 0.  0.
          6    2    1    2  501    0 -0.23631944417E+02  0.10071073162E+03 -0.44142915852E+03  0.48483828971E+03  0.17177702091E+03 0.  0.
         24    2    5    5    0    0 -0.26317461625E+02  0.73215589837E+02 -0.12357990592E+03  0.16575611816E+03  0.78421720060E+02 0.  0.
          5    1    5    5  501    0  0.26855172072E+01  0.27495141786E+02 -0.31784925260E+03  0.31908217155E+03  0.47000000000E+01 0. -1.
        -13    1    6    6    0    0 -0.65076457782E+01  0.65159745443E+02 -0.12812854637E+03  0.14389255114E+03  0.00000000000E+00 0.  1.
         14    1    6    6    0    0 -0.19809815846E+02  0.80558443940E+01  0.45486404444E+01  0.21863567016E+02  0.00000000000E+00 0. -1.
         -5    1    3    3    0  503  0.47781854843E+02 -0.82794847300E+02 -0.15558366781E+03  0.18266488465E+03  0.47000000000E+01 0.  1.
         11    1    4    4    0    0 -0.47327721882E+02  0.67310056015E+01 -0.24977957857E+03  0.25431291270E+03  0.00000000000E+00 0. -1.
        -12    1    4    4    0    0  0.23177811457E+02 -0.24646889923E+02 -0.14526494925E+03  0.14915289339E+03  0.00000000000E+00 0.  1.
</event>
<event>
12    1  0.1623092E-001  0.2607542E+03  0.7818608E-02  0.1106705E+00
         21   -1    0    0  503  502  0.00000000000E+00  0.00000000000E+00  0.84983606890E+03  0.84983606890E+03  0.00000000000E+00 0. -1.
         21   -1    0    0  501  503 -0.00000000000E+00 -0.00000000000E+00 -0.82195135834E+02  0.82195135834E+02  0.00000000000E+00 0.  1.
          6    2    1    2  501    0 -0.14685858532E+03  0.12933983120E+03  0.30721349309E+03  0.40289399840E+03  0.17218364496E+03 0.  0.
         24    2    3    3    0    0 -0.10911659687E+03  0.27588165914E+02  0.10966845664E+03  0.17745223096E+03  0.82429274408E+02 0.  0.
         -6    2    1    2    0  502  0.14685858532E+03 -0.12933983120E+03  0.46042743998E+03  0.52913720634E+03  0.17232678152E+03 0.  0.
        -24    2    5    5    0    0  0.35754065261E+02 -0.10228874405E+02  0.23912474967E+03  0.25431252560E+03  0.78174367391E+02 0.  0.
          5    1    3    3  501    0 -0.37741988447E+02  0.10175166529E+03  0.19754503645E+03  0.22544176744E+03  0.47000000000E+01 0. -1.
        -11    1    4    4    0    0 -0.14615076820E+02 -0.19003580501E+02  0.52185637192E+02  0.57428888823E+02  0.00000000000E+00 0.  1.
         12    1    4    4    0    0 -0.94501520048E+02  0.46591746415E+02  0.57482819445E+02  0.12002334213E+03  0.00000000000E+00 0. -1.
         -5    1    5    5    0  502  0.11110452005E+03 -0.11911095680E+03  0.22130269031E+03  0.27482468074E+03  0.47000000000E+01 0.  1.
         13    1    6    6    0    0  0.13691003169E+02 -0.38876102599E+02  0.18273521358E+03  0.18732579428E+03  0.00000000000E+00 0. -1.
        -14    1    6    6    0    0  0.22063062091E+02  0.28647228194E+02  0.56389536091E+02  0.66986731317E+02  0.00000000000E+00 0.  1.
</event>
<event>
12    1  0.1623092E-001  0.2358603E+03  0.7818608E-02  0.1122734E+00
         21   -1    0    0  501  502  0.00000000000E+00  0.00000000000E+00  0.18163246528E+03  0.18163246528E+03  0.00000000000E+00 0.  1.
         21   -1    0    0  502  503 -0.00000000000E+00 -0.00000000000E+00 -0.38810023302E+03  0.38810023302E+03  0.00000000000E+00 0.  1.
         -6    2    1    2    0  503  0.12117036343E+03 -0.10578511246E+03  0.28642927662E+02  0.23670549472E+03  0.17127850693E+03 0.  0.
        -24    2    3    3    0    0  0.65969005448E+02 -0.13390338464E+03  0.35984885946E+02  0.17414495201E+03  0.82155500094E+02 0.  0.
          6    2    1    2  501    0 -0.12117036343E+03  0.10578511246E+03 -0.23511069540E+03  0.33302720357E+03  0.17250313687E+03 0.  0.
         24    2    5    5    0    0 -0.13401843621E+03  0.63809600311E+02 -0.23488507181E+03  0.28887793969E+03  0.79037084609E+02 0.  0.
          5    1    5    5  501    0  0.12848072783E+02  0.41975512153E+02 -0.22562358997E+00  0.44149263876E+02  0.47000000000E+01 0. -1.
        -11    1    6    6    0    0  0.23783605104E+01  0.26135561679E+02 -0.29742018046E+02  0.39664994900E+02  0.00000000000E+00 0.  1.
         12    1    6    6    0    0 -0.13639679672E+03  0.37674038633E+02 -0.20514305377E+03  0.24921294479E+03  0.00000000000E+00 0. -1.
         -5    1    3    3    0  503  0.55201357980E+02  0.28118272178E+02 -0.73419582834E+01  0.62560542713E+02  0.47000000000E+01 0.  1.
         11    1    4    4    0    0 -0.18248433939E+02 -0.32061162008E+02  0.17057727217E+02  0.40643443609E+02  0.00000000000E+00 0. -1.
        -12    1    4    4    0    0  0.84217439388E+02 -0.10184222263E+03  0.18927158728E+02  0.13350150840E+03  0.00000000000E+00 0.  1.
</event>
<event>
12    1  0.1623092E-001  0.2508899E+03  0.7818608E-02  0.1112745E+00
         21   -1    0    0  503  502  0.00000000000E+00  0.00000000000E+00  0.92035554701E+03  0.92035554701E+03  0.00000000000E+00 0. -1.
         21   -1    0    0  501  503 -0.00000000000E+00 -0.00000000000E+00 -0.84627180726E+02  0.84627180726E+02  0.00000000000E+00 0. -1.
          6    2    1    2  501    0 -0.12922161850E+03 -0.12945023262E+03  0.63795809597E+03  0.68551629449E+03  0.17171624382E+03 0.  0.
         24    2    3    3    0    0 -0.13490922002E+02 -0.26766991947E+02  0.32593687394E+03  0.33721071742E+03  0.81103300247E+02 0.  0.
         -6    2    1    2    0  502  0.12922161850E+03  0.12945023262E+03  0.19777027032E+03  0.31946643324E+03  0.17172691325E+03 0.  0.
        -24    2    5    5    0    0  0.74470179562E+02  0.22939151114E+02  0.35034310556E+02  0.11735900352E+03  0.80459433834E+02 0.  0.
          5    1    3    3  501    0 -0.11573069650E+03 -0.10268324068E+03  0.31202122203E+03  0.34830557708E+03  0.47000000000E+01 0. -1.
        -11    1    4    4    0    0 -0.20670636379E+01  0.77857262867E+01  0.27214905933E+03  0.27226825151E+03  0.00000000000E+00 0.  1.
         12    1    4    4    0    0 -0.11423858364E+02 -0.34552718234E+02  0.53787814611E+02  0.64942465905E+02  0.00000000000E+00 0. -1.
         -5    1    5    5    0  502  0.54751438940E+02  0.10651108151E+03  0.16273595976E+03  0.20210742972E+03  0.47000000000E+01 0.  1.
         13    1    6    6    0    0  0.53374855366E+02 -0.15149776357E+02  0.46435090393E+02  0.72350594530E+02  0.00000000000E+00 0. -1.
        -14    1    6    6    0    0  0.21095324197E+02  0.38088927471E+02 -0.11400779837E+02  0.45008408989E+02  0.00000000000E+00 0.  1.
</event>
<event>
12    1  0.1623092E-001  0.1805023E+03  0.7818608E-02  0.1168551E+00
         21   -1    0    0  501  502  0.00000000000E+00  0.00000000000E+00  0.38298898974E+03  0.38298898974E+03  0.00000000000E+00 0. -1.
         21   -1    0    0  502  503 -0.00000000000E+00 -0.00000000000E+00 -0.88734618416E+02  0.88734618416E+02  0.00000000000E+00 0. -1.
         -6    2    1    2    0  503 -0.21590615125E+02  0.47604848672E+02  0.83750896916E+02  0.19442808029E+03  0.16749832653E+03 0.  0.
        -24    2    3    3    0    0 -0.65589441238E+02  0.70296102282E+02  0.70040149155E+02  0.14284451416E+03  0.79091187469E+02 0.  0.
          6    2    1    2  501    0  0.21590615125E+02 -0.47604848672E+02  0.21050347441E+03  0.27729552787E+03  0.17276782328E+03 0.  0.
         24    2    5    5    0    0  0.69882476420E+02 -0.69987114208E+02  0.15429340838E+03  0.19974082975E+03  0.79424092903E+02 0.  0.
          5    1    5    5  501    0 -0.48291861294E+02  0.22382265536E+02  0.56210066031E+02  0.77554698123E+02  0.47000000000E+01 0. -1.
        -11    1    6    6    0    0  0.35514261110E+02  0.76277233885E+01  0.76127661461E+02  0.84349663579E+02  0.00000000000E+00 0.  1.
         12    1    6    6    0    0  0.34368215309E+02 -0.77614837596E+02  0.78165746916E+02  0.11539116617E+03  0.00000000000E+00 0. -1.
         -5    1    3    3    0  503  0.43998826113E+02 -0.22691253611E+02  0.13710747762E+02  0.51583566123E+02  0.47000000000E+01 0.  1.
         11    1    4    4    0    0  0.12028085566E+02  0.17625154287E+02 -0.59195519412E+01  0.22144118885E+02  0.00000000000E+00 0. -1.
        -12    1    4    4    0    0 -0.77617526805E+02  0.52670947996E+02  0.75959701096E+02  0.12070039528E+03  0.00000000000E+00 0.  1.
</event>
<event>
12    1  0.1623092E-001  0.1930436E+03  0.7818608E-02  0.1155751E+00
         21   -1    0    0  503  502  0.00000000000E+00  0.00000000000E+00  0.47053397241E+03  0.47053397241E+03  0.00000000000E+00 0.  1.
         21   -1    0    0  501  503 -0.00000000000E+00 -0.00000000000E+00 -0.90738199914E+02  0.90738199914E+02  0.00000000000E+00 0.  1.
          6    2    1    2  501    0  0.85833708434E+02  0.13445771411E+02  0.89778609759E+02  0.21289907602E+03  0.17238794485E+03 0.  0.
         24    2    3    3    0    0  0.52289358548E+02  0.75273679878E+02  0.67077324348E+02  0.13883591356E+03  0.79848228234E+02 0.  0.
         -6    2    1    2    0  502 -0.85833708434E+02 -0.13445771411E+02  0.29001716274E+03  0.34837309630E+03  0.17235325722E+03 0.  0.
        -24    2    5    5    0    0  0.62266336930E+01 -0.33865920868E+02  0.82852149476E+02  0.12070772385E+03  0.80747782384E+02 0.  0.
          5    1    3    3  501    0  0.33544349886E+02 -0.61827908467E+02  0.22701285412E+02  0.74063162463E+02  0.47000000000E+01 0. -1.
        -11    1    4    4    0    0  0.98274719163E+01  0.62945946657E+02  0.67852275876E+01  0.64068796759E+02  0.00000000000E+00 0.  1.
         12    1    4    4    0    0  0.42461886632E+02  0.12327733222E+02  0.60292096760E+02  0.74767116799E+02  0.00000000000E+00 0. -1.
         -5    1    5    5    0  502 -0.92060342127E+02  0.20420149457E+02  0.20716501326E+03  0.22766537246E+03  0.47000000000E+01 0.  1.
         13    1    6    6    0    0 -0.21393509542E+02 -0.50974738359E+02  0.51245257833E+02  0.75380253725E+02  0.00000000000E+00 0. -1.
        -14    1    6    6    0    0  0.27620143235E+02  0.17108817490E+02  0.31606891643E+02  0.45327470121E+02  0.00000000000E+00 0.  1.
</event>
<event>
12    1  0.1623092E-001  0.1732526E+03  0.7818608E-02  0.1174583E+00
         21   -1    0    0  501  502  0.00000000000E+00  0.00000000000E+00  0.15735056165E+04  0.15735056165E+04  0.00000000000E+00 0. -1.
         21   -1    0    0  502  503 -0.00000000000E+00 -0.00000000000E+00 -0.19127985891E+02  0.19127985891E+02  0.00000000000E+00 0. -1.
         -6    2    1    2    0  503  0.20336859418E+02  0.62160911864E+00  0.72369670107E+03  0.74414606195E+03  0.17205368965E+03 0.  0.
        -24    2    3    3    0    0 -0.31589928210E+01 -0.54523838173E+02  0.58244023935E+03  0.59062553105E+03  0.81357589363E+02 0.  0.
          6    2    1    2  501    0 -0.20336859418E+02 -0.62160911864E+00  0.83068092958E+03  0.84848754049E+03  0.17171582730E+03 0.  0.
         24    2    5    5    0    0 -0.33065801576E+02 -0.20540212835E+02  0.81498299578E+03  0.81972485862E+03  0.78970328970E+02 0.  0.
          5    1    5    5  501    0  0.12728942158E+02  0.19918603717E+02  0.15697933803E+02  0.28762681867E+02  0.47000000000E+01 0. -1.
        -11    1    6    6    0    0  0.17279703848E+01 -0.36433723703E+02  0.61719749440E+03  0.61827433167E+03  0.00000000000E+00 0.  1.
         12    1    6    6    0    0 -0.34793771960E+02  0.15893510868E+02  0.19778550138E+03  0.20145052695E+03  0.00000000000E+00 0. -1.
         -5    1    3    3    0  503  0.23495852239E+02  0.55145447292E+02  0.14125646172E+03  0.15352053090E+03  0.47000000000E+01 0.  1.
         13    1    4    4    0    0  0.23476410633E+02 -0.56285789882E+02  0.50593065376E+03  0.50959303215E+03  0.00000000000E+00 0. -1.
        -14    1    4    4    0    0 -0.26635403454E+02  0.17619517093E+01  0.76509585594E+02  0.81032498905E+02  0.00000000000E+00 0.  1.
</event>
<event>
12    1  0.1623092E-001  0.1851399E+03  0.7818608E-02  0.1163229E+00
         21   -1    0    0  501  502  0.00000000000E+00  0.00000000000E+00  0.33506302311E+03  0.33506302311E+03  0.00000000000E+00 0. -1.
         21   -1    0    0  502  503 -0.00000000000E+00 -0.00000000000E+00 -0.14482407361E+03  0.14482407361E+03  0.00000000000E+00 0. -1.
         -6    2    1    2    0  503 -0.59000758387E+02 -0.35088268926E+02 -0.36248979393E+02  0.18735752667E+03  0.17051855672E+03 0.  0.
        -24    2    3    3    0    0 -0.98569704891E+02  0.46036829826E+01 -0.31380670528E+02  0.13090451076E+03  0.80087850741E+02 0.  0.
          6    2    1    2  501    0  0.59000758387E+02  0.35088268926E+02  0.22648792889E+03  0.29252957005E+03  0.17194327934E+03 0.  0.
         24    2    5    5    0    0  0.79687004051E+02 -0.20393316841E+02  0.19513280381E+03  0.22536290430E+03  0.77108504875E+02 0.  0.
          5    1    5    5  501    0 -0.20686245664E+02  0.55481585767E+02  0.31355125080E+02  0.67166665748E+02  0.47000000000E+01 0. -1.
        -11    1    6    6    0    0  0.65953995955E+02 -0.20306669580E+02  0.65959956776E+02  0.95462067387E+02  0.00000000000E+00 0.  1.
         12    1    6    6    0    0  0.13733008096E+02 -0.86647261217E-01  0.12917284704E+03  0.12990083691E+03  0.00000000000E+00 0. -1.
         -5    1    3    3    0  503  0.39568946504E+02 -0.39691951909E+02 -0.48683088654E+01  0.56453015907E+02  0.47000000000E+01 0.  1.
         13    1    4    4    0    0 -0.18936250282E+02 -0.31358172124E+02  0.35505862120E+01  0.36803847573E+02  0.00000000000E+00 0. -1.
        -14    1    4    4    0    0 -0.79633454609E+02  0.35961855107E+02 -0.34931256740E+02  0.94100663192E+02  0.00000000000E+00 0.  1.
</event>
<event>
12    1  0.1623092E-001  0.2488647E+03  0.7818608E-02  0.1114102E+00
         21   -1    0    0  501  502  0.00000000000E+00  0.00000000000E+00  0.39822433130E+03  0.39822433130E+03  0.00000000000E+00 0. -1.
         21   -1    0    0  502  503 -0.00000000000E+00 -0.00000000000E+00 -0.29997658863E+03  0.29997658863E+03  0.00000000000E+00 0.  1.
         -6    2    1    2    0  503  0.33098305717E+02 -0.17633110961E+03 -0.19341035739E+03  0.31479764058E+03  0.17176096794E+03 0.  0.
        -24    2    3    3    0    0  0.21240331252E+02 -0.32329927900E+02 -0.13175601989E+03  0.15763435216E+03  0.77411654770E+02 0.  0.
          6    2    1    2  501    0 -0.33098305717E+02  0.17633110961E+03  0.29165810006E+03  0.38340327936E+03  0.17246874858E+03 0.  0.
         24    2    5    5    0    0 -0.85801462295E+02  0.91801849294E+02  0.18004131285E+03  0.23372624120E+03  0.80147433085E+02 0.  0.
          5    1    5    5  501    0  0.52703156578E+02  0.84529260318E+02  0.11161678721E+03  0.14967703816E+03  0.47000000000E+01 0. -1.
        -11    1    6    6    0    0  0.13963722298E+02  0.77003398300E+00  0.16720374789E+02  0.21797922512E+02  0.00000000000E+00 0.  1.
         12    1    6    6    0    0 -0.99765184593E+02  0.91031815311E+02  0.16332093806E+03  0.21192831869E+03  0.00000000000E+00 0. -1.
         -5    1    3    3    0  503  0.11857974465E+02 -0.14400118171E+03 -0.61654337503E+02  0.15716328842E+03  0.47000000000E+01 0.  1.
         11    1    4    4    0    0 -0.13954072314E+02  0.17518124429E+02 -0.18762332316E+02  0.29216877513E+02  0.00000000000E+00 0. -1.
        -12    1    4    4    0    0  0.35194403567E+02 -0.49848052330E+02 -0.11299368757E+03  0.12841747465E+03  0.00000000000E+00 0.  1.
</event>
<event>
12    1  0.1623092E-001  0.1953137E+03  0.7818608E-02  0.1154131E+00
         21   -1    0    0  501  502  0.00000000000E+00  0.00000000000E+00  0.18398030123E+04  0.18398030123E+04  0.00000000000E+00 0. -1.
         21   -1    0    0  502  503 -0.00000000000E+00 -0.00000000000E+00 -0.25280824382E+02  0.25280824382E+02  0.00000000000E+00 0. -1.
         -6    2    1    2    0  503 -0.40321323979E+02 -0.75964501501E+02  0.13073111839E+04  0.13215671097E+04  0.17343782532E+03 0.  0.
        -24    2    3    3    0    0 -0.63670903963E+02  0.15259966985E+02  0.67394656844E+03  0.68122350456E+03  0.74663481351E+02 0.  0.
          6    2    1    2  501    0  0.40321323979E+02  0.75964501501E+02  0.50721100410E+03  0.54351672706E+03  0.17535967397E+03 0.  0.
         24    2    5    5    0    0 -0.33636053286E+02  0.62278497008E+02  0.38668580325E+03  0.40137097647E+03  0.81010832889E+02 0.  0.
          5    1    5    5  501    0  0.73957377264E+02  0.13686004493E+02  0.12052520085E+03  0.14214575059E+03  0.47000000000E+01 0. -1.
        -13    1    6    6    0    0  0.27019367867E+02  0.20691094292E+02  0.12338922297E+03  0.12799635920E+03  0.00000000000E+00 0.  1.
         14    1    6    6    0    0 -0.60655421153E+02  0.41587402716E+02  0.26329658028E+03  0.27337461727E+03  0.00000000000E+00 0. -1.
         -5    1    3    3    0  503  0.23349579985E+02 -0.91224468486E+02  0.63336461541E+03  0.64034360510E+03  0.47000000000E+01 0.  1.
         11    1    4    4    0    0 -0.11670947579E+02 -0.17286571552E+02  0.39774013534E+03  0.39828664532E+03  0.00000000000E+00 0. -1.
        -12    1    4    4    0    0 -0.51999956384E+02  0.32546538537E+02  0.27620643310E+03  0.28293685924E+03  0.00000000000E+00 0.  1.
</event>
<event>
12    1  0.1623092E-001  0.2431631E+03  0.7818608E-02  0.1117921E+00
         21   -1    0    0  501  502  0.00000000000E+00  0.00000000000E+00  0.50614383618E+03  0.50614383618E+03  0.00000000000E+00 0. -1.
         21   -1    0    0  502  503 -0.00000000000E+00 -0.00000000000E+00 -0.23615868028E+03  0.23615868028E+03  0.00000000000E+00 0.  1.
         -6    2    1    2    0  503  0.58403555403E+02  0.16061235492E+03 -0.12936478386E+03  0.27543335946E+03  0.17297683187E+03 0.  0.
        -24    2    3    3    0    0  0.70538982309E+02  0.79136247656E+02 -0.13936303617E+03  0.19232090738E+03  0.79542327402E+02 0.  0.
          6    2    1    2  501    0 -0.58403555403E+02 -0.16061235492E+03  0.39934993976E+03  0.46686915700E+03  0.17111145940E+03 0.  0.
         24    2    5    5    0    0 -0.19211032593E+02 -0.17163579310E+03  0.26523532827E+03  0.32663225370E+03  0.80690399350E+02 0.  0.
          5    1    5    5  501    0 -0.39192522810E+02  0.11023438179E+02  0.13411461149E+03  0.14023690331E+03  0.47000000000E+01 0. -1.
        -13    1    6    6    0    0  0.59278149061E+01 -0.12228822405E+03  0.23123310827E+03  0.26164536895E+03  0.00000000000E+00 0.  1.
         14    1    6    6    0    0 -0.25138847500E+02 -0.49347569048E+02  0.34002219996E+02  0.64986884748E+02  0.00000000000E+00 0. -1.
         -5    1    3    3    0  503 -0.12135426906E+02  0.81476107264E+02  0.99982523094E+01  0.83112452077E+02  0.47000000000E+01 0.  1.
         11    1    4    4    0    0  0.56974149948E+01 -0.95791934818E+01  0.38647474950E+01  0.11796514680E+02  0.00000000000E+00 0. -1.
        -12    1    4    4    0    0  0.64841567314E+02  0.88715441138E+02 -0.14322778366E+03  0.18052439270E+03  0.00000000000E+00 0.  1.
</event>
<event>
12    1  0.1623092E-001  0.2180445E+03  0.7818608E-02  0.1135434E+00
         21   -1    0    0  503  502  0.00000000000E+00  0.00000000000E+00  0.13446822391E+03  0.13446822391E+03  0.00000000000E+00 0.  1.
         21   -1    0    0  501  503 -0.00000000000E+00 -0.00000000000E+00 -0.35307785077E+03  0.35307785077E+03  0.00000000000E+00 0. -1.
          6    2    1    2  501    0 -0.19495531337E+02  0.13218508509E+03 -0.11576071840E+03  0.24686831256E+03  0.17230916214E+03 0.  0.
         24    2    3    3    0    0 -0.29301301863E+02  0.16250094752E+03 -0.84683548620E+02  0.20211247348E+03  0.80081360472E+02 0.  0.
         -6    2    1    2    0  502  0.19495531337E+02 -0.13218508509E+03 -0.10284890846E+03  0.24067776212E+03  0.17174083599E+03 0.  0.
        -24    2    5    5    0    0  0.28909339411E+02 -0.76302839803E+02  0.73419155129E+01  0.11667956532E+03  0.83080346493E+02 0.  0.
          5    1    3    3  501    0  0.98057705260E+01 -0.30315862423E+02 -0.31077169779E+02  0.44755839078E+02  0.47000000000E+01 0. -1.
        -13    1    4    4    0    0 -0.45558172636E+02  0.88711937287E+02 -0.77332815861E+02  0.12619714466E+03  0.00000000000E+00 0.  1.
         14    1    4    4    0    0  0.16256870773E+02  0.73789010230E+02 -0.73507327586E+01  0.75915328822E+02  0.00000000000E+00 0. -1.
         -5    1    5    5    0  502 -0.94138080742E+01 -0.55882245292E+02 -0.11019082398E+03  0.12399819680E+03  0.47000000000E+01 0.  1.
         11    1    6    6    0    0  0.44719752456E+02 -0.11469061747E+02 -0.11023480216E+02  0.47464858086E+02  0.00000000000E+00 0. -1.
        -12    1    6    6    0    0 -0.15810413045E+02 -0.64833778056E+02  0.18365395729E+02  0.69214707237E+02  0.00000000000E+00 0.  1.
</event>
<event>
12    1  0.1623092E-001  0.1730391E+03  0.7818608E-02  0.1174795E+00
         21   -1    0    0  501  502  0.00000000000E+00  0.00000000000E+00  0.17040955396E+03  0.17040955396E+03  0.00000000000E+00 0. -1.
         21   -1    0    0  502  503 -0.00000000000E+00 -0.00000000000E+00 -0.17539678264E+03  0.17539678264E+03  0.00000000000E+00 0. -1.
         -6    2    1    2    0  503  0.69702939332E+01  0.16037915027E+02 -0.14083946849E+01  0.17273019566E+03  0.17183694946E+03 0.  0.
        -24    2    3    3    0    0 -0.22613979808E+02  0.25981873274E+02  0.58776571264E+02  0.10477115149E+03  0.79598109479E+02 0.  0.
          6    2    1    2  501    0 -0.69702939332E+01 -0.16037915027E+02 -0.35788340014E+01  0.17307614094E+03  0.17215325380E+03 0.  0.
         24    2    5    5    0    0 -0.24917481437E+02  0.54206439665E+02  0.13494545986E+02  0.98443968189E+02  0.77135550293E+02 0.  0.
          5    1    5    5  501    0  0.17947187504E+02 -0.70244354693E+02 -0.17073379988E+02  0.74632172752E+02  0.47000000000E+01 0. -1.
        -13    1    6    6    0    0 -0.26277813594E+02  0.35639552578E+01  0.34573943559E+02  0.43572730436E+02  0.00000000000E+00 0.  1.
         14    1    6    6    0    0  0.13603321572E+01  0.50642484408E+02 -0.21079397573E+02  0.54871237753E+02  0.00000000000E+00 0. -1.
         -5    1    3    3    0  503  0.29584273742E+02 -0.99439582468E+01 -0.60184965949E+02  0.67959044171E+02  0.47000000000E+01 0.  1.
         11    1    4    4    0    0 -0.29636854143E+02  0.51611964225E+02  0.46346383803E+02  0.75432918983E+02  0.00000000000E+00 0. -1.
        -12    1    4    4    0    0  0.70228743349E+01 -0.25630090951E+02  0.12430187461E+02  0.29338232503E+02  0.00000000000E+00 0.  1.
</event>
<event>
12    1  0.1623092E-001  0.2466944E+03  0.7818608E-02  0.1116007E+00
         21   -1    0    0  503  502  0.00000000000E+00  0.00000000000E+00  0.44164238246E+03  0.44164238246E+03  0.00000000000E+00 0. -1.
         21   -1    0    0  501  503 -0.00000000000E+00 -0.00000000000E+00 -0.13776175631E+03  0.13776175631E+03  0.00000000000E+00 0.  1.
          6    2    1    2  501    0  0.15102270184E+03 -0.91929402454E+02  0.11586719544E+03  0.26923134614E+03  0.16673763600E+03 0.  0.
         24    2    3    3    0    0  0.12222313649E+03 -0.11089393670E+03  0.42571105852E+02  0.18809272851E+03  0.79565163052E+02 0.  0.
         -6    2    1    2    0  502 -0.15102270184E+03  0.91929402454E+02  0.18801343071E+03  0.31017279263E+03  0.17204429562E+03 0.  0.
        -24    2    5    5    0    0 -0.41869239666E+02  0.53690609429E+02  0.15989816587E+03  0.19105418907E+03  0.79363498795E+02 0.  0.
          5    1    3    3  501    0  0.28799565348E+02  0.18964534247E+02  0.73296089584E+02  0.81138617635E+02  0.47000000000E+01 0. -1.
        -13    1    4    4    0    0  0.22274213989E+02 -0.41996358205E+02 -0.19937919179E+02  0.51549542506E+02  0.00000000000E+00 0.  1.
         14    1    4    4    0    0  0.99948922505E+02 -0.68897578496E+02  0.62509025032E+02  0.13654318600E+03  0.00000000000E+00 0. -1.
         -5    1    5    5    0  502 -0.10915346218E+03  0.38238793026E+02  0.28115264835E+02  0.11911860356E+03  0.47000000000E+01 0.  1.
         13    1    6    6    0    0 -0.25816463164E+02 -0.17506181010E+02  0.55679065883E+02  0.63820956758E+02  0.00000000000E+00 0. -1.
        -14    1    6    6    0    0 -0.16052776503E+02  0.71196790439E+02  0.10421909999E+03  0.12723323231E+03  0.00000000000E+00 0.  1.
</event>
<event>
12    1  0.1623092E-001  0.2577086E+03  0.7818608E-02  0.1108721E+00
         21   -1    0    0  501  502  0.00000000000E+00  0.00000000000E+00  0.99997274128E+02  0.99997274128E+02  0.00000000000E+00 0.  1.
         21   -1    0    0  502  503 -0.00000000000E+00 -0.00000000000E+00 -0.19084644612E+04  0.19084644612E+04  0.00000000000E+00 0. -1.
         -6    2    1    2    0  503  0.11952941188E+03 -0.14785583421E+03 -0.17169458170E+04  0.17361787530E+04  0.17396866331E+03 0.  0.
        -24    2    3    3    0    0 -0.10478028564E+02 -0.56281137354E+02 -0.70626161102E+03  0.71304996643E+03  0.79733530724E+02 0.  0.
          6    2    1    2  501    0 -0.11952941188E+03  0.14785583421E+03 -0.91521370040E+02  0.27228298230E+03  0.17208495943E+03 0.  0.
         24    2    5    5    0    0 -0.58334433349E+02  0.16334268415E+03 -0.54859624568E+02  0.19913353597E+03  0.80999062706E+02 0.  0.
          5    1    5    5  501    0 -0.61194978530E+02 -0.15486849938E+02 -0.36661745472E+02  0.73149446336E+02  0.47000000000E+01 0. -1.
        -11    1    6    6    0    0 -0.68927466216E+02  0.12365538110E+03 -0.66542904948E+02  0.15642764165E+03  0.00000000000E+00 0.  1.
         12    1    6    6    0    0  0.10593032867E+02  0.39687303054E+02  0.11683280380E+02  0.42705894317E+02  0.00000000000E+00 0. -1.
         -5    1    3    3    0  503  0.13000744044E+03 -0.91574696857E+02 -0.10106842060E+04  0.10231287866E+04  0.47000000000E+01 0.  1.
         11    1    4    4    0    0  0.30845094096E+02 -0.43862622468E+02 -0.33091997073E+03  0.33523629951E+03  0.00000000000E+00 0. -1.
        -12    1    4    4    0    0 -0.41323122659E+02 -0.12418514887E+02 -0.37534164029E+03  0.37781366692E+03  0.00000000000E+00 0.  1.
</event>
<event>
12    1  0.1623092E-001  0.1791496E+03  0.7818608E-02  0.1169009E+00
         21   -1    0    0  503  502  0.00000000000E+00  0.00000000000E+00  0.42551920639E+02  0.42551920639E+02  0.00000000000E+00 0. -1.
         21   -1    0    0  501  503 -0.00000000000E+00 -0.00000000000E+00 -0.10450280722E+04  0.10450280722E+04  0.00000000000E+00 0. -1.
          6    2    1    2  501    0  0.24261916679E+02 -0.36959610235E+02 -0.79284940669E+03  0.81283746902E+03  0.17360851350E+03 0.  0.
         24    2    3    3    0    0 -0.36605836801E+01  0.71387795544E+01 -0.71477799746E+03  0.71880785162E+03  0.75582933617E+02 0.  0.
         -6    2    1    2    0  502 -0.24261916679E+02  0.36959610235E+02 -0.20962674485E+03  0.27474252380E+03  0.17200415355E+03 0.  0.
        -24    2    5    5    0    0  0.55502625045E+01  0.17846909603E+02 -0.24041911937E+02  0.85750773821E+02  0.80161487543E+02 0.  0.
          5    1    3    3  501    0  0.27922500359E+02 -0.44098389789E+02 -0.78071409231E+02  0.94029617396E+02  0.47000000000E+01 0. -1.
        -13    1    4    4    0    0 -0.19920147327E+02  0.46786269073E+01 -0.52810486389E+02  0.56636112966E+02  0.00000000000E+00 0.  1.
         14    1    4    4    0    0  0.16259563647E+02  0.24601526471E+01 -0.66196751107E+03  0.66217173866E+03  0.00000000000E+00 0. -1.
         -5    1    5    5    0  502 -0.29812179183E+02  0.19112700632E+02 -0.18558483292E+03  0.18899174998E+03  0.47000000000E+01 0.  1.
         13    1    6    6    0    0  0.13605542179E+02 -0.11245467745E+02  0.23526749692E+02  0.29412230004E+02  0.00000000000E+00 0. -1.
        -14    1    6    6    0    0 -0.80552796740E+01  0.29092377347E+02 -0.47568661628E+02  0.56338543817E+02  0.00000000000E+00 0.  1.
</event>
<event>
12    1  0.1623092E-001  0.2051752E+03  0.7818608E-02  0.1145473E+00
         21   -1    0    0  503  502  0.00000000000E+00  0.00000000000E+00  0.21869015582E+04  0.21869015582E+04  0.00000000000E+00 0. -1.
         21   -1    0    0  501  503 -0.00000000000E+00 -0.00000000000E+00 -0.19273827821E+02  0.19273827821E+02  0.00000000000E+00 0.  1.
          6    2    1    2  501    0  0.10454904057E+03  0.39055541403E+02  0.11319281749E+04  0.11503484970E+04  0.17200126217E+03 0.  0.
         24    2    3    3    0    0  0.38501486805E+02 -0.37049971770E+02  0.26913417355E+03  0.28167715105E+03  0.63669059632E+02 0.  0.
         -6    2    1    2    0  502 -0.10454904057E+03 -0.39055541403E+02  0.10356995555E+04  0.10558268891E+04  0.17216565624E+03 0.  0.
        -24    2    5    5    0    0  0.47097214117E+01 -0.28162006509E+02  0.61697806969E+03  0.62292283635E+03  0.80966915938E+02 0.  0.
          5    1    3    3  501    0  0.66047553768E+02  0.76105513173E+02  0.86279400134E+03  0.86867134593E+03  0.47000000000E+01 0. -1.
        -11    1    4    4    0    0 -0.68908558528E+01 -0.21240448035E+01  0.74982646145E+00  0.72496689878E+01  0.00000000000E+00 0.  1.
         12    1    4    4    0    0  0.45392342658E+02 -0.34925926966E+02  0.26838434709E+03  0.27442748206E+03  0.00000000000E+00 0. -1.
         -5    1    5    5    0  502 -0.10925876199E+03 -0.10893534894E+02  0.41872148584E+03  0.43290405274E+03  0.47000000000E+01 0.  1.
         13    1    6    6    0    0 -0.13060058574E+02  0.17256282342E+02  0.39761846263E+03  0.39820696407E+03  0.00000000000E+00 0. -1.
        -14    1    6    6    0    0  0.17769779985E+02 -0.45418288852E+02  0.21935960706E+03  0.22471587228E+03  0.00000000000E+00 0.  1.
</event>
<event>
12    1  0.1623092E-001  0.1765056E+03  0.7818608E-02  0.1171342E+00
         21   -1    0    0  503  502  0.00000000000E+00  0.00000000000E+00  0.27296174164E+03  0.27296174164E+03  0.00000000000E+00 0. -1.
         21   -1    0    0  501  503 -0.00000000000E+00 -0.00000000000E+00 -0.14164050778E+03  0.14164050778E+03  0.00000000000E+00 0. -1.
          6    2    1    2  501    0 -0.37465299705E+02 -0.97356723546E+01 -0.26114296290E+02  0.17842695522E+03  0.17220856506E+03 0.  0.
         24    2    3    3    0    0  0.39474378224E+02  0.28340573708E+01  0.13496321828E+02  0.90855251958E+02  0.80661438668E+02 0.  0.
         -6    2    1    2    0  502  0.37465299705E+02  0.97356723546E+01  0.15743553015E+03  0.23617529419E+03  0.17173931243E+03 0.  0.
        -24    2    5    5    0    0 -0.18709529320E+02 -0.11547466598E+02  0.15511616319E+03  0.17587560197E+03  0.79923793772E+02 0.  0.
          5    1    3    3  501    0 -0.76939677929E+02 -0.12569729725E+02 -0.39610618118E+02  0.87571703266E+02  0.47000000000E+01 0. -1.
        -13    1    4    4    0    0  0.48233238986E+02  0.30125122368E+02 -0.44440933451E+01  0.57041373637E+02  0.00000000000E+00 0.  1.
         14    1    4    4    0    0 -0.87588607618E+01 -0.27291064997E+02  0.17940415173E+02  0.33813878321E+02  0.00000000000E+00 0. -1.
         -5    1    5    5    0  502  0.56174829025E+02  0.21283138952E+02  0.23193669580E+01  0.60299692228E+02  0.47000000000E+01 0.  1.
         13    1    6    6    0    0 -0.20807677497E+02 -0.44654909744E+02  0.83514172642E+02  0.96962041228E+02  0.00000000000E+00 0. -1.
        -14    1    6    6    0    0  0.20981481771E+01  0.33107443146E+02  0.71601990552E+02  0.78913560739E+02  0.00000000000E+00 0.  1.
</event>
<event>
12    1  0.1623092E-001  0.2158861E+03  0.7818608E-02  0.1137168E+00
         21   -1    0    0  501  502  0.00000000000E+00  0.00000000000E+00  0.10076781444E+03  0.10076781444E+03  0.00000000000E+00 0. -1.
         21   -1    0    0  502  503 -0.00000000000E+00 -0.00000000000E+00 -0.46057774853E+03  0.46057774853E+03  0.00000000000E+00 0. -1.
         -6    2    1    2    0  503 -0.33958336167E+02 -0.12465117044E+03 -0.18401094802E+03  0.28366680179E+03  0.17296167945E+03 0.  0.
        -24    2    3    3    0    0  0.36062507952E+01 -0.74483274352E+02 -0.25462326628E+02  0.11311572048E+03  0.81154623642E+02 0.  0.
          6    2    1    2  501    0  0.33958336167E+02  0.12465117044E+03 -0.17579898607E+03  0.27767876118E+03  0.17178221101E+03 0.  0.
         24    2    5    5    0    0  0.66731152886E+02  0.20808431083E+02 -0.83208798756E+02  0.13466685671E+03  0.79532512447E+02 0.  0.
          5    1    5    5  501    0 -0.32772816718E+02  0.10384273936E+03 -0.92590187318E+02  0.14301190447E+03  0.47000000000E+01 0. -1.
        -11    1    6    6    0    0  0.11106222574E+02 -0.23808835000E+01 -0.72590161367E+02  0.73473453120E+02  0.00000000000E+00 0.  1.
         12    1    6    6    0    0  0.55624930311E+02  0.23189314583E+02 -0.10618637390E+02  0.61193403590E+02  0.00000000000E+00 0. -1.
         -5    1    3    3    0  503 -0.37564586962E+02 -0.50167896089E+02 -0.15854862139E+03  0.17055108131E+03  0.47000000000E+01 0.  1.
         13    1    4    4    0    0 -0.80485351866E+00 -0.88674857598E+02 -0.35133457376E+02  0.95384684234E+02  0.00000000000E+00 0. -1.
        -14    1    4    4    0    0  0.44111043139E+01  0.14191583245E+02  0.96711307479E+01  0.17731036242E+02  0.00000000000E+00 0.  1.
</event>
<event>
12    1  0.1623092E-001  0.2085584E+03  0.7818608E-02  0.1143093E+00
         21   -1    0    0  503  502  0.00000000000E+00  0.00000000000E+00  0.39733073871E+03  0.39733073871E+03  0.00000000000E+00 0. -1.
         21   -1    0    0  501  503 -0.00000000000E+00 -0.00000000000E+00 -0.10911583255E+03  0.10911583255E+03  0.00000000000E+00 0. -1.
          6    2    1    2  501    0 -0.11806862928E+03  0.10071174239E+02  0.12410157639E+03  0.24106042465E+03  0.16931419698E+03 0.  0.
         24    2    3    3    0    0 -0.23101162639E+02 -0.69331161616E+01 -0.20511543220E-01  0.83782491278E+02  0.80235737730E+02 0.  0.
         -6    2    1    2    0  502  0.11806862928E+03 -0.10071174239E+02  0.16411332977E+03  0.26538614661E+03  0.17162456710E+03 0.  0.
        -24    2    5    5    0    0  0.75816252771E+02 -0.56807052524E+02  0.47261622719E+02  0.13254821121E+03  0.79750999441E+02 0.  0.
          5    1    3    3  501    0 -0.94967466641E+02  0.17004290400E+02  0.12412208793E+03  0.15727793337E+03  0.47000000000E+01 0. -1.
        -13    1    4    4    0    0 -0.10209960073E+02  0.18899198040E+01 -0.39754429778E+02  0.41088073312E+02  0.00000000000E+00 0.  1.
         14    1    4    4    0    0 -0.12891202566E+02 -0.88230359655E+01  0.39733918234E+02  0.42694417966E+02  0.00000000000E+00 0. -1.
         -5    1    5    5    0  502  0.42252376509E+02  0.46735878285E+02  0.11685170705E+03  0.13283793540E+03  0.47000000000E+01 0.  1.
         11    1    6    6    0    0  0.86697572877E+01 -0.49683539641E+02  0.40508308264E+02  0.64688034760E+02  0.00000000000E+00 0. -1.
        -12    1    6    6    0    0  0.67146495483E+02 -0.71235128828E+01  0.67533144550E+01  0.67860176448E+02  0.00000000000E+00 0.  1.
</event>
<event>
12    1  0.1623092E-001  0.2004822E+03  0.7818608E-02  0.1149342E+00
         21   -1    0    0  501  502  0.00000000000E+00  0.00000000000E+00  0.36885364307E+03  0.36885364307E+03  0.00000000000E+00 0.  1.
         21   -1    0    0  502  503 -0.00000000000E+00 -0.00000000000E+00 -0.73834747976E+03  0.73834747976E+03  0.00000000000E+00 0.  1.
         -6    2    1    2    0  503  0.91009468854E+01 -0.10235126631E+03 -0.69587975962E+03  0.72418350063E+03  0.17214672171E+03 0.  0.
        -24    2    3    3    0    0 -0.21490606770E+01 -0.49832980032E+01 -0.49062229895E+03  0.49667570058E+03  0.77117180998E+02 0.  0.
          6    2    1    2  501    0 -0.91009468854E+01  0.10235126631E+03  0.32638592292E+03  0.38301762219E+03  0.17209334466E+03 0.  0.
         24    2    5    5    0    0  0.91938287463E+01  0.11895683742E+03  0.15960449975E+03  0.21435056280E+03  0.78976653356E+02 0.  0.
          5    1    5    5  501    0 -0.18294775632E+02 -0.16605571109E+02  0.16678142318E+03  0.16866705939E+03  0.47000000000E+01 0. -1.
        -11    1    6    6    0    0  0.33399895762E+02  0.10674794503E+03  0.14627929838E+03  0.18414209172E+03  0.00000000000E+00 0.  1.
         12    1    6    6    0    0 -0.24206067016E+02  0.12208892388E+02  0.13325201365E+02  0.30208471082E+02  0.00000000000E+00 0. -1.
         -5    1    3    3    0  503  0.11250007562E+02 -0.97367968311E+02 -0.20525746067E+03  0.22750780005E+03  0.47000000000E+01 0.  1.
         13    1    4    4    0    0  0.13189626873E+02  0.33353074626E+02 -0.21268133529E+03  0.21568436250E+03  0.00000000000E+00 0. -1.
        -14    1    4    4    0    0 -0.15338687550E+02 -0.38336372629E+02 -0.27794096366E+03  0.28099133809E+03  0.00000000000E+00 0.  1.
</event>
<event>
12    1  0.1623092E-001  0.2333056E+03  0.7818608E-02  0.1124374E+00
         21   -1    0    0  503  502  0.00000000000E+00  0.00000000000E+00  0.81033699604E+02  0.81033699604E+02  0.00000000000E+00 0. -1.
         21   -1    0    0  501  503 -0.00000000000E+00 -0.00000000000E+00 -0.67952976544E+03  0.67952976544E+03  0.00000000000E+00 0.  1.
          6    2    1    2  501    0 -0.33517298990E+01 -0.15737098014E+03 -0.34155497092E+03  0.41350405180E+03  0.17189806052E+03 0.  0.
         24    2    3    3    0    0  0.25397667817E+02 -0.15086192177E+02 -0.15369068690E+03  0.17604549128E+03  0.80613603291E+02 0.  0.
         -6    2    1    2    0  502  0.33517298990E+01  0.15737098014E+03 -0.25694109491E+03  0.34705941324E+03  0.17220525713E+03 0.  0.
        -24    2    5    5    0    0  0.58713149935E+02  0.12721110081E+03 -0.12685065437E+03  0.20242152792E+03  0.72480951347E+02 0.  0.
          5    1    3    3  501    0 -0.28749397716E+02 -0.14228478796E+03 -0.18786428402E+03  0.23745856052E+03  0.47000000000E+01 0. -1.
        -11    1    4    4    0    0 -0.10194590159E+02  0.11719946412E+02 -0.11783044327E+03  0.11884990608E+03  0.00000000000E+00 0.  1.
         12    1    4    4    0    0  0.35592257975E+02 -0.26806138589E+02 -0.35860243626E+02  0.57195585203E+02  0.00000000000E+00 0. -1.
         -5    1    5    5    0  502 -0.55361420036E+02  0.30159879329E+02 -0.13009044054E+03  0.14463788532E+03  0.47000000000E+01 0.  1.
         11    1    6    6    0    0  0.42713130005E+02  0.52774288988E+02 -0.19179369557E+02  0.70550586600E+02  0.00000000000E+00 0. -1.
        -12    1    6    6    0    0  0.16000019930E+02  0.74436811818E+02 -0.10767128482E+03  0.13187094132E+03  0.00000000000E+00 0.  1.
</event>
<event>
12    1  0.1623092E-001  0.1780577E+03  0.7818608E-02  0.1169949E+00
         21   -1    0    0  503  502  0.00000000000E+00  0.00000000000E+00  0.62993246776E+03  0.62993246776E+03  0.00000000000E+00 0.  1.
         21   -1    0    0  501  503 -0.00000000000E+00 -0.00000000000E+00 -0.64732729732E+02  0.64732729732E+02  0.00000000000E+00 0.  1.
          6    2    1    2  501    0 -0.30705506609E+02  0.30615165928E+02  0.11649221720E+03  0.21191993833E+03  0.17163772043E+03 0.  0.
         24    2    3    3    0    0 -0.35232779875E+02  0.85585121533E+02  0.78161326073E+02  0.14458837488E+03  0.78933158120E+02 0.  0.
         -6    2    1    2    0  502  0.30705506609E+02 -0.30615165928E+02  0.44870752083E+03  0.48274525916E+03  0.17269750860E+03 0.  0.
        -24    2    5    5    0    0 -0.44512366346E+02  0.96171560930E+01  0.21111179919E+03  0.23025726917E+03  0.79852224777E+02 0.  0.
          5    1    3    3  501    0  0.45272732660E+01 -0.54969955605E+02  0.38330891129E+02  0.67331563454E+02  0.47000000000E+01 0. -1.
        -13    1    4    4    0    0  0.34387961169E+01  0.13708470524E+02 -0.15081755039E+02  0.20668982024E+02  0.00000000000E+00 0.  1.
         14    1    4    4    0    0 -0.38671575992E+02  0.71876651009E+02  0.93243081112E+02  0.12391939285E+03  0.00000000000E+00 0. -1.
         -5    1    5    5    0  502  0.75217872955E+02 -0.40232322021E+02  0.23759572164E+03  0.25248798999E+03  0.47000000000E+01 0.  1.
         11    1    6    6    0    0 -0.29224973374E+02 -0.11596496080E+02  0.19777870571E+02  0.37144877902E+02  0.00000000000E+00 0. -1.
        -12    1    6    6    0    0 -0.15287392972E+02  0.21213652173E+02  0.19133392862E+03  0.19311239127E+03  0.00000000000E+00 0.  1.
</event>
<event>
12    1  0.1623092E-001  0.1777181E+03  0.7818608E-02  0.1170790E+00
         21   -1    0    0  503  502  0.00000000000E+00  0.00000000000E+00  0.28399618762E+02  0.28399618762E+02  0.00000000000E+00 0. -1.
         21   -1    0    0  501  503 -0.00000000000E+00 -0.00000000000E+00 -0.11733500105E+04  0.11733500105E+04  0.00000000000E+00 0.  1.
          6    2    1    2  501    0 -0.33135030226E+02 -0.29860180560E+02 -0.72502679093E+03  0.74576767077E+03  0.16886684279E+03 0.  0.
         24    2    3    3    0    0 -0.17328517287E+02  0.35577643391E+02 -0.56659906236E+03  0.57356607428E+03  0.79859237900E+02 0.  0.
         -6    2    1    2    0  502  0.33135030226E+02  0.29860180560E+02 -0.41992360077E+03  0.45598195845E+03  0.17202951880E+03 0.  0.
        -24    2    5    5    0    0 -0.46441512571E+02  0.19724767330E+02 -0.16978941614E+03  0.19325709650E+03  0.77291519454E+02 0.  0.
          5    1    3    3  501    0 -0.15806512939E+02 -0.65437823950E+02 -0.15842772857E+03  0.17220159649E+03  0.47000000000E+01 0. -1.
        -11    1    4    4    0    0  0.10018842645E+02 -0.21442822568E+02 -0.21763606707E+03  0.21891923063E+03  0.00000000000E+00 0.  1.
         12    1    4    4    0    0 -0.27347359931E+02  0.57020465959E+02 -0.34896299528E+03  0.35464684365E+03  0.00000000000E+00 0. -1.
         -5    1    5    5    0  502  0.79576542797E+02  0.10135413230E+02 -0.25013418463E+03  0.26272486195E+03  0.47000000000E+01 0.  1.
         13    1    6    6    0    0 -0.33777288427E+02 -0.19631384859E+02 -0.35642375370E+02  0.52883602440E+02  0.00000000000E+00 0. -1.
        -14    1    6    6    0    0 -0.12664224144E+02  0.39356152189E+02 -0.13414704077E+03  0.14037349406E+03  0.00000000000E+00 0.  1.
</event>
<event>
12    1  0.1623092E-001  0.1888211E+03  0.7818608E-02  0.1159913E+00
         21   -1    0    0  503  502  0.00000000000E+00  0.00000000000E+00  0.87579896031E+02  0.87579896031E+02  0.00000000000E+00 0.  1.
         21   -1    0    0  501  503 -0.00000000000E+00 -0.00000000000E+00 -0.47594952395E+03  0.47594952395E+03  0.00000000000E+00 0.  1.
          6    2    1    2  501    0 -0.47227060417E+01 -0.76180399462E+02 -0.30339563557E+03  0.35646909303E+03  0.17086704010E+03 0.  0.
         24    2    3    3    0    0 -0.48029320966E+02 -0.98562528429E+02 -0.24578582865E+03  0.28085558600E+03  0.80298187640E+02 0.  0.
         -6    2    1    2    0  502  0.47227060417E+01  0.76180399462E+02 -0.84973992352E+02  0.20706032695E+03  0.17270681053E+03 0.  0.
        -24    2    5    5    0    0 -0.34494307883E+02  0.10847309246E+03 -0.63885892335E+02  0.15185534380E+03  0.77603924752E+02 0.  0.
          5    1    3    3  501    0  0.43306614924E+02  0.22382128967E+02 -0.57609806913E+02  0.75613507033E+02  0.47000000000E+01 0. -1.
        -11    1    4    4    0    0 -0.65034360309E+02 -0.50264402184E+02 -0.12428393009E+03  0.14900494430E+03  0.00000000000E+00 0.  1.
         12    1    4    4    0    0  0.17005039343E+02 -0.48298126245E+02 -0.12150189857E+03  0.13185064170E+03  0.00000000000E+00 0. -1.
         -5    1    5    5    0  502  0.39217013925E+02 -0.32292692995E+02 -0.21088100018E+02  0.55204983148E+02  0.47000000000E+01 0.  1.
         11    1    6    6    0    0  0.10682571184E+02 -0.74680629467E+01 -0.32377449121E+01  0.13430274882E+02  0.00000000000E+00 0. -1.
        -12    1    6    6    0    0 -0.45176879067E+02  0.11594115540E+03 -0.60648147422E+02  0.13842506892E+03  0.00000000000E+00 0.  1.
</event>
<event>
12    1  0.1623092E-001  0.3022511E+03  0.7818608E-02  0.1084406E+00
         21   -1    0    0  503  502  0.00000000000E+00  0.00000000000E+00  0.61216934514E+03  0.61216934514E+03  0.00000000000E+00 0.  1.
         21   -1    0    0  501  503 -0.00000000000E+00 -0.00000000000E+00 -0.31091949831E+03  0.31091949831E+03  0.00000000000E+00 0. -1.
          6    2    1    2  501    0 -0.16347010191E+03  0.18791515863E+03 -0.18309639472E+03  0.35338370457E+03  0.17123426010E+03 0.  0.
         24    2    3    3    0    0 -0.16833950393E+03  0.11001504073E+03 -0.87405880922E+02  0.22980820587E+03  0.68778817232E+02 0.  0.
         -6    2    1    2    0  502  0.16347010191E+03 -0.18791515863E+03  0.48434624155E+03  0.56970513888E+03  0.16714688901E+03 0.  0.
        -24    2    5    5    0    0  0.11683426717E+03 -0.19366313629E+03  0.33166298142E+03  0.40988584013E+03  0.82767217865E+02 0.  0.
          5    1    3    3  501    0  0.48694020154E+01  0.77900117900E+02 -0.95690513803E+02  0.12357549869E+03  0.47000000000E+01 0. -1.
        -11    1    4    4    0    0 -0.90695554951E+02  0.98593065829E+02 -0.51811461746E+02  0.14363392317E+03  0.00000000000E+00 0.  1.
         12    1    4    4    0    0 -0.77643948975E+02  0.11421974897E+02 -0.35594419176E+02  0.86174282703E+02  0.00000000000E+00 0. -1.
         -5    1    5    5    0  502  0.46635834736E+02  0.57479776648E+01  0.15268326013E+03  0.15981929875E+03  0.47000000000E+01 0.  1.
         13    1    6    6    0    0 -0.87167469003E+01 -0.46169757252E+02  0.70903151440E+02  0.85058127450E+02  0.00000000000E+00 0. -1.
        -14    1    6    6    0    0  0.12555101408E+03 -0.14749337904E+03  0.26075982998E+03  0.32482771268E+03  0.00000000000E+00 0.  1.
</event>
<event>
12    1  0.1623092E-001  0.2121938E+03  0.7818608E-02  0.1139900E+00
         21   -1    0    0  501  502  0.00000000000E+00  0.00000000000E+00  0.38725108274E+03  0.38725108274E+03  0.00000000000E+00 0.  1.
         21   -1    0    0  502  503 -0.00000000000E+00 -0.00000000000E+00 -0.12606616630E+03  0.12606616630E+03  0.00000000000E+00 0.  1.
         -6    2    1    2    0  503 -0.59401073775E+02  0.10825497484E+03  0.58533416820E+02  0.22011900640E+03  0.17256473844E+03 0.  0.
        -24    2    3    3    0    0 -0.32751573053E+02  0.11010188880E+03  0.98846217492E+02  0.17153074776E+03  0.80356277043E+02 0.  0.
          6    2    1    2  501    0  0.59401073775E+02 -0.10825497484E+03  0.20265149961E+03  0.29319824264E+03  0.17219161433E+03 0.  0.
         24    2    5    5    0    0  0.23264483950E+02 -0.13996259603E+03  0.15513633512E+03  0.22544127087E+03  0.81398523551E+02 0.  0.
          5    1    5    5  501    0  0.36136589825E+02  0.31707621191E+02  0.47515164491E+02  0.67756971762E+02  0.47000000000E+01 0. -1.
        -11    1    6    6    0    0  0.56765391827E+01 -0.28553647067E+02 -0.50333159977E+01  0.29544341723E+02  0.00000000000E+00 0.  1.
         12    1    6    6    0    0  0.17587944768E+02 -0.11140894897E+03  0.16016965112E+03  0.19589692915E+03  0.00000000000E+00 0. -1.
         -5    1    3    3    0  503 -0.26649500722E+02 -0.18469139570E+01 -0.40312800672E+02  0.48588258642E+02  0.47000000000E+01 0.  1.
         13    1    4    4    0    0  0.20950317436E+01  0.58925872010E+01  0.51508195935E+02  0.51886472133E+02  0.00000000000E+00 0. -1.
        -14    1    4    4    0    0 -0.34846604797E+02  0.10420930160E+03  0.47338021557E+02  0.11964427563E+03  0.00000000000E+00 0.  1.
</event>
<event>
12    1  0.1623092E-001  0.2042771E+03  0.7818608E-02  0.1146263E+00
         21   -1    0    0  501  502  0.00000000000E+00  0.00000000000E+00  0.17253273589E+03  0.17253273589E+03  0.00000000000E+00 0.  1.
         21   -1    0    0  502  503 -0.00000000000E+00 -0.00000000000E+00 -0.57374092503E+03  0.57374092503E+03  0.00000000000E+00 0. -1.
         -6    2    1    2    0  503 -0.10919106945E+03  0.16253343902E+02 -0.48451754263E+03  0.52566184229E+03  0.17139504803E+03 0.  0.
        -24    2    3    3    0    0 -0.13957967165E+03  0.35150283760E+01 -0.44908723112E+03  0.47704981909E+03  0.80014677247E+02 0.  0.
          6    2    1    2  501    0  0.10919106945E+03 -0.16253343902E+02  0.83309353490E+02  0.22061181863E+03  0.17187863540E+03 0.  0.
         24    2    5    5    0    0  0.62780231068E+02  0.57963672741E+02  0.41717351962E+02  0.12358545072E+03  0.78942266279E+02 0.  0.
          5    1    5    5  501    0  0.46410838378E+02 -0.74217016643E+02  0.41592001528E+02  0.97026367908E+02  0.47000000000E+01 0. -1.
        -13    1    6    6    0    0  0.22796009589E+02  0.42402499547E+02  0.60017817705E+02  0.76940031603E+02  0.00000000000E+00 0.  1.
         14    1    6    6    0    0  0.39984221479E+02  0.15561173194E+02 -0.18300465743E+02  0.46645419120E+02  0.00000000000E+00 0. -1.
         -5    1    3    3    0  503  0.30388602202E+02  0.12738315526E+02 -0.35430311509E+02  0.48612023203E+02  0.47000000000E+01 0.  1.
         13    1    4    4    0    0 -0.15066171124E+02  0.21687351610E+02 -0.15408783276E+03  0.15633422829E+03  0.00000000000E+00 0. -1.
        -14    1    4    4    0    0 -0.12451350052E+03 -0.18172323234E+02 -0.29499939836E+03  0.32071559079E+03  0.00000000000E+00 0.  1.
</event>
<event>
12    1  0.1623092E-001  0.1826329E+03  0.7818608E-02  0.1166033E+00
         21   -1    0    0  501  502  0.00000000000E+00  0.00000000000E+00  0.14731235621E+03  0.14731235621E+03  0.00000000000E+00 0.  1.
         21   -1    0    0  502  503 -0.00000000000E+00 -0.00000000000E+00 -0.22990322261E+03  0.22990322261E+03  0.00000000000E+00 0.  1.
         -6    2    1    2    0  503  0.42852999840E+02  0.46084922954E+02 -0.75394906878E+02  0.19758330972E+03  0.17144845458E+03 0.  0.
        -24    2    3    3    0    0 -0.22875202425E+02 -0.90862072499E+01  0.25810874564E+00  0.83086502104E+02  0.79356576058E+02 0.  0.
          6    2    1    2  501    0 -0.42852999840E+02 -0.46084922954E+02 -0.71959595203E+01  0.17963226910E+03  0.16809452862E+03 0.  0.
         24    2    5    5    0    0 -0.72970193697E+02 -0.45395749738E+02  0.38984587672E+02  0.12429463937E+03  0.80894598321E+02 0.  0.
          5    1    5    5  501    0  0.30117193857E+02 -0.68917321650E+00 -0.46180547193E+02  0.55337629734E+02  0.47000000000E+01 0. -1.
        -11    1    6    6    0    0 -0.42491407287E+02  0.16191090098E+02  0.31184069078E+02  0.55137258330E+02  0.00000000000E+00 0.  1.
         12    1    6    6    0    0 -0.30478786409E+02 -0.61586839836E+02  0.78005185941E+01  0.69157381040E+02  0.00000000000E+00 0. -1.
         -5    1    3    3    0  503  0.65728202265E+02  0.55171130204E+02 -0.75653015624E+02  0.11449680761E+03  0.47000000000E+01 0.  1.
         11    1    4    4    0    0  0.83200268449E+01 -0.79942323163E+01  0.34721568066E+02  0.36588493902E+02  0.00000000000E+00 0. -1.
        -12    1    4    4    0    0 -0.31195229270E+02 -0.10919749336E+01 -0.34463459320E+02  0.46498008202E+02  0.00000000000E+00 0.  1.
</event>
<event>
12    1  0.1623092E-001  0.1741258E+03  0.7818608E-02  0.1173963E+00
         21   -1    0    0  501  502  0.00000000000E+00  0.00000000000E+00  0.12727776554E+03  0.12727776554E+03  0.00000000000E+00 0. -1.
         21   -1    0    0  502  503 -0.00000000000E+00 -0.00000000000E+00 -0.68769629984E+03  0.68769629984E+03  0.00000000000E+00 0. -1.
         -6    2    1    2    0  503  0.24600651955E+02 -0.18151068587E+02 -0.60995078675E+03  0.63394027400E+03  0.17001663265E+03 0.  0.
        -24    2    3    3    0    0  0.66648869178E+02  0.10392884287E+02 -0.26404804542E+03  0.28429244221E+03  0.80936633246E+02 0.  0.
          6    2    1    2  501    0 -0.24600651955E+02  0.18151068587E+02  0.49532252451E+02  0.18103379139E+03  0.17142093286E+03 0.  0.
         24    2    5    5    0    0 -0.24935956188E+02 -0.17172951881E+02  0.91805695397E+02  0.12574335071E+03  0.80413881602E+02 0.  0.
          5    1    5    5  501    0  0.33530423273E+00  0.35324020469E+02 -0.42273442947E+02  0.55290440671E+02  0.47000000000E+01 0. -1.
        -11    1    6    6    0    0 -0.14584859405E+01  0.29143933225E+02  0.54447458875E+02  0.61773957320E+02  0.00000000000E+00 0.  1.
         12    1    6    6    0    0 -0.23477470247E+02 -0.46316885107E+02  0.37358236522E+02  0.63969393394E+02  0.00000000000E+00 0. -1.
         -5    1    3    3    0  503 -0.42048217223E+02 -0.28543952874E+02 -0.34590274133E+03  0.34964783179E+03  0.47000000000E+01 0.  1.
         11    1    4    4    0    0  0.16986136043E+02  0.14614535018E+02 -0.20834261507E+03  0.20954416887E+03  0.00000000000E+00 0. -1.
        -12    1    4    4    0    0  0.49662733135E+02 -0.42216507306E+01 -0.55705430345E+02  0.74748273340E+02  0.00000000000E+00 0.  1.
</event>
<event>
12    1  0.1623092E-001  0.2014027E+03  0.7818608E-02  0.1148624E+00
         21   -1    0    0  501  502  0.00000000000E+00  0.00000000000E+00  0.24838711729E+03  0.24838711729E+03  0.00000000000E+00 0. -1.
         21   -1    0    0  502  503 -0.00000000000E+00 -0.00000000000E+00 -0.18712734708E+03  0.18712734708E+03  0.00000000000E+00 0.  1.
         -6    2    1    2    0  503 -0.10022513147E+03  0.28960013747E+02  0.10870307840E+03  0.22859922015E+03  0.17192290373E+03 0.  0.
        -24    2    3    3    0    0 -0.19872956501E+02 -0.20265697085E+02  0.96942072798E+02  0.13352002221E+03  0.87316653478E+02 0.  0.
          6    2    1    2  501    0  0.10022513147E+03 -0.28960013747E+02 -0.47443308185E+02  0.20691524421E+03  0.17227678724E+03 0.  0.
         24    2    5    5    0    0  0.11840965488E+03 -0.40353172853E+02 -0.77774560083E+02  0.16946453250E+03  0.83786160251E+02 0.  0.
          5    1    5    5  501    0 -0.18184523417E+02  0.11393159106E+02  0.30331251898E+02  0.37450711716E+02  0.47000000000E+01 0. -1.
        -11    1    6    6    0    0  0.58987872653E+00 -0.29423598381E+02 -0.32089588140E+01  0.29603944252E+02  0.00000000000E+00 0.  1.
         12    1    6    6    0    0  0.11781977616E+03 -0.10929574472E+02 -0.74565601269E+02  0.13986058825E+03  0.00000000000E+00 0. -1.
         -5    1    3    3    0  503 -0.80352174965E+02  0.49225710831E+02  0.11761005603E+02  0.95079197942E+02  0.47000000000E+01 0.  1.
         11    1    4    4    0    0  0.26832566432E+02  0.13552133762E+02  0.15755649085E+02  0.33939467128E+02  0.00000000000E+00 0. -1.
        -12    1    4    4    0    0 -0.46705522933E+02 -0.33817830847E+02  0.81186423713E+02  0.99580555084E+02  0.00000000000E+00 0.  1.
</event>
<event>
12    1  0.1623092E-001  0.2158836E+03  0.7818608E-02  0.1137357E+00
         21   -1    0    0  503  502  0.00000000000E+00  0.00000000000E+00  0.79472401578E+03  0.79472401578E+03  0.00000000000E+00 0. -1.
         21   -1    0    0  501  503 -0.00000000000E+00 -0.00000000000E+00 -0.72733733043E+02  0.72733733043E+02  0.00000000000E+00 0. -1.
          6    2    1    2  501    0  0.91932090652E+02 -0.93839094005E+02  0.55666296686E+03  0.59705896394E+03  0.17131393081E+03 0.  0.
         24    2    3    3    0    0  0.12499769734E+03 -0.92704106794E+02  0.51237795165E+03  0.54158036343E+03  0.80991659833E+02 0.  0.
         -6    2    1    2    0  502 -0.91932090652E+02  0.93839094005E+02  0.16532731588E+03  0.27039878489E+03  0.16889374363E+03 0.  0.
        -24    2    5    5    0    0 -0.52467159824E+02  0.71287628573E+02  0.23500625445E+02  0.12139224316E+03  0.79681042008E+02 0.  0.
          5    1    3    3  501    0 -0.33065606690E+02 -0.11349872107E+01  0.44285015209E+02  0.55478600503E+02  0.47000000000E+01 0. -1.
        -11    1    4    4    0    0 -0.11690119184E+02 -0.92403669907E+01  0.54530576181E+02  0.56529877121E+02  0.00000000000E+00 0.  1.
         12    1    4    4    0    0  0.13668781652E+03 -0.83463739803E+02  0.45784737547E+03  0.48505048631E+03  0.00000000000E+00 0. -1.
         -5    1    5    5    0  502 -0.39464930827E+02  0.22551465431E+02  0.14182669043E+03  0.14900654173E+03  0.47000000000E+01 0.  1.
         13    1    6    6    0    0 -0.24946012467E+02  0.33235140673E+02 -0.29211054307E+02  0.50795312847E+02  0.00000000000E+00 0. -1.
        -14    1    6    6    0    0 -0.27521147357E+02  0.38052487901E+02  0.52711679752E+02  0.70596930313E+02  0.00000000000E+00 0.  1.
</event>
<event>
12    1  0.1623092E-001  0.2878714E+03  0.7818608E-02  0.1091766E+00
         21   -1    0    0  501  502  0.00000000000E+00  0.00000000000E+00  0.76261214488E+03  0.76261214488E+03  0.00000000000E+00 0. -1.
         21   -1    0    0  502  503 -0.00000000000E+00 -0.00000000000E+00 -0.11481899757E+03  0.11481899757E+03  0.00000000000E+00 0.  1.
         -6    2    1    2    0  503 -0.22815856123E+03  0.21629538529E+02  0.43107848816E+03  0.51710461228E+03  0.17042403318E+03 0.  0.
        -24    2    3    3    0    0 -0.24049092957E+03  0.46620528362E+02  0.39483667157E+03  0.47114597706E+03  0.77930569184E+02 0.  0.
          6    2    1    2  501    0  0.22815856123E+03 -0.21629538529E+02  0.21671465915E+03  0.36032653016E+03  0.17420045594E+03 0.  0.
         24    2    5    5    0    0  0.87777248987E+02 -0.25975416330E+02  0.28399002905E+02  0.12535700901E+03  0.80797949540E+02 0.  0.
          5    1    5    5  501    0  0.14038131224E+03  0.43458778016E+01  0.18831565625E+03  0.23496952115E+03  0.47000000000E+01 0. -1.
        -11    1    6    6    0    0  0.19556728131E+02  0.33749223621E+01 -0.26424591359E+02  0.33047159403E+02  0.00000000000E+00 0.  1.
         12    1    6    6    0    0  0.68220520856E+02 -0.29350338692E+02  0.54823594264E+02  0.92309849611E+02  0.00000000000E+00 0. -1.
         -5    1    3    3    0  503  0.12332368337E+02 -0.24990989833E+02  0.36241816592E+02  0.45958635222E+02  0.47000000000E+01 0.  1.
         13    1    4    4    0    0 -0.81798413791E+02  0.38379393220E+02  0.90851601270E+02  0.12813263353E+03  0.00000000000E+00 0. -1.
        -14    1    4    4    0    0 -0.15869251578E+03  0.82411351418E+01  0.30398507030E+03  0.34301334353E+03  0.00000000000E+00 0.  1.
</event>
<event>
12    1  0.1623092E-001  0.1754322E+03  0.7818608E-02  0.1172349E+00
         21   -1    0    0  501  502  0.00000000000E+00  0.00000000000E+00  0.11446183045E+04  0.11446183045E+04  0.00000000000E+00 0.  1.
         21   -1    0    0  502  503 -0.00000000000E+00 -0.00000000000E+00 -0.49480449505E+02  0.49480449505E+02  0.00000000000E+00 0. -1.
         -6    2    1    2    0  503 -0.17574350313E+02 -0.27213529691E+02  0.14368083244E+03  0.22660356694E+03  0.17220790038E+03 0.  0.
        -24    2    3    3    0    0  0.57726356190E+01 -0.75540765330E+01  0.36952279090E+01  0.83252127026E+02  0.82624902728E+02 0.  0.
          6    2    1    2  501    0  0.17574350313E+02  0.27213529691E+02  0.95145702255E+03  0.96749518706E+03  0.17241530452E+03 0.  0.
         24    2    5    5    0    0  0.20889212509E+02 -0.35343180578E+02  0.77282735297E+03  0.77814107655E+03  0.80968622977E+02 0.  0.
          5    1    5    5  501    0 -0.33148621954E+01  0.62556710269E+02  0.17862966958E+03  0.18935411051E+03  0.47000000000E+01 0. -1.
        -11    1    6    6    0    0  0.34226745969E+02 -0.35910936789E+02  0.75042345987E+03  0.75206145669E+03  0.00000000000E+00 0.  1.
         12    1    6    6    0    0 -0.13337533460E+02  0.56775621113E+00  0.22403893096E+02  0.26079619855E+02  0.00000000000E+00 0. -1.
         -5    1    3    3    0  503 -0.23346985932E+02 -0.19659453158E+02  0.13998560453E+03  0.14335143992E+03  0.47000000000E+01 0.  1.
         13    1    4    4    0    0 -0.12100898605E+02 -0.37570693491E+02 -0.16633385183E+02  0.42832910934E+02  0.00000000000E+00 0. -1.
        -14    1    4    4    0    0  0.17873534224E+02  0.30016616958E+02  0.20328613092E+02  0.40419216092E+02  0.00000000000E+00 0.  1.
</event>
<event>
12    1  0.1623092E-001  0.2021677E+03  0.7818608E-02  0.1148132E+00
         21   -1    0    0  501  502  0.00000000000E+00  0.00000000000E+00  0.74552195119E+03  0.74552195119E+03  0.00000000000E+00 0. -1.
         21   -1    0    0  502  503 -0.00000000000E+00 -0.00000000000E+00 -0.59161063753E+02  0.59161063753E+02  0.00000000000E+00 0. -1.
         -6    2    1    2    0  503  0.65932631744E+02  0.80843789349E+02  0.23008715764E+03  0.30562642506E+03  0.17200169005E+03 0.  0.
        -24    2    3    3    0    0  0.18312254766E+02 -0.20437141482E+02  0.11670677665E+03  0.14624409214E+03  0.83748715474E+02 0.  0.
          6    2    1    2  501    0 -0.65932631744E+02 -0.80843789349E+02  0.45627372980E+03  0.49905658989E+03  0.17317313070E+03 0.  0.
         24    2    5    5    0    0 -0.60823418608E+01  0.16447567440E+02  0.25110910773E+03  0.26419008002E+03  0.80206589764E+02 0.  0.
          5    1    5    5  501    0 -0.59850289884E+02 -0.97291356789E+02  0.20516462207E+03  0.23486650986E+03  0.47000000000E+01 0. -1.
        -13    1    6    6    0    0 -0.94196474612E+01  0.38191383046E+02  0.59530435500E+02  0.71352534980E+02  0.00000000000E+00 0.  1.
         14    1    6    6    0    0  0.33373056004E+01 -0.21743815606E+02  0.19157867223E+03  0.19283754505E+03  0.00000000000E+00 0. -1.
         -5    1    3    3    0  503  0.47620376978E+02  0.10128093083E+03  0.11338038099E+03  0.15938233292E+03  0.47000000000E+01 0.  1.
         11    1    4    4    0    0  0.37625715200E+02  0.11168310208E+02  0.23019612555E+02  0.45500858886E+02  0.00000000000E+00 0. -1.
        -12    1    4    4    0    0 -0.19313460434E+02 -0.31605451690E+02  0.93687164094E+02  0.10074323325E+03  0.00000000000E+00 0.  1.
</event>
<event>
12    1  0.1623092E-001  0.2234139E+03  0.7818608E-02  0.1132246E+00
         21   -1    0    0  503  502  0.00000000000E+00  0.00000000000E+00  0.42477098215E+02  0.42477098215E+02  0.00000000000E+00 0. -1.
         21   -1    0    0  501  503 -0.00000000000E+00 -0.00000000000E+00 -0.12039348492E+04  0.12039348492E+04  0.00000000000E+00 0. -1.
          6    2    1    2  501    0  0.90933444131E+02 -0.11090763805E+03 -0.44295974170E+03  0.49398043979E+03  0.16502710895E+03 0.  0.
         24    2    3    3    0    0 -0.85196767577E+01 -0.69943620880E+02 -0.11722651536E+03  0.15091601625E+03  0.63787875521E+02 0.  0.
         -6    2    1    2    0  502 -0.90933444131E+02  0.11090763805E+03 -0.71849800925E+03  0.75243150759E+03  0.17130203991E+03 0.  0.
        -24    2    5    5    0    0 -0.71745495802E+02  0.14651675367E+03 -0.57029723792E+03  0.59873783466E+03  0.81446177302E+02 0.  0.
          5    1    3    3  501    0  0.99453120888E+02 -0.40964017171E+02 -0.32573322634E+03  0.34306442354E+03  0.47000000000E+01 0. -1.
        -11    1    4    4    0    0 -0.26093755031E+02 -0.44632807684E+02 -0.10632893259E+03  0.11823203237E+03  0.00000000000E+00 0.  1.
         12    1    4    4    0    0  0.17574078274E+02 -0.25310813196E+02 -0.10897582770E+02  0.32683983877E+02  0.00000000000E+00 0. -1.
         -5    1    5    5    0  502 -0.19187948329E+02 -0.35609115621E+02 -0.14820077133E+03  0.15369367293E+03  0.47000000000E+01 0.  1.
         13    1    6    6    0    0 -0.30582898774E+02  0.82936049864E+02 -0.17288728929E+03  0.19417444956E+03  0.00000000000E+00 0. -1.
        -14    1    6    6    0    0 -0.41162597028E+02  0.63580703808E+02 -0.39740994863E+03  0.40456338510E+03  0.00000000000E+00 0.  1.
</event>
<event>
12    1  0.1623092E-001  0.2111812E+03  0.7818608E-02  0.1140663E+00
         21   -1    0    0  503  502  0.00000000000E+00  0.00000000000E+00  0.40425522450E+03  0.40425522450E+03  0.00000000000E+00 0. -1.
         21   -1    0    0  501  503 -0.00000000000E+00 -0.00000000000E+00 -0.11025134263E+03  0.11025134263E+03  0.00000000000E+00 0. -1.
          6    2    1    2  501    0  0.84175574027E-01 -0.12294590584E+03  0.14910653195E+03  0.25839579127E+03  0.17152237239E+03 0.  0.
         24    2    3    3    0    0 -0.41883265055E+02 -0.32886601918E+02  0.12599063622E+03  0.15627635664E+03  0.75583878916E+02 0.  0.
         -6    2    1    2    0  502 -0.84175574027E-01  0.12294590584E+03  0.14489734992E+03  0.25611077586E+03  0.17170260525E+03 0.  0.
        -24    2    5    5    0    0  0.19204183495E+02  0.14193079837E+03  0.73694964432E+02  0.17979343419E+03  0.79884785808E+02 0.  0.
          5    1    3    3  501    0  0.41967440629E+02 -0.90059303918E+02  0.23115895737E+02  0.10211943464E+03  0.47000000000E+01 0. -1.
        -13    1    4    4    0    0  0.11890349011E+02  0.13831721807E+01 -0.30391622878E+01  0.12350306567E+02  0.00000000000E+00 0.  1.
         14    1    4    4    0    0 -0.53773614066E+02 -0.34269774099E+02  0.12902979850E+03  0.14392605007E+03  0.00000000000E+00 0. -1.
         -5    1    5    5    0  502 -0.19288359069E+02 -0.18984892537E+02  0.71202385488E+02  0.76317341669E+02  0.47000000000E+01 0.  1.
         11    1    6    6    0    0  0.10346252577E+01  0.95784307018E+02  0.85960276354E+02  0.12870459600E+03  0.00000000000E+00 0. -1.
        -12    1    6    6    0    0  0.18169558238E+02  0.46146491354E+02 -0.12265311922E+02  0.51088838188E+02  0.00000000000E+00 0.  1.
</event>
<event>
12    1  0.1623092E-001  0.3307918E+03  0.7818608E-02  0.1070923E+00
         21   -1    0    0  503  502  0.00000000000E+00  0.00000000000E+00  0.11467471812E+04  0.11467471812E+04  0.00000000000E+00 0.  1.
         21   -1    0    0  501  503 -0.00000000000E+00 -0.00000000000E+00 -0.10640184380E+03  0.10640184380E+03  0.00000000000E+00 0. -1.
          6    2    1    2  501    0 -0.24593042796E+02 -0.27908823479E+03  0.31651952857E+03  0.45782945033E+03  0.17586396185E+03 0.  0.
         24    2    3    3    0    0 -0.18201663779E+02 -0.68006300356E+02  0.32002451049E+02  0.10347300525E+03  0.68748443551E+02 0.  0.
         -6    2    1    2    0  502  0.24593042796E+02  0.27908823479E+03  0.72382580887E+03  0.79531957471E+03  0.17353490651E+03 0.  0.
        -24    2    5    5    0    0 -0.40332287839E+02  0.23757233783E+03  0.54643944983E+03  0.60185929808E+03  0.74640694102E+02 0.  0.
          5    1    3    3  501    0 -0.63913790167E+01 -0.21108193443E+03  0.28451707752E+03  0.35435644508E+03  0.47000000000E+01 0. -1.
        -11    1    4    4    0    0 -0.23537444800E+02 -0.35926136294E+02  0.50312661833E+02  0.66151814166E+02  0.00000000000E+00 0.  1.
         12    1    4    4    0    0  0.53357810206E+01 -0.32080164062E+02 -0.18310210783E+02  0.37321191089E+02  0.00000000000E+00 0. -1.
         -5    1    5    5    0  502  0.64925330635E+02  0.41515896962E+02  0.17738635903E+03  0.19346027662E+03  0.47000000000E+01 0.  1.
         13    1    6    6    0    0 -0.46378164777E+02  0.21907221596E+03  0.53322022655E+03  0.57833154849E+03  0.00000000000E+00 0. -1.
        -14    1    6    6    0    0  0.60458769376E+01  0.18500121864E+02  0.13219223283E+02  0.23527749598E+02  0.00000000000E+00 0.  1.
</event>
<event>
12    1  0.1623092E-001  0.1864495E+03  0.7818608E-02  0.1161970E+00
         21   -1    0    0  503  502  0.00000000000E+00  0.00000000000E+00  0.28613607875E+02  0.28613607875E+02  0.00000000000E+00 0. -1.
         21   -1    0    0  501  503 -0.00000000000E+00 -0.00000000000E+00 -0.14396018341E+04  0.14396018341E+04  0.00000000000E+00 0. -1.
          6    2    1    2  501    0 -0.98623361869E+01 -0.70370618186E+02 -0.99846788491E+03  0.10155163689E+04  0.17113178733E+03 0.  0.
         24    2    3    3    0    0  0.30306649086E+02 -0.26030874629E+02 -0.27301419486E+03  0.28758456804E+03  0.81068081042E+02 0.  0.
         -6    2    1    2    0  502  0.98623361869E+01  0.70370618186E+02 -0.41252034134E+03  0.45269907314E+03  0.17237786757E+03 0.  0.
        -24    2    5    5    0    0 -0.73645379904E+01  0.11359424324E+03 -0.28404362939E+03  0.31597525492E+03  0.78750808305E+02 0.  0.
          5    1    3    3  501    0 -0.40168985273E+02 -0.44339743557E+02 -0.72545369005E+03  0.72793180082E+03  0.47000000000E+01 0. -1.
        -11    1    4    4    0    0  0.29602240040E+02 -0.42222836252E+02 -0.26410094288E+03  0.26908803122E+03  0.00000000000E+00 0.  1.
         12    1    4    4    0    0  0.70440904644E+00  0.16191961623E+02 -0.89132519840E+01  0.18496536817E+02  0.00000000000E+00 0. -1.
         -5    1    5    5    0  502  0.17226874177E+02 -0.43223625052E+02 -0.12847671195E+03  0.13672381822E+03  0.47000000000E+01 0.  1.
         11    1    6    6    0    0  0.28652836825E+02  0.33286246036E+02 -0.53602256795E+02  0.69297627426E+02  0.00000000000E+00 0. -1.
        -12    1    6    6    0    0 -0.36017374816E+02  0.80307997202E+02 -0.23044137259E+03  0.24667762749E+03  0.00000000000E+00 0.  1.
</event>
<event>
12    1  0.1623092E-001  0.1870440E+03  0.7818608E-02  0.1161789E+00
         21   -1    0    0  503  502  0.00000000000E+00  0.00000000000E+00  0.39774840595E+02  0.39774840595E+02  0.00000000000E+00 0. -1.
         21   -1    0    0  501  503 -0.00000000000E+00 -0.00000000000E+00 -0.95363273806E+03  0.95363273806E+03  0.00000000000E+00 0. -1.
          6    2    1    2  501    0 -0.67859955678E+01 -0.67293110531E+02 -0.31008423378E+03  0.36212936772E+03  0.17438759837E+03 0.  0.
         24    2    3    3    0    0  0.62080874980E+02 -0.58319105766E+02 -0.20354368514E+03  0.23486524424E+03  0.80476692626E+02 0.  0.
         -6    2    1    2    0  502  0.67859955678E+01  0.67293110531E+02 -0.60377366369E+03  0.63127821094E+03  0.17145008073E+03 0.  0.
        -24    2    5    5    0    0  0.24884226586E+02 -0.13596213056E+02 -0.17406741106E+03  0.19362517236E+03  0.79919722429E+02 0.  0.
          5    1    3    3  501    0 -0.68866870547E+02 -0.89740047652E+01 -0.10654054864E+03  0.12726412348E+03  0.47000000000E+01 0. -1.
        -11    1    4    4    0    0 -0.12162969813E+02 -0.34338260499E+01 -0.15023789354E+01  0.12727377518E+02  0.00000000000E+00 0.  1.
         12    1    4    4    0    0  0.74243844793E+02 -0.54885279716E+02 -0.20204130620E+03  0.22213786672E+03  0.00000000000E+00 0. -1.
         -5    1    5    5    0  502 -0.18098231018E+02  0.80889323587E+02 -0.42970625263E+03  0.43765303858E+03  0.47000000000E+01 0.  1.
         11    1    6    6    0    0 -0.12247853075E+02  0.25886576213E+02 -0.41658928137E+02  0.50552853792E+02  0.00000000000E+00 0. -1.
        -12    1    6    6    0    0  0.37132079660E+02 -0.39482789269E+02 -0.13240848293E+03  0.14307231856E+03  0.00000000000E+00 0.  1.
</event>
<event>
12    1  0.1623092E-001  0.1872178E+03  0.7818608E-02  0.1161059E+00
         21   -1    0    0  501  502  0.00000000000E+00  0.00000000000E+00  0.14579094678E+03  0.14579094678E+03  0.00000000000E+00 0. -1.
         21   -1    0    0  502  503 -0.00000000000E+00 -0.00000000000E+00 -0.15886126404E+04  0.15886126404E+04  0.00000000000E+00 0. -1.
         -6    2    1    2    0  503 -0.21436606638E+02  0.70947645342E+02 -0.15204884836E+04  0.15319711882E+04  0.17192264611E+03 0.  0.
        -24    2    3    3    0    0 -0.47550725166E+02  0.29707957636E+02 -0.13764367549E+04  0.13798013831E+04  0.78294843410E+02 0.  0.
          6    2    1    2  501    0  0.21436606638E+02 -0.70947645342E+02  0.77666790068E+02  0.20243239889E+03  0.17162065540E+03 0.  0.
         24    2    5    5    0    0 -0.42707576979E+02 -0.12822193836E+02  0.85668486722E+01  0.91572413753E+02  0.79522137033E+02 0.  0.
          5    1    5    5  501    0  0.64144183616E+02 -0.58125451507E+02  0.69099941395E+02  0.11085998514E+03  0.47000000000E+01 0. -1.
        -11    1    6    6    0    0 -0.14891904935E+02  0.20603849405E+02 -0.25743991947E+02  0.36180665614E+02  0.00000000000E+00 0.  1.
         12    1    6    6    0    0 -0.27815672044E+02 -0.33426043241E+02  0.34310840619E+02  0.55391748140E+02  0.00000000000E+00 0. -1.
         -5    1    3    3    0  503  0.26114118528E+02  0.41239687707E+02 -0.14405172878E+03  0.15216980513E+03  0.47000000000E+01 0.  1.
         13    1    4    4    0    0 -0.49286742273E+02 -0.33335012973E+00 -0.41854234149E+03  0.42143443821E+03  0.00000000000E+00 0. -1.
        -14    1    4    4    0    0  0.17360171072E+01  0.30041307766E+02 -0.95789441337E+03  0.95836694491E+03  0.00000000000E+00 0.  1.
</event>
<event>
12    1  0.1623092E-001  0.1832785E+03  0.7818608E-02  0.1165114E+00
         21   -1    0    0  501  502  0.00000000000E+00  0.00000000000E+00  0.60606549069E+03  0.60606549069E+03  0.00000000000E+00 0.  1.
         21   -1    0    0  502  503 -0.00000000000E+00 -0.00000000000E+00 -0.54925970214E+02  0.54925970214E+02  0.00000000000E+00 0. -1.
         -6    2    1    2    0  503 -0.16688884599E+02  0.62415917761E+02  0.28578810274E+03  0.33849744200E+03  0.16950343039E+03 0.  0.
        -24    2    3    3    0    0  0.25299290635E+01  0.10147491581E+03  0.16551848074E+03  0.21050587938E+03  0.81319116493E+02 0.  0.
          6    2    1    2  501    0  0.16688884599E+02 -0.62415917761E+02  0.26535141773E+03  0.32249401890E+03  0.17151312391E+03 0.  0.
         24    2    5    5    0    0  0.35412082300E+01 -0.39938016776E+01  0.22475854717E+02  0.72300825244E+02  0.68510982172E+02 0.  0.
          5    1    5    5  501    0  0.13147676369E+02 -0.58422116084E+02  0.24287556301E+03  0.25019319366E+03  0.47000000000E+01 0. -1.
        -13    1    6    6    0    0 -0.20055173067E+01  0.16015230103E+02  0.41257962133E+02  0.44302698951E+02  0.00000000000E+00 0.  1.
         14    1    6    6    0    0  0.55467255367E+01 -0.20009031780E+02 -0.18782107416E+02  0.27998126294E+02  0.00000000000E+00 0. -1.
         -5    1    3    3    0  503 -0.19218813662E+02 -0.39058998044E+02  0.12026962200E+03  0.12799156262E+03  0.47000000000E+01 0.  1.
         11    1    4    4    0    0 -0.13113075214E+02  0.18160667147E+02 -0.22745787204E+01  0.22515245527E+02  0.00000000000E+00 0. -1.
        -12    1    4    4    0    0  0.15643004277E+02  0.83314248659E+02  0.16779305946E+03  0.18799063385E+03  0.00000000000E+00 0.  1.
</event>
<event>
12    1  0.1623092E-001  0.1873984E+03  0.7818608E-02  0.1161226E+00
         21   -1    0    0  503  502  0.00000000000E+00  0.00000000000E+00  0.37482255187E+02  0.37482255187E+02  0.00000000000E+00 0. -1.
         21   -1    0    0  501  503 -0.00000000000E+00 -0.00000000000E+00 -0.24647310081E+04  0.24647310081E+04  0.00000000000E+00 0. -1.
          6    2    1    2  501    0 -0.14057230374E+02  0.66136320972E+02 -0.22035046415E+04  0.22114589931E+04  0.17477572616E+03 0.  0.
         24    2    3    3    0    0 -0.75718724406E+02  0.37766040850E+02 -0.16142009356E+04  0.16182406856E+04  0.76802713679E+02 0.  0.
         -6    2    1    2    0  502  0.14057230374E+02 -0.66136320972E+02 -0.22374411144E+03  0.29075427019E+03  0.17293062064E+03 0.  0.
        -24    2    5    5    0    0  0.37735282962E+01 -0.51006272443E+02 -0.24378456267E+03  0.26321552326E+03  0.85062443786E+02 0.  0.
          5    1    3    3  501    0  0.61661494032E+02  0.28370280121E+02 -0.58930370586E+03  0.59321830753E+03  0.47000000000E+01 0. -1.
        -11    1    4    4    0    0 -0.27903956888E+02  0.41163472016E+02 -0.39790977572E+03  0.40100530152E+03  0.00000000000E+00 0.  1.
         12    1    4    4    0    0 -0.47814767518E+02 -0.33974311659E+01 -0.12162911599E+04  0.12172353840E+04  0.00000000000E+00 0. -1.
         -5    1    5    5    0  502  0.10283702078E+02 -0.15130048529E+02  0.20040451236E+02  0.27538746933E+02  0.47000000000E+01 0.  1.
         13    1    6    6    0    0 -0.11244988672E+02 -0.68026465865E+02 -0.21904452017E+03  0.22964004800E+03  0.00000000000E+00 0. -1.
        -14    1    6    6    0    0  0.15018516968E+02  0.17020193422E+02 -0.24740042508E+02  0.33575475266E+02  0.00000000000E+00 0.  1.
</event>
<event>
12    1  0.1623092E-001  0.1777502E+03  0.7818608E-02  0.1170203E+00
         21   -1    0    0  501  502  0.00000000000E+00  0.00000000000E+00  0.53419044803E+02  0.53419044803E+02  0.00000000000E+00 0. -1.
         21   -1    0    0  502  503 -0.00000000000E+00 -0.00000000000E+00 -0.79267370916E+03  0.79267370916E+03  0.00000000000E+00 0. -1.
         -6    2    1    2    0  503  0.42753597136E+02 -0.14402142130E+02 -0.58487096784E+03  0.61128487656E+03  0.17192980987E+03 0.  0.
        -24    2    3    3    0    0 -0.33444245395E+02  0.76717428556E+01 -0.41573318570E+03  0.42440778606E+03  0.78169776708E+02 0.  0.
          6    2    1    2  501    0 -0.42753597136E+02  0.14402142130E+02 -0.15438369651E+03  0.23480787740E+03  0.17107051696E+03 0.  0.
         24    2    5    5    0    0 -0.77377071828E+02 -0.24281087688E+02 -0.63312212469E+02  0.12987321928E+03  0.79258024036E+02 0.  0.
          5    1    5    5  501    0  0.34623474692E+02  0.38683229818E+02 -0.91071484046E+02  0.10493465812E+03  0.47000000000E+01 0. -1.
        -11    1    6    6    0    0 -0.59042530458E+01 -0.59437391405E+01 -0.54982213045E+02  0.55616831898E+02  0.00000000000E+00 0.  1.
         12    1    6    6    0    0 -0.71472818782E+02 -0.18337348548E+02 -0.83299994235E+01  0.74256387381E+02  0.00000000000E+00 0. -1.
         -5    1    3    3    0  503  0.76197842531E+02 -0.22073884985E+02 -0.16913778214E+03  0.18687709050E+03  0.47000000000E+01 0.  1.
         13    1    4    4    0    0 -0.23178096278E+01  0.21349111586E+02 -0.34760100671E+03  0.34826371714E+03  0.00000000000E+00 0. -1.
        -14    1    4    4    0    0 -0.31126435767E+02 -0.13677368731E+02 -0.68132178986E+02  0.76144068924E+02  0.00000000000E+00 0.  1.
</event>
<event>
12    1  0.1623092E-001  0.2003105E+03  0.7818608E-02  0.1151948E+00
         21   -1    0    0  503  502  0.00000000000E+00  0.00000000000E+00  0.36204072920E+02  0.36204072920E+02  0.00000000000E+00 0. -1.
         21   -1    0    0  501  503 -0.00000000000E+00 -0.00000000000E+00 -0.10517260354E+04  0.10517260354E+04  0.00000000000E+00 0. -1.
          6    2    1    2  501    0 -0.37391519168E+02 -0.80037244838E+02 -0.56178566250E+03  0.59642888769E+03  0.17977820006E+03 0.  0.
         24    2    3    3    0    0  0.10440117193E+02  0.13570762399E+02 -0.13996128630E+03  0.16167813287E+03  0.79104332046E+02 0.  0.
         -6    2    1    2    0  502  0.37391519168E+02  0.80037244838E+02 -0.45373629997E+03  0.49150122062E+03  0.16701117835E+03 0.  0.
        -24    2    5    5    0    0 -0.58050457020E+00  0.89853128359E+02 -0.18932469289E+03  0.22415535079E+03  0.79547849047E+02 0.  0.
          5    1    3    3  501    0 -0.47831636361E+02 -0.93608007238E+02 -0.42182437620E+03  0.43475075482E+03  0.47000000000E+01 0. -1.
        -13    1    4    4    0    0 -0.52244107796E+01 -0.20334654000E+02 -0.49155742080E+01  0.21562826603E+02  0.00000000000E+00 0.  1.
         14    1    4    4    0    0  0.15664527973E+02  0.33905416399E+02 -0.13504571209E+03  0.14011530627E+03  0.00000000000E+00 0. -1.
         -5    1    5    5    0  502  0.37972023738E+02 -0.98158835210E+01 -0.26441160708E+03  0.26734586983E+03  0.47000000000E+01 0.  1.
         11    1    6    6    0    0 -0.11686410123E+02  0.11981909914E+02  0.24127010586E+01  0.16910336281E+02  0.00000000000E+00 0. -1.
        -12    1    6    6    0    0  0.11105905553E+02  0.77871218446E+02 -0.19173739394E+03  0.20724501450E+03  0.00000000000E+00 0.  1.
</event>
<event>
12    1  0.1623092E-001  0.1879014E+03  0.7818608E-02  0.1160704E+00
         21   -1    0    0  501  502  0.00000000000E+00  0.00000000000E+00  0.57377796383E+03  0.57377796383E+03  0.00000000000E+00 0.  1.
         21   -1    0    0  502  503 -0.00000000000E+00 -0.00000000000E+00 -0.10275197065E+03  0.10275197065E+03  0.00000000000E+00 0.  1.
         -6    2    1    2    0  503 -0.43754033456E+02  0.57729121598E+02  0.20580216470E+02  0.18902506042E+03  0.17337779913E+03 0.  0.
        -24    2    3    3    0    0  0.30164250671E+02 -0.12139976648E+02 -0.70487941967E+01  0.83521241299E+02  0.76608427714E+02 0.  0.
          6    2    1    2  501    0  0.43754033456E+02 -0.57729121598E+02  0.45044577670E+03  0.48750487406E+03  0.17179213474E+03 0.  0.
         24    2    5    5    0    0  0.91593392471E+02 -0.50557758609E+02  0.37660335304E+03  0.39910336813E+03  0.80672030055E+02 0.  0.
          5    1    5    5  501    0 -0.47839359015E+02 -0.71713629898E+01  0.73842423668E+02  0.88401505933E+02  0.47000000000E+01 0. -1.
        -13    1    6    6    0    0  0.24155692120E+02 -0.44916374804E+02  0.79967521159E+02  0.94846099697E+02  0.00000000000E+00 0.  1.
         14    1    6    6    0    0  0.67437700351E+02 -0.56413838044E+01  0.29663583188E+03  0.30425726843E+03  0.00000000000E+00 0. -1.
         -5    1    3    3    0  503 -0.73918284127E+02  0.69869098247E+02  0.27629010667E+02  0.10550381912E+03  0.47000000000E+01 0.  1.
         13    1    4    4    0    0  0.20795675691E+02  0.31847136597E+02 -0.62139502823E+01  0.38539764075E+02  0.00000000000E+00 0. -1.
        -14    1    4    4    0    0  0.93685749804E+01 -0.43987113245E+02 -0.83484391448E+00  0.44981477223E+02  0.00000000000E+00 0.  1.
</event>
<event>
12    1  0.1623092E-001  0.3253003E+03  0.7818608E-02  0.1073260E+00
         21   -1    0    0  501  502  0.00000000000E+00  0.00000000000E+00  0.48997189604E+03  0.48997189604E+03  0.00000000000E+00 0. -1.
         21   -1    0    0  502  503 -0.00000000000E+00 -0.00000000000E+00 -0.28844963438E+03  0.28844963438E+03  0.00000000000E+00 0.  1.
         -6    2    1    2    0  503  0.15373990425E+03  0.22927444016E+03 -0.94504003110E+02  0.33874958825E+03  0.17209750105E+03 0.  0.
        -24    2    3    3    0    0  0.18984426805E+02  0.64090444416E+02  0.39743620496E+01  0.10387756021E+03  0.79415102057E+02 0.  0.
          6    2    1    2  501    0 -0.15373990425E+03 -0.22927444016E+03  0.29602626477E+03  0.43967194216E+03  0.17168908009E+03 0.  0.
         24    2    5    5    0    0 -0.85615243975E+02 -0.22429415696E+03  0.20247508060E+03  0.32374227979E+03  0.78581592072E+02 0.  0.
          5    1    5    5  501    0 -0.68124660277E+02 -0.49802832060E+01  0.93551184173E+02  0.11592966238E+03  0.47000000000E+01 0. -1.
        -11    1    6    6    0    0 -0.55030696001E+02 -0.10286920489E+03  0.51304034194E+02  0.12744628179E+03  0.00000000000E+00 0.  1.
         12    1    6    6    0    0 -0.30584547974E+02 -0.12142495206E+03  0.15117104640E+03  0.19629599800E+03  0.00000000000E+00 0. -1.
         -5    1    3    3    0  503  0.13475547745E+03  0.16518399575E+03 -0.98478365160E+02  0.23487202804E+03  0.47000000000E+01 0.  1.
         11    1    4    4    0    0  0.13742622572E+02 -0.25796170161E+01  0.29221622076E+02  0.32394710924E+02  0.00000000000E+00 0. -1.
        -12    1    4    4    0    0  0.52418042325E+01  0.66670061433E+02 -0.25247260027E+02  0.71482849285E+02  0.00000000000E+00 0.  1.
</event>
<event>
12    1  0.1623092E-001  0.2532560E+03  0.7818608E-02  0.1111428E+00
         21   -1    0    0  503  502  0.00000000000E+00  0.00000000000E+00  0.76604056753E+02  0.76604056753E+02  0.00000000000E+00 0. -1.
         21   -1    0    0  501  503 -0.00000000000E+00 -0.00000000000E+00 -0.11264954403E+04  0.11264954403E+04  0.00000000000E+00 0. -1.
          6    2    1    2  501    0 -0.18230497039E+03  0.31723457622E+02 -0.21912481510E+03  0.33489444606E+03  0.17290785238E+03 0.  0.
         24    2    3    3    0    0 -0.88579902522E+02  0.39627252746E+02 -0.20653427813E+03  0.23988144723E+03  0.73959329330E+02 0.  0.
         -6    2    1    2    0  502  0.18230497039E+03 -0.31723457622E+02 -0.83076656846E+03  0.86820505101E+03  0.17136347141E+03 0.  0.
        -24    2    5    5    0    0  0.87270567785E+02  0.27566278476E+02 -0.59375097382E+03  0.60601181580E+03  0.79586746816E+02 0.  0.
          5    1    3    3  501    0 -0.93725067871E+02 -0.79037951238E+01 -0.12590536976E+02  0.95012998827E+02  0.47000000000E+01 0. -1.
        -11    1    4    4    0    0  0.89214012864E+01  0.71087615107E+00 -0.53849140805E+02  0.54587789030E+02  0.00000000000E+00 0.  1.
         12    1    4    4    0    0 -0.97501303809E+02  0.38916376595E+02 -0.15268513732E+03  0.18529365820E+03  0.00000000000E+00 0. -1.
         -5    1    5    5    0  502  0.95034402608E+02 -0.59289736098E+02 -0.23701559464E+03  0.26219323521E+03  0.47000000000E+01 0.  1.
         11    1    6    6    0    0  0.98745561358E+02  0.29704628039E+02 -0.57298853287E+03  0.58219318925E+03  0.00000000000E+00 0. -1.
        -12    1    6    6    0    0 -0.11474993573E+02 -0.21383495629E+01 -0.20762440950E+02  0.23818626546E+02  0.00000000000E+00 0.  1.
</event>
<event>
12    1  0.1623092E-001  0.1793268E+03  0.7818608E-02  0.1168658E+00
         21   -1    0    0  503  502  0.00000000000E+00  0.00000000000E+00  0.46493800605E+02  0.46493800605E+02  0.00000000000E+00 0. -1.
         21   -1    0    0  501  503 -0.00000000000E+00 -0.00000000000E+00 -0.69611662604E+03  0.69611662604E+03  0.00000000000E+00 0. -1.
          6    2    1    2  501    0 -0.47972714147E+02  0.59817700802E+01 -0.36295990715E+03  0.40447772342E+03  0.17182890230E+03 0.  0.
         24    2    3    3    0    0  0.19458006190E+02  0.52075654994E+02 -0.18503388623E+03  0.20864282563E+03  0.78764216396E+02 0.  0.
         -6    2    1    2    0  502  0.47972714147E+02 -0.59817700802E+01 -0.28666291829E+03  0.33813270323E+03  0.17268738633E+03 0.  0.
        -24    2    5    5    0    0  0.34156393932E+02  0.27051489790E+02 -0.28691393847E+03  0.30201844050E+03  0.83648598103E+02 0.  0.
          5    1    3    3  501    0 -0.67430720337E+02 -0.46093884914E+02 -0.17792602092E+03  0.19583489779E+03  0.47000000000E+01 0. -1.
        -11    1    4    4    0    0 -0.12573271541E+02  0.57383385678E+02 -0.14887591884E+03  0.16004680353E+03  0.00000000000E+00 0.  1.
         12    1    4    4    0    0  0.32031277731E+02 -0.53077306839E+01 -0.36157967389E+02  0.48596022098E+02  0.00000000000E+00 0. -1.
         -5    1    5    5    0  502  0.13816320214E+02 -0.33033259871E+02  0.25102018125E+00  0.36114262737E+02  0.47000000000E+01 0.  1.
         11    1    6    6    0    0  0.61014449464E+02  0.22489403589E+02 -0.17101693929E+03  0.18296264603E+03  0.00000000000E+00 0. -1.
        -12    1    6    6    0    0 -0.26858055532E+02  0.45620862017E+01 -0.11589699918E+03  0.11905579447E+03  0.00000000000E+00 0.  1.
</event>
<event>
12    1  0.1623092E-001  0.2160920E+03  0.7818608E-02  0.1136843E+00
         21   -1    0    0  501  502  0.00000000000E+00  0.00000000000E+00  0.89268678310E+03  0.89268678310E+03  0.00000000000E+00 0. -1.
         21   -1    0    0  502  503 -0.00000000000E+00 -0.00000000000E+00 -0.58947549098E+02  0.58947549098E+02  0.00000000000E+00 0. -1.
         -6    2    1    2    0  503 -0.11867851646E+03 -0.53907997636E+02  0.25706375219E+03  0.33582362192E+03  0.17235158796E+03 0.  0.
        -24    2    3    3    0    0 -0.11600195598E+03 -0.78780068307E+02  0.26384385328E+03  0.30948270989E+03  0.80642518895E+02 0.  0.
          6    2    1    2  501    0  0.11867851646E+03  0.53907997636E+02  0.57667548182E+03  0.61581071028E+03  0.17227175360E+03 0.  0.
         24    2    5    5    0    0  0.12194942868E+03 -0.15229570795E+02  0.41317070581E+03  0.43819707338E+03  0.78759380377E+02 0.  0.
          5    1    5    5  501    0 -0.32709122179E+01  0.69137568431E+02  0.16350477601E+03  0.17761363690E+03  0.47000000000E+01 0. -1.
        -13    1    6    6    0    0  0.28381735557E+02 -0.27660327951E+02  0.21590215096E+03  0.21950935161E+03  0.00000000000E+00 0.  1.
         14    1    6    6    0    0  0.93567693125E+02  0.12430757156E+02  0.19726855485E+03  0.21868772177E+03  0.00000000000E+00 0. -1.
         -5    1    3    3    0  503 -0.26765604888E+01  0.24872070671E+02 -0.67801010983E+01  0.26340912027E+02  0.47000000000E+01 0.  1.
         11    1    4    4    0    0 -0.11269892066E+03 -0.62900275016E+02  0.16582992334E+03  0.21013580083E+03  0.00000000000E+00 0. -1.
        -12    1    4    4    0    0 -0.33030353153E+01 -0.15879793291E+02  0.98013929946E+02  0.99346909065E+02  0.00000000000E+00 0.  1.
</event>
<event>
12    1  0.1623092E-001  0.1831100E+03  0.7818608E-02  0.1164991E+00
         21   -1    0    0  501  502  0.00000000000E+00  0.00000000000E+00  0.20194139711E+03  0.20194139711E+03  0.00000000000E+00 0.  1.
         21   -1    0    0  502  503 -0.00000000000E+00 -0.00000000000E+00 -0.17043359925E+03  0.17043359925E+03  0.00000000000E+00 0. -1.
         -6    2    1    2    0  503  0.34029384142E+02  0.51443632988E+02 -0.16252873804E+02  0.18313873085E+03  0.17167175793E+03 0.  0.
        -24    2    3    3    0    0  0.34633758676E+02  0.87811265924E+02 -0.49569474270E+02  0.13359021059E+03  0.80491589136E+02 0.  0.
          6    2    1    2  501    0 -0.34029384142E+02 -0.51443632988E+02  0.47760671658E+02  0.18923626551E+03  0.17240892107E+03 0.  0.
         24    2    5    5    0    0 -0.54104423212E+02 -0.36381678014E+02  0.90798358568E+02  0.13919426139E+03  0.82944471662E+02 0.  0.
          5    1    5    5  501    0  0.20075039070E+02 -0.15061954974E+02 -0.43037686910E+02  0.50042004116E+02  0.47000000000E+01 0. -1.
        -11    1    6    6    0    0  0.17724189714E+02 -0.15216299615E+02  0.46894513503E+02  0.52390629617E+02  0.00000000000E+00 0.  1.
         12    1    6    6    0    0 -0.71828612926E+02 -0.21165378399E+02  0.43903845065E+02  0.86803631774E+02  0.00000000000E+00 0. -1.
         -5    1    3    3    0  503 -0.60437453380E+00 -0.36367632937E+02  0.33316600466E+02  0.49548520266E+02  0.47000000000E+01 0.  1.
         11    1    4    4    0    0 -0.14254695815E+02  0.40666325752E+02 -0.49558216603E+02  0.65673154605E+02  0.00000000000E+00 0. -1.
        -12    1    4    4    0    0  0.48888454491E+02  0.47144940173E+02 -0.11257667231E-01  0.67917055981E+02  0.00000000000E+00 0.  1.
</event>
<event>
12    1  0.1623092E-001  0.1877370E+03  0.7818608E-02  0.1161015E+00
         21   -1    0    0  501  502  0.00000000000E+00  0.00000000000E+00  0.19375450977E+03  0.19375450977E+03  0.00000000000E+00 0.  1.
         21   -1    0    0  502  503 -0.00000000000E+00 -0.00000000000E+00 -0.34604072947E+03  0.34604072947E+03  0.00000000000E+00 0.  1.
         -6    2    1    2    0  503 -0.11204861364E+02  0.67550091941E+02 -0.26296902375E+03  0.32185979771E+03  0.17248900861E+03 0.  0.
        -24    2    3    3    0    0  0.19153140708E+01 -0.30881752016E+02 -0.13670499166E+03  0.16115614901E+03  0.79534260423E+02 0.  0.
          6    2    1    2  501    0  0.11204861364E+02 -0.67550091941E+02  0.11068280405E+03  0.21793544153E+03  0.17480449000E+03 0.  0.
         24    2    5    5    0    0 -0.36708337129E+02 -0.42755612209E+02  0.12807057943E+03  0.16105956310E+03  0.79765689124E+02 0.  0.
          5    1    5    5  501    0  0.47913198493E+02 -0.24794479732E+02 -0.17387775376E+02  0.56875878433E+02  0.47000000000E+01 0. -1.
        -11    1    6    6    0    0 -0.43656144301E+01 -0.55272491516E+02  0.10691364625E+03  0.12043518864E+03  0.00000000000E+00 0.  1.
         12    1    6    6    0    0 -0.32342722699E+02  0.12516879306E+02  0.21156933179E+02  0.40624374465E+02  0.00000000000E+00 0. -1.
         -5    1    3    3    0  503 -0.13120175435E+02  0.98431843957E+02 -0.12626403209E+03  0.16070364870E+03  0.47000000000E+01 0.  1.
         13    1    4    4    0    0 -0.28225195751E+02 -0.13576122574E+02 -0.11717648121E+03  0.12129015017E+03  0.00000000000E+00 0. -1.
        -14    1    4    4    0    0  0.30140509822E+02 -0.17305629442E+02 -0.19528510455E+02  0.39865998837E+02  0.00000000000E+00 0.  1.
</event>
<event>
12    1  0.1623092E-001  0.2036727E+03  0.7818608E-02  0.1146895E+00
         21   -1    0    0  501  502  0.00000000000E+00  0.00000000000E+00  0.20755404383E+03  0.20755404383E+03  0.00000000000E+00 0. -1.
         21   -1    0    0  502  503 -0.00000000000E+00 -0.00000000000E+00 -0.19887297989E+03  0.19887297989E+03  0.00000000000E+00 0.  1.
         -6    2    1    2    0  503  0.74766959006E+02  0.76187176771E+02  0.73400174074E+01  0.20274986704E+03  0.17221802654E+03 0.  0.
        -24    2    3    3    0    0  0.10436071708E+03  0.13819043394E+02  0.12530992609E+02  0.13336247048E+03  0.80909811058E+02 0.  0.
          6    2    1    2  501    0 -0.74766959006E+02 -0.76187176771E+02  0.13410465299E+01  0.20367715668E+03  0.17345893371E+03 0.  0.
         24    2    5    5    0    0 -0.10462691899E+02 -0.86119339056E+02 -0.42379787203E+02  0.12514507459E+03  0.79619312037E+02 0.  0.
          5    1    5    5  501    0 -0.64304267107E+02  0.99321622849E+01  0.43720833733E+02  0.78532082095E+02  0.47000000000E+01 0. -1.
        -11    1    6    6    0    0 -0.36317736087E+02 -0.52489855635E+02 -0.51189742569E+02  0.81820245925E+02  0.00000000000E+00 0.  1.
         12    1    6    6    0    0  0.25855044188E+02 -0.33629483422E+02  0.88099553661E+01  0.43324828663E+02  0.00000000000E+00 0. -1.
         -5    1    3    3    0  503 -0.29593758077E+02  0.62368133378E+02 -0.51909752012E+01  0.69387396562E+02  0.47000000000E+01 0.  1.
         13    1    4    4    0    0 -0.27442780899E+01  0.24800968557E+02  0.48748270061E+01  0.25424064230E+02  0.00000000000E+00 0. -1.
        -14    1    4    4    0    0  0.10710499517E+03 -0.10981925164E+02  0.76561656025E+01  0.10793840625E+03  0.00000000000E+00 0.  1.
</event>
<event>
12    1  0.1623092E-001  0.2424902E+03  0.7818608E-02  0.1118293E+00
         21   -1    0    0  501  502  0.00000000000E+00  0.00000000000E+00  0.10076405920E+03  0.10076405920E+03  0.00000000000E+00 0.  1.
         21   -1    0    0  502  503 -0.00000000000E+00 -0.00000000000E+00 -0.72326841996E+03  0.72326841996E+03  0.00000000000E+00 0.  1.
         -6    2    1    2    0  503  0.15708667588E+03  0.66219202103E+02 -0.12923985563E+03  0.27478066684E+03  0.17245366948E+03 0.  0.
        -24    2    3    3    0    0  0.45547792215E+02  0.52165395442E+01 -0.80408037613E+02  0.13851297493E+03  0.10304648490E+03 0.  0.
          6    2    1    2  501    0 -0.15708667588E+03 -0.66219202103E+02 -0.49326450513E+03  0.54925181232E+03  0.17119133987E+03 0.  0.
         24    2    5    5    0    0 -0.10848745773E+03 -0.79479797568E+02 -0.21709608000E+03  0.26848711290E+03  0.82873730088E+02 0.  0.
          5    1    5    5  501    0 -0.48599218147E+02  0.13260595465E+02 -0.27616842513E+03  0.28076469941E+03  0.47000000000E+01 0. -1.
        -11    1    6    6    0    0 -0.15218868933E+02 -0.32127181156E+02 -0.12216148151E+03  0.12722891694E+03  0.00000000000E+00 0.  1.
         12    1    6    6    0    0 -0.93268588798E+02 -0.47352616411E+02 -0.94934598489E+02  0.14125819597E+03  0.00000000000E+00 0. -1.
         -5    1    3    3    0  503  0.11153888366E+03  0.61002662559E+02 -0.48831818020E+02  0.13626769191E+03  0.47000000000E+01 0.  1.
         11    1    4    4    0    0 -0.25546209325E+02  0.26921778766E+02 -0.17053425347E+02  0.40843730227E+02  0.00000000000E+00 0. -1.
        -12    1    4    4    0    0  0.71094001540E+02 -0.21705239222E+02 -0.63354612266E+02  0.97669244699E+02  0.00000000000E+00 0.  1.
</event>
<event>
12    1  0.1623092E-001  0.1796688E+03  0.7818608E-02  0.1168435E+00
         21   -1    0    0  501  502  0.00000000000E+00  0.00000000000E+00  0.43926290358E+02  0.43926290358E+02  0.00000000000E+00 0.  1.
         21   -1    0    0  502  503 -0.00000000000E+00 -0.00000000000E+00 -0.72969064285E+03  0.72969064285E+03  0.00000000000E+00 0.  1.
         -6    2    1    2    0  503 -0.39873212419E+02 -0.32936083457E+02 -0.34377195348E+03  0.38730142408E+03  0.17072954763E+03 0.  0.
        -24    2    3    3    0    0 -0.32220246059E+02 -0.35363797363E+01 -0.67390199568E+02  0.10921533243E+03  0.79598364322E+02 0.  0.
          6    2    1    2  501    0  0.39873212419E+02  0.32936083457E+02 -0.34199239902E+03  0.38631550913E+03  0.17206456041E+03 0.  0.
         24    2    5    5    0    0 -0.78572871234E+01  0.37221478261E+02 -0.78209829851E+02  0.11817394393E+03  0.80007050518E+02 0.  0.
          5    1    5    5  501    0  0.47730499543E+02 -0.42853948045E+01 -0.26378256916E+03  0.26814156520E+03  0.47000000000E+01 0. -1.
        -11    1    6    6    0    0 -0.36813613434E+02  0.12232407926E+02 -0.68485118340E+02  0.78708864633E+02  0.00000000000E+00 0.  1.
         12    1    6    6    0    0  0.28956326310E+02  0.24989070335E+02 -0.97247115115E+01  0.39465079293E+02  0.00000000000E+00 0. -1.
         -5    1    3    3    0  503 -0.76529663600E+01 -0.29399703720E+02 -0.27638175391E+03  0.27808609165E+03  0.47000000000E+01 0.  1.
         11    1    4    4    0    0 -0.21402992151E+02 -0.99762384766E+01 -0.84633178514E+02  0.87865740267E+02  0.00000000000E+00 0. -1.
        -12    1    4    4    0    0 -0.10817253908E+02  0.64398587403E+01  0.17242978946E+02  0.21349592166E+02  0.00000000000E+00 0.  1.
</event>
<event>
12    1  0.1623092E-001  0.2610348E+03  0.7818608E-02  0.1106583E+00
         21   -1    0    0  503  502  0.00000000000E+00  0.00000000000E+00  0.41515725947E+02  0.41515725947E+02  0.00000000000E+00 0. -1.
         21   -1    0    0  501  503 -0.00000000000E+00 -0.00000000000E+00 -0.17138761011E+04  0.17138761011E+04  0.00000000000E+00 0. -1.
          6    2    1    2  501    0  0.17938292573E+01  0.19560240119E+03 -0.65185506580E+03  0.70203041089E+03  0.17224445949E+03 0.  0.
         24    2    3    3    0    0  0.12697448711E+02  0.21824351053E+03 -0.61103059198E+03  0.65386157851E+03  0.79906973588E+02 0.  0.
         -6    2    1    2    0  502 -0.17938292573E+01 -0.19560240119E+03 -0.10205053094E+04  0.10533614162E+04  0.17284579677E+03 0.  0.
        -24    2    5    5    0    0  0.53856229884E+02 -0.14308973611E+03 -0.83505666613E+03  0.85269303712E+03  0.79941314825E+02 0.  0.
          5    1    3    3  501    0 -0.10903619454E+02 -0.22641109344E+02 -0.40824473826E+02  0.48168832378E+02  0.47000000000E+01 0. -1.
        -11    1    4    4    0    0  0.70776609467E+01  0.30860834156E+01 -0.87150481838E+02  0.87491849220E+02  0.00000000000E+00 0.  1.
         12    1    4    4    0    0  0.56197877646E+01  0.21515742712E+03 -0.52388011014E+03  0.56636972929E+03  0.00000000000E+00 0. -1.
         -5    1    5    5    0  502 -0.55650059142E+02 -0.52512665077E+02 -0.18544864324E+03  0.20066837906E+03  0.47000000000E+01 0.  1.
         13    1    6    6    0    0  0.72592270877E+01 -0.49285435285E+02 -0.11885471243E+03  0.12887277904E+03  0.00000000000E+00 0. -1.
        -14    1    6    6    0    0  0.46597002797E+02 -0.93804300828E+02 -0.71620195370E+03  0.72382025808E+03  0.00000000000E+00 0.  1.
</event>
<event>
12    1  0.1623092E-001  0.2162091E+03  0.7818608E-02  0.1137065E+00
         21   -1    0    0  501  502  0.00000000000E+00  0.00000000000E+00  0.82865907985E+03  0.82865907985E+03  0.00000000000E+00 0. -1.
         21   -1    0    0  502  503 -0.00000000000E+00 -0.00000000000E+00 -0.56409526883E+02  0.56409526883E+02  0.00000000000E+00 0. -1.
         -6    2    1    2    0  503 -0.57618796749E+02 -0.11446617061E+03  0.34862157862E+03  0.41022358084E+03  0.17413773642E+03 0.  0.
        -24    2    3    3    0    0 -0.14339383827E+02 -0.15846021108E+01  0.68196996281E+02  0.10481337723E+03  0.78274420164E+02 0.  0.
          6    2    1    2  501    0  0.57618796749E+02  0.11446617061E+03  0.42362797434E+03  0.47484502589E+03  0.17203112513E+03 0.  0.
         24    2    5    5    0    0  0.74800520061E+02  0.14405433353E+02  0.18880735255E+03  0.21897361839E+03  0.80613862721E+02 0.  0.
          5    1    5    5  501    0 -0.17181723312E+02  0.10006073726E+03  0.23482062179E+03  0.25587140750E+03  0.47000000000E+01 0. -1.
        -11    1    6    6    0    0  0.75552348298E+01  0.23524229707E+02  0.81915278298E+01  0.26030214844E+02  0.00000000000E+00 0.  1.
         12    1    6    6    0    0  0.67245285231E+02 -0.91187963545E+01  0.18061582472E+03  0.19294340355E+03  0.00000000000E+00 0. -1.
         -5    1    3    3    0  503 -0.43279412922E+02 -0.11288156850E+03  0.28042458234E+03  0.30541020361E+03  0.47000000000E+01 0.  1.
         11    1    4    4    0    0  0.22765556746E+01 -0.16431575495E+02  0.78521714167E+02  0.80254837703E+02  0.00000000000E+00 0. -1.
        -12    1    4    4    0    0 -0.16615939502E+02  0.14846973385E+02 -0.10324717887E+02  0.24558539526E+02  0.00000000000E+00 0.  1.
</event>
<event>
12    1  0.1623092E-001  0.1755875E+03  0.7818608E-02  0.1173752E+00
         21   -1    0    0  503  502  0.00000000000E+00  0.00000000000E+00  0.94945841324E+03  0.94945841324E+03  0.00000000000E+00 0. -1.
         21   -1    0    0  501  503 -0.00000000000E+00 -0.00000000000E+00 -0.81379487865E+02  0.81379487865E+02  0.00000000000E+00 0. -1.
          6    2    1    2  501    0 -0.76800389787E+01 -0.15754595025E+02  0.26741652347E+02  0.17137330481E+03  0.16836419859E+03 0.  0.
         24    2    3    3    0    0  0.26849516561E+02 -0.42909372860E+02 -0.31359365623E+02  0.98383644893E+02  0.78318713928E+02 0.  0.
         -6    2    1    2    0  502  0.76800389787E+01  0.15754595025E+02  0.84133727303E+03  0.85946459630E+03  0.17471060369E+03 0.  0.
        -24    2    5    5    0    0  0.62804523720E+02 -0.23658809201E+02  0.42565879854E+03  0.43827246745E+03  0.79957460555E+02 0.  0.
          5    1    3    3  501    0 -0.34529555540E+02  0.27154777835E+02  0.58101017970E+02  0.72989659913E+02  0.47000000000E+01 0. -1.
        -13    1    4    4    0    0  0.34888536645E+02  0.10565368941E+02 -0.24391501361E+02  0.43860943318E+02  0.00000000000E+00 0.  1.
         14    1    4    4    0    0 -0.80390200841E+01 -0.53474741801E+02 -0.69678642622E+01  0.54522701575E+02  0.00000000000E+00 0. -1.
         -5    1    5    5    0  502 -0.55124484741E+02  0.39413404226E+02  0.41567847449E+03  0.42119212885E+03  0.47000000000E+01 0.  1.
         11    1    6    6    0    0  0.75942977514E+02 -0.27464527484E+02  0.40810549718E+03  0.41601890934E+03  0.00000000000E+00 0. -1.
        -12    1    6    6    0    0 -0.13138453794E+02  0.38057182824E+01  0.17553301360E+02  0.22253558106E+02  0.00000000000E+00 0.  1.
</event>
<event>
12    1  0.1623092E-001  0.2332739E+03  0.7818608E-02  0.1124803E+00
         21   -1    0    0  503  502  0.00000000000E+00  0.00000000000E+00  0.11192323156E+04  0.11192323156E+04  0.00000000000E+00 0.  1.
         21   -1    0    0  501  503 -0.00000000000E+00 -0.00000000000E+00 -0.62668955609E+02  0.62668955609E+02  0.00000000000E+00 0. -1.
          6    2    1    2  501    0  0.58765889467E+02  0.14297646222E+03  0.24546124408E+03  0.33862653360E+03  0.17470262848E+03 0.  0.
         24    2    3    3    0    0  0.41556766362E+02  0.12693013441E+03  0.26497029519E+03  0.30770192157E+03  0.81443178652E+02 0.  0.
         -6    2    1    2    0  502 -0.58765889467E+02 -0.14297646222E+03  0.81110211595E+03  0.84327473766E+03  0.17125986732E+03 0.  0.
        -24    2    5    5    0    0 -0.99842755207E+02 -0.79874450655E+02  0.46229228013E+03  0.48640001968E+03  0.80760901717E+02 0.  0.
          5    1    3    3  501    0  0.17209123105E+02  0.16046327803E+02 -0.19509051110E+02  0.30924612030E+02  0.47000000000E+01 0. -1.
        -11    1    4    4    0    0  0.33469106949E+02  0.83029929559E+02  0.24088017622E+03  0.25697744963E+03  0.00000000000E+00 0.  1.
         12    1    4    4    0    0  0.80876594136E+01  0.43900204855E+02  0.24090118970E+02  0.50724471934E+02  0.00000000000E+00 0. -1.
         -5    1    5    5    0  502  0.41076865740E+02 -0.63102011561E+02  0.34880983582E+03  0.35687471797E+03  0.47000000000E+01 0.  1.
         11    1    6    6    0    0 -0.37400462211E+02 -0.30465022972E+02  0.63545277804E+02  0.79780414448E+02  0.00000000000E+00 0. -1.
        -12    1    6    6    0    0 -0.62442292996E+02 -0.49409427683E+02  0.39874700233E+03  0.40661960524E+03  0.00000000000E+00 0.  1.
</event>
<event>
12    1  0.1623092E-001  0.2831920E+03  0.7818608E-02  0.1094071E+00
         21   -1    0    0  501  502  0.00000000000E+00  0.00000000000E+00  0.80822769587E+03  0.80822769587E+03  0.00000000000E+00 0. -1.
         21   -1    0    0  502  503 -0.00000000000E+00 -0.00000000000E+00 -0.99438693572E+02  0.99438693572E+02  0.00000000000E+00 0. -1.
         -6    2    1    2    0  503 -0.21765195105E+03  0.53385433693E+02  0.32254514742E+03  0.42922378245E+03  0.17313378344E+03 0.  0.
        -24    2    3    3    0    0 -0.23146238304E+03  0.17973865145E+02  0.28974262578E+03  0.37879757255E+03  0.75092723905E+02 0.  0.
          6    2    1    2  501    0  0.21765195105E+03 -0.53385433693E+02  0.38624385487E+03  0.47844260699E+03  0.17175749308E+03 0.  0.
         24    2    5    5    0    0  0.77857575257E+02 -0.47639386275E+02  0.90715082949E+02  0.15143369335E+03  0.79822453344E+02 0.  0.
          5    1    5    5  501    0  0.13979437579E+03 -0.57460474184E+01  0.29552877192E+03  0.32700891364E+03  0.47000000000E+01 0. -1.
        -11    1    6    6    0    0 -0.37851174141E+01  0.16149041115E+02  0.20053054208E+02  0.26023904892E+02  0.00000000000E+00 0.  1.
         12    1    6    6    0    0  0.81642692671E+02 -0.63788427390E+02  0.70662028740E+02  0.12540978846E+03  0.00000000000E+00 0. -1.
         -5    1    3    3    0  503  0.13810431994E+02  0.35411568549E+02  0.32802521644E+02  0.50426209903E+02  0.47000000000E+01 0.  1.
         13    1    4    4    0    0 -0.22063246797E+03  0.27381159012E+02  0.28874158842E+03  0.36441750599E+03  0.00000000000E+00 0. -1.
        -14    1    4    4    0    0 -0.10829915072E+02 -0.94072938675E+01  0.10010373618E+01  0.14380066557E+02  0.00000000000E+00 0.  1.
</event>
<event>
12    1  0.1623092E-001  0.1986138E+03  0.7818608E-02  0.1151354E+00
         21   -1    0    0  501  502  0.00000000000E+00  0.00000000000E+00  0.45971202808E+03  0.45971202808E+03  0.00000000000E+00 0.  1.
         21   -1    0    0  502  503 -0.00000000000E+00 -0.00000000000E+00 -0.11153153186E+03  0.11153153186E+03  0.00000000000E+00 0.  1.
         -6    2    1    2    0  503 -0.99463438835E+02  0.19236742797E+02  0.33892058710E+02  0.19945780690E+03  0.16843906064E+03 0.  0.
        -24    2    3    3    0    0 -0.86818902524E+01  0.23976248154E+02  0.61870271763E+02  0.10422848956E+03  0.79908771825E+02 0.  0.
          6    2    1    2  501    0  0.99463438835E+02 -0.19236742797E+02  0.31428843751E+03  0.37178575305E+03  0.17083441188E+03 0.  0.
         24    2    5    5    0    0  0.94230756893E+02 -0.72963842233E+02  0.21355852755E+03  0.25740661625E+03  0.80297967501E+02 0.  0.
          5    1    5    5  501    0  0.52326819424E+01  0.53727099436E+02  0.10072990996E+03  0.11437913680E+03  0.47000000000E+01 0. -1.
        -13    1    6    6    0    0  0.56554994205E+02 -0.17029401337E+02  0.40345106184E+02  0.71527585395E+02  0.00000000000E+00 0.  1.
         14    1    6    6    0    0  0.37675762688E+02 -0.55934440896E+02  0.17321342136E+03  0.18587903086E+03  0.00000000000E+00 0. -1.
         -5    1    3    3    0  503 -0.90781548583E+02 -0.47395053568E+01 -0.27978213052E+02  0.95229317333E+02  0.47000000000E+01 0.  1.
         13    1    4    4    0    0 -0.12170931310E+02  0.49572943351E+02  0.19578915210E+02  0.54671219140E+02  0.00000000000E+00 0. -1.
        -14    1    4    4    0    0  0.34890410579E+01 -0.25596695198E+02  0.42291356553E+02  0.49557270422E+02  0.00000000000E+00 0.  1.
</event>
<event>
12    1  0.1623092E-001  0.1923091E+03  0.7818608E-02  0.1156884E+00
         21   -1    0    0  503  502  0.00000000000E+00  0.00000000000E+00  0.86375294286E+02  0.86375294286E+02  0.00000000000E+00 0. -1.
         21   -1    0    0  501  503 -0.00000000000E+00 -0.00000000000E+00 -0.43145867755E+03  0.43145867755E+03  0.00000000000E+00 0. -1.
          6    2    1    2  501    0 -0.43687528210E+02 -0.64391728841E+02 -0.20716474070E+03  0.28118163424E+03  0.17346753813E+03 0.  0.
         24    2    3    3    0    0  0.33294797276E+02 -0.30458570400E+02 -0.50669185449E+02  0.10344394412E+03  0.78083386098E+02 0.  0.
         -6    2    1    2    0  502  0.43687528210E+02  0.64391728841E+02 -0.13791864256E+03  0.23665233759E+03  0.17586324816E+03 0.  0.
        -24    2    5    5    0    0  0.26104980870E+02  0.40697471465E+02 -0.16972912992E+03  0.19301106230E+03  0.78150741626E+02 0.  0.
          5    1    3    3  501    0 -0.76982325486E+02 -0.33933158441E+02 -0.15649555525E+03  0.17773769012E+03  0.47000000000E+01 0. -1.
        -13    1    4    4    0    0  0.11887353612E+02  0.13557642101E+02 -0.51422573670E+02  0.54492200525E+02  0.00000000000E+00 0.  1.
         14    1    4    4    0    0  0.21407443663E+02 -0.44016212501E+02  0.75338822050E+00  0.48951743594E+02  0.00000000000E+00 0. -1.
         -5    1    5    5    0  502  0.17582547340E+02  0.23694257376E+02  0.31810487352E+02  0.43641275292E+02  0.47000000000E+01 0.  1.
         13    1    6    6    0    0 -0.18187545785E+02  0.31714484016E+02 -0.33890035608E+02  0.49851076534E+02  0.00000000000E+00 0. -1.
        -14    1    6    6    0    0  0.44292526655E+02  0.89829874493E+01 -0.13583909431E+03  0.14315998576E+03  0.00000000000E+00 0.  1.
</event>
<event>
12    1  0.1623092E-001  0.1753825E+03  0.7818608E-02  0.1172553E+00
         21   -1    0    0  503  502  0.00000000000E+00  0.00000000000E+00  0.51095746400E+02  0.51095746400E+02  0.00000000000E+00 0. -1.
         21   -1    0    0  501  503 -0.00000000000E+00 -0.00000000000E+00 -0.81174141988E+03  0.81174141988E+03  0.00000000000E+00 0. -1.
          6    2    1    2  501    0 -0.23044830407E+02 -0.17891809795E+02 -0.60042707247E+03  0.62528923154E+03  0.17211267433E+03 0.  0.
         24    2    3    3    0    0 -0.13218587552E+02 -0.79536413433E+02 -0.38121925235E+03  0.39731824521E+03  0.77671729085E+02 0.  0.
         -6    2    1    2    0  502  0.23044830407E+02  0.17891809795E+02 -0.16021860101E+03  0.23754793474E+03  0.17293883347E+03 0.  0.
        -24    2    5    5    0    0  0.72843399009E+01  0.76571059799E+02 -0.11421284771E+03  0.16119175111E+03  0.83797477503E+02 0.  0.
          5    1    3    3  501    0 -0.98262428557E+01  0.61644603638E+02 -0.21920782012E+03  0.22797098633E+03  0.47000000000E+01 0. -1.
        -13    1    4    4    0    0 -0.45127934177E+02 -0.40011883597E+02 -0.18241538467E+03  0.19212718141E+03  0.00000000000E+00 0.  1.
         14    1    4    4    0    0  0.31909346625E+02 -0.39524529836E+02 -0.19880386768E+03  0.20519106380E+03  0.00000000000E+00 0. -1.
         -5    1    5    5    0  502  0.15760490507E+02 -0.58679250005E+02 -0.46005753299E+02  0.76356183631E+02  0.47000000000E+01 0.  1.
         11    1    6    6    0    0  0.38208842299E+02  0.58458500512E+02 -0.44511494941E+02  0.82816574995E+02  0.00000000000E+00 0. -1.
        -12    1    6    6    0    0 -0.30924502398E+02  0.18112559287E+02 -0.69701352772E+02  0.78375176113E+02  0.00000000000E+00 0.  1.
</event>
<event>
12    1  0.1623092E-001  0.2081281E+03  0.7818608E-02  0.1143068E+00
         21   -1    0    0  501  502  0.00000000000E+00  0.00000000000E+00  0.11388135138E+03  0.11388135138E+03  0.00000000000E+00 0.  1.
         21   -1    0    0  502  503 -0.00000000000E+00 -0.00000000000E+00 -0.38062094990E+03  0.38062094990E+03  0.00000000000E+00 0.  1.
         -6    2    1    2    0  503 -0.11604075325E+03  0.10249322109E+02 -0.12589285652E+03  0.24324125361E+03  0.17247258076E+03 0.  0.
        -24    2    3    3    0    0 -0.64047469478E+02  0.71960126853E+02 -0.94756758379E+02  0.15662098123E+03  0.79189331978E+02 0.  0.
          6    2    1    2  501    0  0.11604075325E+03 -0.10249322109E+02 -0.14084674201E+03  0.25126104767E+03  0.17240592891E+03 0.  0.
         24    2    5    5    0    0  0.59021082052E+02 -0.49351179238E+02 -0.14379296901E+03  0.18189990301E+03  0.80573753545E+02 0.  0.
          5    1    5    5  501    0  0.57019671202E+02  0.39101857129E+02  0.29462270020E+01  0.69361144659E+02  0.47000000000E+01 0. -1.
        -11    1    6    6    0    0  0.76128711931E+02 -0.54397761413E+02 -0.12033242439E+03  0.15242896571E+03  0.00000000000E+00 0.  1.
         12    1    6    6    0    0 -0.17107629879E+02  0.50465821754E+01 -0.23460544621E+02  0.29470937305E+02  0.00000000000E+00 0. -1.
         -5    1    3    3    0  503 -0.51993283775E+02 -0.61710804744E+02 -0.31136098137E+02  0.86620272379E+02  0.47000000000E+01 0.  1.
         13    1    4    4    0    0 -0.52358960248E+02  0.51931199102E+02 -0.10734435813E+03  0.13023487006E+03  0.00000000000E+00 0. -1.
        -14    1    4    4    0    0 -0.11688509230E+02  0.20028927751E+02  0.12587599750E+02  0.26386111164E+02  0.00000000000E+00 0.  1.
</event>
<event>
12    1  0.1623092E-001  0.1871086E+03  0.7818608E-02  0.1161513E+00
         21   -1    0    0  501  502  0.00000000000E+00  0.00000000000E+00  0.11444334243E+04  0.11444334243E+04  0.00000000000E+00 0. -1.
         21   -1    0    0  502  503 -0.00000000000E+00 -0.00000000000E+00 -0.40362455731E+02  0.40362455731E+02  0.00000000000E+00 0.  1.
         -6    2    1    2    0  503 -0.71732569242E+02  0.11016864684E+01  0.25418751880E+03  0.31455941970E+03  0.17084952036E+03 0.  0.
        -24    2    3    3    0    0 -0.38757715569E+02  0.41906467970E+02  0.24232593095E+03  0.26056721253E+03  0.76909705912E+02 0.  0.
          6    2    1    2  501    0  0.71732569242E+02 -0.11016864684E+01  0.84988344973E+03  0.87023646029E+03  0.17280869043E+03 0.  0.
         24    2    5    5    0    0  0.96397541104E+02 -0.30328844146E+02  0.40950379320E+03  0.42817433856E+03  0.73672130667E+02 0.  0.
          5    1    5    5  501    0 -0.24664971862E+02  0.29227157678E+02  0.44037965653E+03  0.44206212173E+03  0.47000000000E+01 0. -1.
        -13    1    6    6    0    0  0.24558064345E+02  0.40186470603E+01  0.24140035975E+02  0.34669718566E+02  0.00000000000E+00 0.  1.
         14    1    6    6    0    0  0.71839476759E+02 -0.34347491206E+02  0.38536375723E+03  0.39350461999E+03  0.00000000000E+00 0. -1.
         -5    1    3    3    0  503 -0.32974853673E+02 -0.40804781502E+02  0.11861587846E+02  0.53992207164E+02  0.47000000000E+01 0.  1.
         11    1    4    4    0    0 -0.27377765207E+02 -0.51985091405E+01  0.17726454502E+03  0.17944159342E+03  0.00000000000E+00 0. -1.
        -12    1    4    4    0    0 -0.11379950362E+02  0.47104977110E+02  0.65061385925E+02  0.81125619118E+02  0.00000000000E+00 0.  1.
</event>
<event>
12    1  0.1623092E-001  0.2028887E+03  0.7818608E-02  0.1147780E+00
         21   -1    0    0  503  502  0.00000000000E+00  0.00000000000E+00  0.95444411936E+02  0.95444411936E+02  0.00000000000E+00 0. -1.
         21   -1    0    0  501  503 -0.00000000000E+00 -0.00000000000E+00 -0.53893740282E+03  0.53893740282E+03  0.00000000000E+00 0. -1.
          6    2    1    2  501    0 -0.96697301229E+02 -0.44342810983E+02 -0.77914774998E+02  0.21733510056E+03  0.17276336655E+03 0.  0.
         24    2    3    3    0    0 -0.45232661760E+01 -0.20750901540E+02 -0.91226879318E+02  0.12114813132E+03  0.76834018254E+02 0.  0.
         -6    2    1    2    0  502  0.96697301229E+02  0.44342810983E+02 -0.36557821588E+03  0.41704671420E+03  0.17018776966E+03 0.  0.
        -24    2    5    5    0    0  0.52162666159E+02 -0.28911569125E+02 -0.11052449497E+03  0.14792958640E+03  0.78170812788E+02 0.  0.
          5    1    3    3  501    0 -0.92174035053E+02 -0.23591909444E+02  0.13312104320E+02  0.96186969235E+02  0.47000000000E+01 0. -1.
        -11    1    4    4    0    0  0.95677346460E+01  0.71578806084E+01  0.97625706689E+01  0.15429989861E+02  0.00000000000E+00 0.  1.
         12    1    4    4    0    0 -0.14091000822E+02 -0.27908782148E+02 -0.10098944999E+03  0.10571814146E+03  0.00000000000E+00 0. -1.
         -5    1    5    5    0  502  0.44534635070E+02  0.73254380108E+02 -0.25505372091E+03  0.26911712780E+03  0.47000000000E+01 0.  1.
         13    1    6    6    0    0  0.21857745707E+01 -0.45152999336E+02 -0.59074060068E+02  0.74386259030E+02  0.00000000000E+00 0. -1.
        -14    1    6    6    0    0  0.49976891588E+02  0.16241430211E+02 -0.51450434905E+02  0.73543327366E+02  0.00000000000E+00 0.  1.
</event>
<event>
12    1  0.1623092E-001  0.1819410E+03  0.7818608E-02  0.1166071E+00
         21   -1    0    0  503  502  0.00000000000E+00  0.00000000000E+00  0.53161532378E+03  0.53161532378E+03  0.00000000000E+00 0. -1.
         21   -1    0    0  501  503 -0.00000000000E+00 -0.00000000000E+00 -0.64216341028E+02  0.64216341028E+02  0.00000000000E+00 0.  1.
          6    2    1    2  501    0 -0.24374150957E+02  0.52662499251E+02  0.28842731726E+03  0.34101739080E+03  0.17243870048E+03 0.  0.
         24    2    3    3    0    0 -0.44860525531E+02  0.20018121225E+02  0.61999156818E+02  0.11128461386E+03  0.78276292110E+02 0.  0.
         -6    2    1    2    0  502  0.24374150957E+02 -0.52662499251E+02  0.17897166549E+03  0.25481427401E+03  0.17184882638E+03 0.  0.
        -24    2    5    5    0    0  0.30383082346E+02 -0.99987120014E+02  0.14995341419E+03  0.19877967849E+03  0.78145878269E+02 0.  0.
          5    1    3    3  501    0  0.20486374574E+02  0.32644378026E+02  0.22642816044E+03  0.22973277694E+03  0.47000000000E+01 0. -1.
        -11    1    4    4    0    0  0.22136004413E+02  0.19901802730E+01  0.90018973323E+01  0.23979108918E+02  0.00000000000E+00 0.  1.
         12    1    4    4    0    0 -0.66996529944E+02  0.18027940952E+02  0.52997259485E+02  0.87305504938E+02  0.00000000000E+00 0. -1.
         -5    1    5    5    0  502 -0.60089313894E+01  0.47324620763E+02  0.29018251297E+02  0.56034595520E+02  0.47000000000E+01 0.  1.
         11    1    6    6    0    0 -0.17698630914E+02 -0.71871450441E+02  0.74755136429E+02  0.10520017751E+03  0.00000000000E+00 0. -1.
        -12    1    6    6    0    0  0.48081713260E+02 -0.28115669573E+02  0.75198277761E+02  0.93579500981E+02  0.00000000000E+00 0.  1.
</event>
<event>
12    1  0.1623092E-001  0.1774086E+03  0.7818608E-02  0.1170480E+00
         21   -1    0    0  503  502  0.00000000000E+00  0.00000000000E+00  0.76069988586E+02  0.76069988586E+02  0.00000000000E+00 0. -1.
         21   -1    0    0  501  503 -0.00000000000E+00 -0.00000000000E+00 -0.55693199534E+03  0.55693199534E+03  0.00000000000E+00 0. -1.
          6    2    1    2  501    0  0.39468350909E+02  0.24316608401E+02 -0.78886579914E+02  0.19361826702E+03  0.17063379697E+03 0.  0.
         24    2    3    3    0    0  0.22301290977E+02 -0.52542829086E+01  0.23047265431E+02  0.85999753810E+02  0.79623025209E+02 0.  0.
         -6    2    1    2    0  502 -0.39468350909E+02 -0.24316608401E+02 -0.40197542683E+03  0.43938371690E+03  0.17124473343E+03 0.  0.
        -24    2    5    5    0    0 -0.63375892668E+02  0.84548340021E+01 -0.37921825807E+03  0.39263420652E+03  0.79165301035E+02 0.  0.
          5    1    3    3  501    0  0.17167059932E+02  0.29570891310E+02 -0.10193384534E+03  0.10761851321E+03  0.47000000000E+01 0. -1.
        -13    1    4    4    0    0 -0.74366801467E+01  0.21247835225E+02 -0.17984202205E+02  0.28813299746E+02  0.00000000000E+00 0.  1.
         14    1    4    4    0    0  0.29737971124E+02 -0.26502118133E+02  0.41031467635E+02  0.57186454064E+02  0.00000000000E+00 0. -1.
         -5    1    5    5    0  502  0.23907541758E+02 -0.32771442404E+02 -0.22757168765E+02  0.46749510375E+02  0.47000000000E+01 0.  1.
         11    1    6    6    0    0 -0.32129678739E+02 -0.15722860657E+02 -0.31646328161E+03  0.31847846585E+03  0.00000000000E+00 0. -1.
        -12    1    6    6    0    0 -0.31246213929E+02  0.24177694660E+02 -0.62754976457E+02  0.74155740668E+02  0.00000000000E+00 0.  1.
</event>
<event>
12    1  0.1623092E-001  0.2058759E+03  0.7818608E-02  0.1145534E+00
         21   -1    0    0  501  502  0.00000000000E+00  0.00000000000E+00  0.48279556043E+03  0.48279556043E+03  0.00000000000E+00 0. -1.
         21   -1    0    0  502  503 -0.00000000000E+00 -0.00000000000E+00 -0.15008142913E+03  0.15008142913E+03  0.00000000000E+00 0. -1.
         -6    2    1    2    0  503  0.94771497622E+02 -0.58912274487E+02 -0.38973836577E+02  0.20953241608E+03  0.17301034825E+03 0.  0.
        -24    2    3    3    0    0  0.11181574753E+03 -0.87684103617E+02 -0.55801680435E+02  0.17180191203E+03  0.78808667130E+02 0.  0.
          6    2    1    2  501    0 -0.94771497622E+02  0.58912274487E+02  0.37168796788E+03  0.42334457348E+03  0.16916379512E+03 0.  0.
         24    2    5    5    0    0 -0.42109347404E+02  0.49838568606E+02  0.34881190163E+03  0.36502614919E+03  0.85541024166E+02 0.  0.
          5    1    5    5  501    0 -0.52662150218E+02  0.90737058814E+01  0.22876066247E+02  0.58318424284E+02  0.47000000000E+01 0. -1.
        -11    1    6    6    0    0  0.15439969462E+02  0.10827384687E+02  0.19872707356E+03  0.19961982537E+03  0.00000000000E+00 0.  1.
         12    1    6    6    0    0 -0.57549316866E+02  0.39011183919E+02  0.15008482808E+03  0.16540632382E+03  0.00000000000E+00 0. -1.
         -5    1    3    3    0  503 -0.17044249912E+02  0.28771829130E+02  0.16827843858E+02  0.37730504044E+02  0.47000000000E+01 0.  1.
         11    1    4    4    0    0  0.41813518428E+02 -0.12840929357E+02 -0.53755602128E+02  0.69303135213E+02  0.00000000000E+00 0. -1.
        -12    1    4    4    0    0  0.70002229106E+02 -0.74843174260E+02 -0.20460783063E+01  0.10249877682E+03  0.00000000000E+00 0.  1.
</event>
<event>
12    1  0.1623092E-001  0.2253596E+03  0.7818608E-02  0.1130239E+00
         21   -1    0    0  503  502  0.00000000000E+00  0.00000000000E+00  0.21439443756E+03  0.21439443756E+03  0.00000000000E+00 0. -1.
         21   -1    0    0  501  503 -0.00000000000E+00 -0.00000000000E+00 -0.23967352219E+03  0.23967352219E+03  0.00000000000E+00 0.  1.
          6    2    1    2  501    0 -0.13237429695E+03  0.59307610233E+02  0.18388688422E+02  0.22451662194E+03  0.17037964238E+03 0.  0.
         24    2    3    3    0    0 -0.11807161986E+03  0.84924926127E+02  0.57030879920E+02  0.17577113589E+03  0.80559421884E+02 0.  0.
         -6    2    1    2    0  502  0.13237429695E+03 -0.59307610233E+02 -0.43667773053E+02  0.22955133782E+03  0.17247201270E+03 0.  0.
        -24    2    5    5    0    0  0.73369932658E+02 -0.73422591748E+02  0.28817946033E+02  0.13490981849E+03  0.81216753904E+02 0.  0.
          5    1    3    3  501    0 -0.14302677091E+02 -0.25617315893E+02 -0.38642191499E+02  0.48745486041E+02  0.47000000000E+01 0. -1.
        -11    1    4    4    0    0 -0.11499604660E+03  0.80989138315E+02  0.24392397230E+02  0.14275265427E+03  0.00000000000E+00 0.  1.
         12    1    4    4    0    0 -0.30755732678E+01  0.39357878113E+01  0.32638482691E+02  0.33018481628E+02  0.00000000000E+00 0. -1.
         -5    1    5    5    0  502  0.59004364295E+02  0.14114981515E+02 -0.72485719086E+02  0.94641519327E+02  0.47000000000E+01 0.  1.
         13    1    6    6    0    0  0.12870469238E+02  0.16715645387E+02 -0.40550201076E+01  0.21482666668E+02  0.00000000000E+00 0. -1.
        -14    1    6    6    0    0  0.60499463420E+02 -0.90138237135E+02  0.32872966140E+02  0.11342715182E+03  0.00000000000E+00 0.  1.
</event>
<event>
12    1  0.1623092E-001  0.3937989E+03  0.7818608E-02  0.1046165E+00
         21   -1    0    0  503  502  0.00000000000E+00  0.00000000000E+00  0.93922962604E+03  0.93922962604E+03  0.00000000000E+00 0.  1.
         21   -1    0    0  501  503 -0.00000000000E+00 -0.00000000000E+00 -0.17781105216E+03  0.17781105216E+03  0.00000000000E+00 0. -1.
          6    2    1    2  501    0  0.13514637540E+03 -0.32419859798E+03  0.22663472302E+03  0.45435763501E+03  0.17806821475E+03 0.  0.
         24    2    3    3    0    0  0.10623544206E+03 -0.24727305129E+03  0.90884847480E+02  0.29560153117E+03  0.81794123771E+02 0.  0.
         -6    2    1    2    0  502 -0.13514637540E+03  0.32419859798E+03  0.53478385086E+03  0.66268304318E+03  0.17258555811E+03 0.  0.
        -24    2    5    5    0    0 -0.11587125129E+03  0.14998324406E+03  0.34332465012E+03  0.40306556400E+03  0.93106998282E+02 0.  0.
          5    1    3    3  501    0  0.28910933339E+02 -0.76925546689E+02  0.13574987554E+03  0.15875610385E+03  0.47000000000E+01 0. -1.
        -13    1    4    4    0    0  0.13148349959E+02 -0.30920957167E+02  0.44150011188E+02  0.55481602236E+02  0.00000000000E+00 0.  1.
         14    1    4    4    0    0  0.93087092104E+02 -0.21635209412E+03  0.46734836292E+02  0.24011992893E+03  0.00000000000E+00 0. -1.
         -5    1    5    5    0  502 -0.19275124114E+02  0.17421535391E+03  0.19145920073E+03  0.25961747918E+03  0.47000000000E+01 0.  1.
         11    1    6    6    0    0 -0.44309446659E+02  0.57985972748E+02  0.52922518143E+02  0.90147063321E+02  0.00000000000E+00 0. -1.
        -12    1    6    6    0    0 -0.71561804629E+02  0.91997271313E+02  0.29040213198E+03  0.31291850068E+03  0.00000000000E+00 0.  1.
</event>
<event>
12    1  0.1623092E-001  0.2656650E+03  0.7818608E-02  0.1104159E+00
         21   -1    0    0  503  502  0.00000000000E+00  0.00000000000E+00  0.59352510347E+02  0.59352510347E+02  0.00000000000E+00 0. -1.
         21   -1    0    0  501  503 -0.00000000000E+00 -0.00000000000E+00 -0.12653375188E+04  0.12653375188E+04  0.00000000000E+00 0.  1.
          6    2    1    2  501    0 -0.16777071975E+03  0.10552567593E+03 -0.43147689354E+03  0.50670522371E+03  0.17690446966E+03 0.  0.
         24    2    3    3    0    0 -0.88041890292E+02 -0.15320065624E+02 -0.17334244674E+03  0.21070545660E+03  0.79769083887E+02 0.  0.
         -6    2    1    2    0  502  0.16777071975E+03 -0.10552567593E+03 -0.77450811490E+03  0.81798480543E+03  0.17307119684E+03 0.  0.
        -24    2    5    5    0    0  0.23064205756E+02 -0.18321759333E+02 -0.36297250452E+03  0.37309364247E+03  0.81130651196E+02 0.  0.
          5    1    3    3  501    0 -0.79728829463E+02  0.12084574156E+03 -0.25813444680E+03  0.29599976710E+03  0.47000000000E+01 0. -1.
        -11    1    4    4    0    0 -0.92106802946E+02 -0.28003359244E+02 -0.17226899836E+03  0.19734350527E+03  0.00000000000E+00 0.  1.
         12    1    4    4    0    0  0.40649126547E+01  0.12683293620E+02 -0.10734483807E+01  0.13361951331E+02  0.00000000000E+00 0. -1.
         -5    1    5    5    0  502  0.14470651400E+03 -0.87203916601E+02 -0.41153561038E+03  0.44489116296E+03  0.47000000000E+01 0.  1.
         11    1    6    6    0    0 -0.99136914383E+01 -0.40503491432E+02 -0.12360913052E+03  0.13045317644E+03  0.00000000000E+00 0. -1.
        -12    1    6    6    0    0  0.32977897194E+02  0.22181732099E+02 -0.23936337400E+03  0.24264046603E+03  0.00000000000E+00 0.  1.
</event>
<event>
12    1  0.1623092E-001  0.2876365E+03  0.7818608E-02  0.1091907E+00
         21   -1    0    0  501  502  0.00000000000E+00  0.00000000000E+00  0.59948188963E+03  0.59948188963E+03  0.00000000000E+00 0. -1.
         21   -1    0    0  502  503 -0.00000000000E+00 -0.00000000000E+00 -0.15588329413E+03  0.15588329413E+03  0.00000000000E+00 0. -1.
         -6    2    1    2    0  503 -0.17289106039E+03 -0.15360214788E+03  0.35453143193E+03  0.45653840312E+03  0.17102584221E+03 0.  0.
        -24    2    3    3    0    0 -0.39312708933E+02 -0.95919383269E+01  0.12584771853E+03  0.15504139284E+03  0.81010436803E+02 0.  0.
          6    2    1    2  501    0  0.17289106039E+03  0.15360214788E+03  0.89067163571E+02  0.29882678063E+03  0.16697169401E+03 0.  0.
         24    2    5    5    0    0  0.43634617512E+02  0.11148751037E+03  0.74966387725E+02  0.16207228309E+03  0.79460813263E+02 0.  0.
          5    1    5    5  501    0  0.12925644288E+03  0.42114637506E+02  0.14100775846E+02  0.13675449754E+03  0.47000000000E+01 0. -1.
        -11    1    6    6    0    0 -0.14192871568E+02  0.38478031199E+02 -0.22729712975E+01  0.41075088397E+02  0.00000000000E+00 0.  1.
         12    1    6    6    0    0  0.57827489080E+02  0.73009479172E+02  0.77239359023E+02  0.12099719470E+03  0.00000000000E+00 0. -1.
         -5    1    3    3    0  503 -0.13357835146E+03 -0.14401020955E+03  0.22868371340E+03  0.30149701028E+03  0.47000000000E+01 0.  1.
         13    1    4    4    0    0 -0.59481708926E+02 -0.25226399123E+02  0.96732442322E+02  0.11632544995E+03  0.00000000000E+00 0. -1.
        -14    1    4    4    0    0  0.20168999993E+02  0.15634460797E+02  0.29115276205E+02  0.38715942887E+02  0.00000000000E+00 0.  1.
</event>
<event>
12    1  0.1623092E-001  0.5771811E+03  0.7818608E-02  0.9954047E-01
         21   -1    0    0  503  502  0.00000000000E+00  0.00000000000E+00  0.19446658505E+03  0.19446658505E+03  0.00000000000E+00 0. -1.
         21   -1    0    0  501  503 -0.00000000000E+00 -0.00000000000E+00 -0.22286556502E+04  0.22286556502E+04  0.00000000000E+00 0.  1.
          6    2    1    2  501    0 -0.27026745945E+03 -0.47983526976E+03 -0.16000716980E+04  0.17009062370E+04  0.17194825607E+03 0.  0.
         24    2    3    3    0    0 -0.28199337000E+03 -0.39680530471E+03 -0.13502055992E+04  0.14373030705E+04  0.76224968714E+02 0.  0.
         -6    2    1    2    0  502  0.27026745945E+03  0.47983526976E+03 -0.43411736723E+03  0.72221599828E+03  0.17277636963E+03 0.  0.
        -24    2    5    5    0    0  0.12601693276E+03  0.35104072309E+03 -0.25043352224E+03  0.45546125209E+03  0.74954296011E+02 0.  0.
          5    1    3    3  501    0  0.11725910558E+02 -0.83029965053E+02 -0.24986609880E+03  0.26360316653E+03  0.47000000000E+01 0. -1.
        -13    1    4    4    0    0 -0.67958564486E+02 -0.46968097846E+02 -0.22417413478E+03  0.23891088591E+03  0.00000000000E+00 0.  1.
         14    1    4    4    0    0 -0.21403480552E+03 -0.34983720686E+03 -0.11260314644E+04  0.11983921846E+04  0.00000000000E+00 0. -1.
         -5    1    5    5    0  502  0.14425052669E+03  0.12879454667E+03 -0.18368384499E+03  0.26675474619E+03  0.47000000000E+01 0.  1.
         11    1    6    6    0    0 -0.58249335121E+01  0.22605953766E+02 -0.27837076837E+01  0.23509743183E+02  0.00000000000E+00 0. -1.
        -12    1    6    6    0    0  0.13184186627E+03  0.32843476932E+03 -0.24764981455E+03  0.43195150891E+03  0.00000000000E+00 0.  1.
</event>
<event>
12    1  0.1623092E-001  0.1995344E+03  0.7818608E-02  0.1150377E+00
         21   -1    0    0  501  502  0.00000000000E+00  0.00000000000E+00  0.31797280036E+03  0.31797280036E+03  0.00000000000E+00 0. -1.
         21   -1    0    0  502  503 -0.00000000000E+00 -0.00000000000E+00 -0.13668310238E+03  0.13668310238E+03  0.00000000000E+00 0. -1.
         -6    2    1    2    0  503 -0.91717572796E+02 -0.40998043731E+02  0.22985275790E+02  0.20085390999E+03  0.17239784659E+03 0.  0.
        -24    2    3    3    0    0 -0.12137315528E+03  0.29220579330E+01  0.26304716316E+02  0.14754783540E+03  0.79614347867E+02 0.  0.
          6    2    1    2  501    0  0.91717572796E+02  0.40998043731E+02  0.15830442219E+03  0.25380199274E+03  0.17106200246E+03 0.  0.
         24    2    5    5    0    0 -0.19003135682E+02  0.15595796374E+00  0.96718880840E+02  0.12060281797E+03  0.69493555839E+02 0.  0.
          5    1    5    5  501    0  0.11072070848E+03  0.40842085767E+02  0.61585541351E+02  0.13319917477E+03  0.47000000000E+01 0. -1.
        -11    1    6    6    0    0 -0.29374041838E+02 -0.30798750649E+01  0.10361011899E+03  0.10773753627E+03  0.00000000000E+00 0.  1.
         12    1    6    6    0    0  0.10370906157E+02  0.32358330286E+01 -0.68912381534E+01  0.12865281699E+02  0.00000000000E+00 0. -1.
         -5    1    3    3    0  503  0.29655582487E+02 -0.43920101664E+02 -0.33194405251E+01  0.53306074590E+02  0.47000000000E+01 0.  1.
         11    1    4    4    0    0 -0.72865275980E+02 -0.23140910339E+02 -0.15999270146E+02  0.78107789753E+02  0.00000000000E+00 0. -1.
        -12    1    4    4    0    0 -0.48507879303E+02  0.26062968272E+02  0.42303986461E+02  0.69440045651E+02  0.00000000000E+00 0.  1.
</event>
<event>
12    1  0.1623092E-001  0.2217287E+03  0.7818608E-02  0.1132888E+00
         21   -1    0    0  503  502  0.00000000000E+00  0.00000000000E+00  0.88383896984E+02  0.88383896984E+02  0.00000000000E+00 0. -1.
         21   -1    0    0  501  503 -0.00000000000E+00 -0.00000000000E+00 -0.55239984825E+03  0.55239984825E+03  0.00000000000E+00 0. -1.
          6    2    1    2  501    0 -0.10332502420E+03  0.91533015156E+02 -0.23512730833E+03  0.32318488469E+03  0.17352021519E+03 0.  0.
         24    2    3    3    0    0 -0.62919857386E+02  0.70556400670E+02 -0.52061239147E+02  0.13448440365E+03  0.80240688391E+02 0.  0.
         -6    2    1    2    0  502  0.10332502420E+03 -0.91533015156E+02 -0.22888864294E+03  0.31759886055E+03  0.17153621152E+03 0.  0.
        -24    2    5    5    0    0  0.12693890646E+03 -0.10545553152E+03 -0.22373750671E+03  0.28931324403E+03  0.80058267308E+02 0.  0.
          5    1    3    3  501    0 -0.40405166818E+02  0.20976614486E+02 -0.18306606918E+03  0.18870048104E+03  0.47000000000E+01 0. -1.
        -13    1    4    4    0    0  0.16102523567E+02 -0.25812338003E+01 -0.61046538659E+01  0.17413237263E+02  0.00000000000E+00 0.  1.
         14    1    4    4    0    0 -0.79022380954E+02  0.73137634470E+02 -0.45956585281E+02  0.11707116638E+03  0.00000000000E+00 0. -1.
         -5    1    5    5    0  502 -0.23613882257E+02  0.13922516364E+02 -0.51511362358E+01  0.28285616515E+02  0.47000000000E+01 0.  1.
         11    1    6    6    0    0  0.10491929660E+03 -0.53162695205E+02 -0.18952725988E+03  0.22305809377E+03  0.00000000000E+00 0. -1.
        -12    1    6    6    0    0  0.22019609865E+02 -0.52292836314E+02 -0.34210246831E+02  0.66255150265E+02  0.00000000000E+00 0.  1.
</event>
<event>
12    1  0.1623092E-001  0.1759471E+03  0.7818608E-02  0.1172939E+00
         21   -1    0    0  503  502  0.00000000000E+00  0.00000000000E+00  0.15250168000E+03  0.15250168000E+03  0.00000000000E+00 0. -1.
         21   -1    0    0  501  503 -0.00000000000E+00 -0.00000000000E+00 -0.31640694946E+03  0.31640694946E+03  0.00000000000E+00 0. -1.
          6    2    1    2  501    0 -0.15344790706E+02 -0.12113709070E+01 -0.22484138766E+03  0.28270822746E+03  0.17068497956E+03 0.  0.
         24    2    3    3    0    0 -0.49789614618E+02 -0.11181583613E+02 -0.56792621682E+02  0.11081195413E+03  0.80310981601E+02 0.  0.
         -6    2    1    2    0  502  0.15344790706E+02  0.12113709070E+01  0.60936118202E+02  0.18620040200E+03  0.17527249979E+03 0.  0.
        -24    2    5    5    0    0 -0.33671174549E+02 -0.49785720363E+02  0.57166528379E+02  0.11521048740E+03  0.79956728872E+02 0.  0.
          5    1    3    3  501    0  0.34444823912E+02  0.99702127064E+01 -0.16804876598E+03  0.17189627332E+03  0.47000000000E+01 0. -1.
        -13    1    4    4    0    0  0.48867893923E+01  0.25776225007E+02 -0.45180044231E+01  0.26621548606E+02  0.00000000000E+00 0.  1.
         14    1    4    4    0    0 -0.54676404010E+02 -0.36957808621E+02 -0.52274617258E+02  0.84190405529E+02  0.00000000000E+00 0. -1.
         -5    1    5    5    0  502  0.49015965255E+02  0.50997091270E+02  0.37695898227E+01  0.70989914603E+02  0.47000000000E+01 0.  1.
         11    1    6    6    0    0  0.12076783746E+02 -0.18301904535E+02  0.55473496150E+02  0.59649955493E+02  0.00000000000E+00 0. -1.
        -12    1    6    6    0    0 -0.45747958295E+02 -0.31483815828E+02  0.16930322287E+01  0.55560531904E+02  0.00000000000E+00 0.  1.
</event>
<event>
12    1  0.1623092E-001  0.2472873E+03  0.7818608E-02  0.1115145E+00
         21   -1    0    0  501  502  0.00000000000E+00  0.00000000000E+00  0.10081810580E+04  0.10081810580E+04  0.00000000000E+00 0.  1.
         21   -1    0    0  502  503 -0.00000000000E+00 -0.00000000000E+00 -0.96216181121E+02  0.96216181121E+02  0.00000000000E+00 0. -1.
         -6    2    1    2    0  503  0.17486027241E+03  0.27923297590E+02  0.11986963692E+03  0.27480858070E+03  0.17261286382E+03 0.  0.
        -24    2    3    3    0    0  0.10835198820E+03 -0.68348838073E+01 -0.27902061871E+01  0.13093707500E+03  0.73142760238E+02 0.  0.
          6    2    1    2  501    0 -0.17486027241E+03 -0.27923297590E+02  0.79209523996E+03  0.82958865842E+03  0.17160025522E+03 0.  0.
         24    2    5    5    0    0 -0.81203350666E+02 -0.35518031705E+02  0.63754215981E+03  0.64865208511E+03  0.80212263685E+02 0.  0.
          5    1    5    5  501    0 -0.93656921743E+02  0.75947341148E+01  0.15455308015E+03  0.18093657331E+03  0.47000000000E+01 0. -1.
        -13    1    6    6    0    0 -0.93875045503E+02 -0.43340126544E+02  0.58376770209E+03  0.59285379373E+03  0.00000000000E+00 0.  1.
         14    1    6    6    0    0  0.12671694837E+02  0.78220948395E+01  0.53774457726E+02  0.55798291384E+02  0.00000000000E+00 0. -1.
         -5    1    3    3    0  503  0.66508284207E+02  0.34758181397E+02  0.12265984311E+03  0.14387150570E+03  0.47000000000E+01 0.  1.
         13    1    4    4    0    0  0.22430315117E+01 -0.96073452904E+01 -0.21036526292E+02  0.23235053525E+02  0.00000000000E+00 0. -1.
        -14    1    4    4    0    0  0.10610895669E+03  0.27724614831E+01  0.18246320105E+02  0.10770202148E+03  0.00000000000E+00 0.  1.
</event>
<event>
12    1  0.1623092E-001  0.2159054E+03  0.7818608E-02  0.1137027E+00
         21   -1    0    0  503  502  0.00000000000E+00  0.00000000000E+00  0.11926999271E+03  0.11926999271E+03  0.00000000000E+00 0.  1.
         21   -1    0    0  501  503 -0.00000000000E+00 -0.00000000000E+00 -0.39140177659E+03  0.39140177659E+03  0.00000000000E+00 0.  1.
          6    2    1    2  501    0  0.86391778553E+02 -0.95571171879E+02 -0.14935724839E+03  0.26229959845E+03  0.17290489700E+03 0.  0.
         24    2    3    3    0    0  0.10954970229E+03 -0.12042237518E+03 -0.11977756816E+03  0.21701252281E+03  0.79025840759E+02 0.  0.
         -6    2    1    2    0  502 -0.86391778553E+02  0.95571171879E+02 -0.12277453549E+03  0.24837217085E+03  0.17325634301E+03 0.  0.
        -24    2    5    5    0    0  0.83850807274E+01  0.22946372298E+02 -0.65377286102E+02  0.11580690841E+03  0.92413229123E+02 0.  0.
          5    1    3    3  501    0 -0.23157923736E+02  0.24851203305E+02 -0.29579680233E+02  0.45287075641E+02  0.47000000000E+01 0. -1.
        -13    1    4    4    0    0  0.57828589872E+02 -0.72695126478E+02 -0.11304432641E+03  0.14631386453E+03  0.00000000000E+00 0.  1.
         14    1    4    4    0    0  0.51721112417E+02 -0.47727248705E+02 -0.67332417476E+01  0.70698658284E+02  0.00000000000E+00 0. -1.
         -5    1    5    5    0  502 -0.94776859281E+02  0.72624799580E+02 -0.57397249389E+02  0.13256526244E+03  0.47000000000E+01 0.  1.
         13    1    6    6    0    0  0.12340355574E+01 -0.35506586530E+02 -0.16035512485E+02  0.38979202037E+02  0.00000000000E+00 0. -1.
        -14    1    6    6    0    0  0.71510451700E+01  0.58452958829E+02 -0.49341773617E+02  0.76827706373E+02  0.00000000000E+00 0.  1.
</event>
<event>
12    1  0.1623092E-001  0.1846738E+03  0.7818608E-02  0.1163925E+00
         21   -1    0    0  503  502  0.00000000000E+00  0.00000000000E+00  0.12426786589E+03  0.12426786589E+03  0.00000000000E+00 0. -1.
         21   -1    0    0  501  503 -0.00000000000E+00 -0.00000000000E+00 -0.30987689439E+03  0.30987689439E+03  0.00000000000E+00 0. -1.
          6    2    1    2  501    0 -0.65308075614E+02 -0.95548104165E+01 -0.16315630996E+02  0.18539309963E+03  0.17247597640E+03 0.  0.
         24    2    3    3    0    0 -0.78145007411E+02  0.44978390040E+02  0.10095149979E+02  0.12327807632E+03  0.83461813383E+02 0.  0.
         -6    2    1    2    0  502  0.65308075614E+02  0.95548104165E+01 -0.16929339750E+03  0.24875166065E+03  0.16988435801E+03 0.  0.
        -24    2    5    5    0    0  0.28049839991E+02  0.69208348400E+02 -0.12418338906E+03  0.16506340833E+03  0.79043188439E+02 0.  0.
          5    1    3    3  501    0  0.12836931796E+02 -0.54533200457E+02 -0.26410780975E+02  0.62115023317E+02  0.47000000000E+01 0. -1.
        -13    1    4    4    0    0 -0.31352128586E+02 -0.20290438379E+02 -0.13279979440E+02  0.39636040549E+02  0.00000000000E+00 0.  1.
         14    1    4    4    0    0 -0.46792878824E+02  0.65268828419E+02  0.23375129419E+02  0.83642035767E+02  0.00000000000E+00 0. -1.
         -5    1    5    5    0  502  0.37258235624E+02 -0.59653537983E+02 -0.45110008442E+02  0.83688252326E+02  0.47000000000E+01 0.  1.
         11    1    6    6    0    0  0.23164000458E+02  0.54042008311E+02 -0.13401118680E+03  0.14634243325E+03  0.00000000000E+00 0. -1.
        -12    1    6    6    0    0  0.48858395324E+01  0.15166340089E+02  0.98277977424E+01  0.18720975084E+02  0.00000000000E+00 0.  1.
</event>
<event>
12    1  0.1623092E-001  0.2414542E+03  0.7818608E-02  0.1119992E+00
         21   -1    0    0  501  502  0.00000000000E+00  0.00000000000E+00  0.14125799512E+03  0.14125799512E+03  0.00000000000E+00 0.  1.
         21   -1    0    0  502  503 -0.00000000000E+00 -0.00000000000E+00 -0.50272014697E+03  0.50272014697E+03  0.00000000000E+00 0. -1.
         -6    2    1    2    0  503 -0.14657045496E+03 -0.84045575048E+02 -0.32769236730E+03  0.40704106880E+03  0.17249228142E+03 0.  0.
        -24    2    3    3    0    0 -0.30883767124E+02 -0.43333437965E+02 -0.23292632236E+03  0.25198114128E+03  0.80051420940E+02 0.  0.
          6    2    1    2  501    0  0.14657045496E+03  0.84045575048E+02 -0.33769784545E+02  0.23693707329E+03  0.16264138895E+03 0.  0.
         24    2    5    5    0    0  0.15756790512E+03  0.95874597101E+02 -0.24399805423E+01  0.20137703544E+03  0.80790926499E+02 0.  0.
          5    1    5    5  501    0 -0.10997450168E+02 -0.11829022053E+02 -0.31329804003E+02  0.35560037848E+02  0.47000000000E+01 0. -1.
        -11    1    6    6    0    0  0.73366972630E+02  0.91070837386E+02 -0.41714414089E+01  0.11702141265E+03  0.00000000000E+00 0.  1.
         12    1    6    6    0    0  0.84200932494E+02  0.48037597150E+01  0.17314608666E+01  0.84355622794E+02  0.00000000000E+00 0. -1.
         -5    1    3    3    0  503 -0.11568668783E+03 -0.40712137083E+02 -0.94766044938E+02  0.15505992751E+03  0.47000000000E+01 0.  1.
         13    1    4    4    0    0 -0.33043110102E+02 -0.43591648154E+01 -0.28474861226E+02  0.43836824303E+02  0.00000000000E+00 0. -1.
        -14    1    4    4    0    0  0.21593429783E+01 -0.38974273149E+02 -0.20445146114E+03  0.20814431698E+03  0.00000000000E+00 0.  1.
</event>
<event>
12    1  0.1623092E-001  0.1893851E+03  0.7818608E-02  0.1159188E+00
         21   -1    0    0  501  502  0.00000000000E+00  0.00000000000E+00  0.20749869613E+03  0.20749869613E+03  0.00000000000E+00 0.  1.
         21   -1    0    0  502  503 -0.00000000000E+00 -0.00000000000E+00 -0.24202827390E+03  0.24202827390E+03  0.00000000000E+00 0. -1.
         -6    2    1    2    0  503  0.73743136833E+02  0.26041781175E+02 -0.13799632985E+03  0.23372132772E+03  0.17165793714E+03 0.  0.
        -24    2    3    3    0    0  0.11273111562E+03  0.36098177646E+02 -0.82720750207E+02  0.16517445831E+03  0.80177904097E+02 0.  0.
          6    2    1    2  501    0 -0.73743136833E+02 -0.26041781175E+02  0.10346675208E+03  0.21580564232E+03  0.17248327998E+03 0.  0.
         24    2    5    5    0    0 -0.48261822609E+02  0.43769168758E+02  0.96348055799E+02  0.14100168559E+03  0.79709371014E+02 0.  0.
          5    1    5    5  501    0 -0.25481314223E+02 -0.69810949933E+02  0.71186962827E+01  0.74803956726E+02  0.47000000000E+01 0. -1.
        -11    1    6    6    0    0 -0.16721231053E+02  0.33203570274E+02  0.10080452274E+03  0.10744127909E+03  0.00000000000E+00 0.  1.
         12    1    6    6    0    0 -0.31540591557E+02  0.10565598485E+02 -0.44564669405E+01  0.33560406504E+02  0.00000000000E+00 0. -1.
         -5    1    3    3    0  503 -0.38987978792E+02 -0.10056396471E+02 -0.55275579646E+02  0.68546869407E+02  0.47000000000E+01 0.  1.
         13    1    4    4    0    0  0.13106247404E+02 -0.17859843558E+02 -0.36737957781E+02  0.42900178029E+02  0.00000000000E+00 0. -1.
        -14    1    4    4    0    0  0.99624868220E+02  0.53958021204E+02 -0.45982792426E+02  0.12227428029E+03  0.00000000000E+00 0.  1.
</event>
<event>
12    1  0.1623092E-001  0.1960389E+03  0.7818608E-02  0.1153277E+00
         21   -1    0    0  501  502  0.00000000000E+00  0.00000000000E+00  0.25017561318E+03  0.25017561318E+03  0.00000000000E+00 0.  1.
         21   -1    0    0  502  503 -0.00000000000E+00 -0.00000000000E+00 -0.15991644346E+03  0.15991644346E+03  0.00000000000E+00 0.  1.
         -6    2    1    2    0  503 -0.75863161753E+02 -0.52457891785E+02  0.87646222444E+02  0.21473967639E+03  0.17298618033E+03 0.  0.
        -24    2    3    3    0    0 -0.49939451069E+02  0.16512032286E+02  0.10065143095E+03  0.13977225246E+03  0.81479911764E+02 0.  0.
          6    2    1    2  501    0  0.75863161753E+02  0.52457891785E+02  0.26129472783E+01  0.19535238025E+03  0.17218790682E+03 0.  0.
         24    2    5    5    0    0 -0.26948036700E+02  0.16171822175E+02  0.80654988648E+01  0.86088288738E+02  0.79739680659E+02 0.  0.
          5    1    5    5  501    0  0.10281119845E+03  0.36286069610E+02 -0.54525515864E+01  0.10926409151E+03  0.47000000000E+01 0. -1.
        -11    1    6    6    0    0 -0.21486939592E+02 -0.53286988548E+01 -0.32810721682E+02  0.39580639987E+02  0.00000000000E+00 0.  1.
         12    1    6    6    0    0 -0.54610971083E+01  0.21500521030E+02  0.40876220547E+02  0.46507648751E+02  0.00000000000E+00 0. -1.
         -5    1    3    3    0  503 -0.25923710683E+02 -0.68969924071E+02 -0.13005208511E+02  0.74967423928E+02  0.47000000000E+01 0.  1.
         13    1    4    4    0    0 -0.46339352364E+02 -0.13906769963E+02  0.17989316922E+02  0.51617335766E+02  0.00000000000E+00 0. -1.
        -14    1    4    4    0    0 -0.36000987060E+01  0.30418802249E+02  0.82662114033E+02  0.88154916694E+02  0.00000000000E+00 0.  1.
</event>
<event>
12    1  0.1623092E-001  0.2311207E+03  0.7818608E-02  0.1125871E+00
         21   -1    0    0  503  502  0.00000000000E+00  0.00000000000E+00  0.16552878038E+03  0.16552878038E+03  0.00000000000E+00 0.  1.
         21   -1    0    0  501  503 -0.00000000000E+00 -0.00000000000E+00 -0.42266589315E+03  0.42266589315E+03  0.00000000000E+00 0.  1.
          6    2    1    2  501    0  0.15175110188E+03 -0.29284292643E+02 -0.27167337883E+03  0.35661727864E+03  0.17170757684E+03 0.  0.
         24    2    3    3    0    0  0.11946357832E+03 -0.62678952777E+00 -0.90664275873E+02  0.17047184621E+03  0.81047517044E+02 0.  0.
         -6    2    1    2    0  502 -0.15175110188E+03  0.29284292643E+02  0.14536266057E+02  0.23157739489E+03  0.17184533766E+03 0.  0.
        -24    2    5    5    0    0 -0.59602864517E+01  0.30994223217E+01  0.60269863227E+01  0.83135126181E+02  0.82643772952E+02 0.  0.
          5    1    3    3  501    0  0.32287523559E+02 -0.28657503115E+02 -0.18100910296E+03  0.18614543244E+03  0.47000000000E+01 0. -1.
        -11    1    4    4    0    0  0.84444197663E+02  0.62921869767E+01 -0.10241781726E+03  0.13289026837E+03  0.00000000000E+00 0.  1.
         12    1    4    4    0    0  0.35019380659E+02 -0.69189765045E+01  0.11753541384E+02  0.37581577836E+02  0.00000000000E+00 0. -1.
         -5    1    5    5    0  502 -0.14579081543E+03  0.26184870321E+02  0.85092797339E+01  0.14844226871E+03  0.47000000000E+01 0.  1.
         11    1    6    6    0    0 -0.22505258501E+02  0.13597807991E+02 -0.31359823489E+02  0.40924632822E+02  0.00000000000E+00 0. -1.
        -12    1    6    6    0    0  0.16544972049E+02 -0.10498385669E+02  0.37386809811E+02  0.42210493360E+02  0.00000000000E+00 0.  1.
</event>
<event>
12    1  0.1623092E-001  0.3032274E+03  0.7818608E-02  0.1084038E+00
         21   -1    0    0  503  502  0.00000000000E+00  0.00000000000E+00  0.60758083628E+03  0.60758083628E+03  0.00000000000E+00 0.  1.
         21   -1    0    0  501  503 -0.00000000000E+00 -0.00000000000E+00 -0.17263064048E+03  0.17263064048E+03  0.00000000000E+00 0.  1.
          6    2    1    2  501    0  0.22162985975E+03  0.10283682408E+03  0.76390301464E+02  0.31270170025E+03  0.17958749417E+03 0.  0.
         24    2    3    3    0    0  0.18621310186E+03  0.14260469101E+03  0.50566186993E+02  0.25333163315E+03  0.81293049439E+02 0.  0.
         -6    2    1    2    0  502 -0.22162985975E+03 -0.10283682408E+03  0.35855989434E+03  0.46750977652E+03  0.17408327374E+03 0.  0.
        -24    2    5    5    0    0 -0.85800880420E+02  0.54652963380E+01  0.91084870033E+02  0.14853667493E+03  0.79843783132E+02 0.  0.
          5    1    3    3  501    0  0.35416757894E+02 -0.39767866924E+02  0.25824114471E+02  0.59370067101E+02  0.47000000000E+01 0. -1.
        -13    1    4    4    0    0  0.18298306013E+03  0.10689823760E+03  0.48625252493E+02  0.21742688122E+03  0.00000000000E+00 0.  1.
         14    1    4    4    0    0  0.32300417275E+01  0.35706453409E+02  0.19409344994E+01  0.35904751933E+02  0.00000000000E+00 0. -1.
         -5    1    5    5    0  502 -0.13582897933E+03 -0.10830212042E+03  0.26747502430E+03  0.31897310159E+03  0.47000000000E+01 0.  1.
         11    1    6    6    0    0 -0.81438089138E+02  0.15709664585E+02  0.10299113841E+03  0.13223513343E+03  0.00000000000E+00 0. -1.
        -12    1    6    6    0    0 -0.43627912822E+01 -0.10244368246E+02 -0.11906268373E+02  0.16301541495E+02  0.00000000000E+00 0.  1.
</event>
<event>
12    1  0.1623092E-001  0.2117796E+03  0.7818608E-02  0.1140634E+00
         21   -1    0    0  503  502  0.00000000000E+00  0.00000000000E+00  0.49071537146E+03  0.49071537146E+03  0.00000000000E+00 0. -1.
         21   -1    0    0  501  503 -0.00000000000E+00 -0.00000000000E+00 -0.10729856446E+03  0.10729856446E+03  0.00000000000E+00 0. -1.
          6    2    1    2  501    0  0.68327896265E+01 -0.12415326958E+03  0.30954889567E+03  0.37372156256E+03  0.16848313314E+03 0.  0.
         24    2    3    3    0    0 -0.23232608488E+02 -0.30521448598E+02  0.23249655470E+03  0.24870156691E+03  0.79539351981E+02 0.  0.
         -6    2    1    2    0  502 -0.68327896265E+01  0.12415326958E+03  0.73867911336E+02  0.22429237335E+03  0.17143476619E+03 0.  0.
        -24    2    5    5    0    0  0.54875792213E+02  0.40890931119E+02  0.49810328470E+02  0.11779625431E+03  0.81923549040E+02 0.  0.
          5    1    3    3  501    0  0.30065398114E+02 -0.93631820983E+02  0.77052340962E+02  0.12501999565E+03  0.47000000000E+01 0. -1.
        -13    1    4    4    0    0 -0.48441696347E+02 -0.38194196200E+02  0.15377965651E+03  0.16569121076E+03  0.00000000000E+00 0.  1.
         14    1    4    4    0    0  0.25209087859E+02  0.76727476018E+01  0.78716898194E+02  0.83010356147E+02  0.00000000000E+00 0. -1.
         -5    1    5    5    0  502 -0.61708581839E+02  0.83262338462E+02  0.24057582866E+02  0.10649611905E+03  0.47000000000E+01 0.  1.
         11    1    6    6    0    0  0.28706108292E+01  0.40631562995E+02 -0.63837782376E+01  0.41230049024E+02  0.00000000000E+00 0. -1.
        -12    1    6    6    0    0  0.52005181384E+02  0.25936812480E+00  0.56194106707E+02  0.76566205282E+02  0.00000000000E+00 0.  1.
</event>
<event>
12    1  0.1623092E-001  0.3389797E+03  0.7818608E-02  0.1067281E+00
         21   -1    0    0  503  502  0.00000000000E+00  0.00000000000E+00  0.15603939149E+03  0.15603939149E+03  0.00000000000E+00 0. -1.
         21   -1    0    0  501  503 -0.00000000000E+00 -0.00000000000E+00 -0.75187160305E+03  0.75187160305E+03  0.00000000000E+00 0.  1.
          6    2    1    2  501    0  0.25173261512E+03  0.14708893530E+03 -0.23049911551E+03  0.40953811235E+03  0.17200918235E+03 0.  0.
         24    2    3    3    0    0  0.25650958837E+03  0.11431644185E+03 -0.23631139638E+03  0.37558625806E+03  0.79727933536E+02 0.  0.
         -6    2    1    2    0  502 -0.25173261512E+03 -0.14708893530E+03 -0.36533309605E+03  0.49837288219E+03  0.17292424422E+03 0.  0.
        -24    2    5    5    0    0 -0.22009973419E+03 -0.17813624419E+03 -0.30081703074E+03  0.41995740395E+03  0.75477948226E+02 0.  0.
          5    1    3    3  501    0 -0.47769732481E+01  0.32772493451E+02  0.58122808697E+01  0.33951854284E+02  0.47000000000E+01 0. -1.
        -13    1    4    4    0    0  0.55437139081E+02  0.55035499923E+02 -0.93967880778E+02  0.12219715733E+03  0.00000000000E+00 0.  1.
         14    1    4    4    0    0  0.20107244929E+03  0.59280941927E+02 -0.14234351560E+03  0.25338910073E+03  0.00000000000E+00 0. -1.
         -5    1    5    5    0  502 -0.31632880924E+02  0.31047308887E+02 -0.64516065309E+02  0.78415478241E+02  0.47000000000E+01 0.  1.
         13    1    6    6    0    0 -0.50995764092E+02 -0.12678836922E+02 -0.30609262352E+02  0.60813220625E+02  0.00000000000E+00 0. -1.
        -14    1    6    6    0    0 -0.16910397010E+03 -0.16545740727E+03 -0.27020776838E+03  0.35914418333E+03  0.00000000000E+00 0.  1.
</event>
<event>
12    1  0.1623092E-001  0.1779513E+03  0.7818608E-02  0.1169908E+00
         21   -1    0    0  503  502  0.00000000000E+00  0.00000000000E+00  0.10800398089E+03  0.10800398089E+03  0.00000000000E+00 0. -1.
         21   -1    0    0  501  503 -0.00000000000E+00 -0.00000000000E+00 -0.30250219047E+03  0.30250219047E+03  0.00000000000E+00 0. -1.
          6    2    1    2  501    0  0.27091943256E+02 -0.39655050532E+02 -0.59779178639E+02  0.18731142251E+03  0.17089623279E+03 0.  0.
         24    2    3    3    0    0 -0.28073752591E+02  0.30711697131E+02 -0.26721832263E+02  0.91867138631E+02  0.77422031202E+02 0.  0.
         -6    2    1    2    0  502 -0.27091943256E+02  0.39655050532E+02 -0.13471903094E+03  0.22319474885E+03  0.17134813158E+03 0.  0.
        -24    2    5    5    0    0  0.10294116859E+02  0.28146573646E+02 -0.15650396706E+03  0.17817435377E+03  0.79714554408E+02 0.  0.
          5    1    3    3  501    0  0.55165695847E+02 -0.70366747663E+02 -0.33057346377E+02  0.95444283876E+02  0.47000000000E+01 0. -1.
        -13    1    4    4    0    0 -0.14641117270E+02  0.55564377594E+02 -0.80945629627E+01  0.58028306212E+02  0.00000000000E+00 0.  1.
         14    1    4    4    0    0 -0.13432635321E+02 -0.24852680463E+02 -0.18627269300E+02  0.33838832418E+02  0.00000000000E+00 0. -1.
         -5    1    5    5    0  502 -0.37386060115E+02  0.11508476886E+02  0.21784936126E+02  0.45020395080E+02  0.47000000000E+01 0.  1.
         11    1    6    6    0    0  0.20137959629E+02  0.23898124020E+02 -0.12319923329E+02  0.33592235122E+02  0.00000000000E+00 0. -1.
        -12    1    6    6    0    0 -0.98438427696E+01  0.42484496265E+01 -0.14418404374E+03  0.14458211865E+03  0.00000000000E+00 0.  1.
</event>
<event>
12    1  0.1623092E-001  0.2333814E+03  0.7818608E-02  0.1124311E+00
         21   -1    0    0  501  502  0.00000000000E+00  0.00000000000E+00  0.15173036205E+03  0.15173036205E+03  0.00000000000E+00 0. -1.
         21   -1    0    0  502  503 -0.00000000000E+00 -0.00000000000E+00 -0.40357577681E+03  0.40357577681E+03  0.00000000000E+00 0.  1.
         -6    2    1    2    0  503  0.86479213252E+02  0.13171382478E+03 -0.33307905622E+02  0.23557889717E+03  0.17193258636E+03 0.  0.
        -24    2    3    3    0    0  0.98638614231E+02  0.15409647538E+03 -0.49499210020E+02  0.20503249939E+03  0.78184743212E+02 0.  0.
          6    2    1    2  501    0 -0.86479213252E+02 -0.13171382478E+03 -0.21853750914E+03  0.31972724168E+03  0.17216178499E+03 0.  0.
         24    2    5    5    0    0  0.56995280773E+01 -0.64208360955E+02 -0.16374007841E+03  0.19292520537E+03  0.79083015559E+02 0.  0.
          5    1    5    5  501    0 -0.92178741329E+02 -0.67505463828E+02 -0.54797430723E+02  0.12680203631E+03  0.47000000000E+01 0. -1.
        -11    1    6    6    0    0 -0.18198598472E+02 -0.70578552913E+02 -0.94119453458E+02  0.11904197847E+03  0.00000000000E+00 0.  1.
         12    1    6    6    0    0  0.23898126549E+02  0.63701919576E+01 -0.69620624954E+02  0.73883226900E+02  0.00000000000E+00 0. -1.
         -5    1    3    3    0  503 -0.12159400979E+02 -0.22382650593E+02  0.16191304398E+02  0.30546397788E+02  0.47000000000E+01 0.  1.
         13    1    4    4    0    0  0.69370722377E+02  0.12048322157E+03 -0.81707715882E+00  0.13902939048E+03  0.00000000000E+00 0. -1.
        -14    1    4    4    0    0  0.29267891854E+02  0.33613253808E+02 -0.48682132861E+02  0.66003108904E+02  0.00000000000E+00 0.  1.
</event>
<event>
12    1  0.1623092E-001  0.2412615E+03  0.7818608E-02  0.1119091E+00
         21   -1    0    0  503  502  0.00000000000E+00  0.00000000000E+00  0.40776012709E+03  0.40776012709E+03  0.00000000000E+00 0. -1.
         21   -1    0    0  501  503 -0.00000000000E+00 -0.00000000000E+00 -0.12233467685E+04  0.12233467685E+04  0.00000000000E+00 0. -1.
          6    2    1    2  501    0 -0.34301783015E+02  0.16480871741E+03 -0.11743798196E+04  0.11987416958E+04  0.17168333357E+03 0.  0.
         24    2    3    3    0    0 -0.49174874226E+02  0.69036122601E+02 -0.90089255753E+03  0.90855042914E+03  0.81684316701E+02 0.  0.
         -6    2    1    2    0  502  0.34301783015E+02 -0.16480871741E+03  0.35879317815E+03  0.43236519979E+03  0.17282533280E+03 0.  0.
        -24    2    5    5    0    0  0.70422093538E+01 -0.14983359206E+03  0.16753026661E+03  0.23853297837E+03  0.79573195949E+02 0.  0.
          5    1    3    3  501    0  0.14873091210E+02  0.95772594808E+02 -0.27348726203E+03  0.29019126667E+03  0.47000000000E+01 0. -1.
        -13    1    4    4    0    0 -0.72840603113E+01 -0.44438088956E+01 -0.81155718386E+01  0.11775715621E+02  0.00000000000E+00 0.  1.
         14    1    4    4    0    0 -0.41890813914E+02  0.73479931496E+02 -0.89277698569E+03  0.89677471352E+03  0.00000000000E+00 0. -1.
         -5    1    5    5    0  502  0.27259573661E+02 -0.14975125344E+02  0.19126291153E+03  0.19383222143E+03  0.47000000000E+01 0.  1.
         11    1    6    6    0    0 -0.25851379052E+02 -0.10513290734E+03  0.13882477718E+03  0.17604982467E+03  0.00000000000E+00 0. -1.
        -12    1    6    6    0    0  0.32893588406E+02 -0.44700684721E+02  0.28705489428E+02  0.62483153698E+02  0.00000000000E+00 0.  1.
</event>
<event>
12    1  0.1623092E-001  0.2222680E+03  0.7818608E-02  0.1132278E+00
         21   -1    0    0  503  502  0.00000000000E+00  0.00000000000E+00  0.96775514691E+03  0.96775514691E+03  0.00000000000E+00 0.  1.
         21   -1    0    0  501  503 -0.00000000000E+00 -0.00000000000E+00 -0.66921006609E+02  0.66921006609E+02  0.00000000000E+00 0. -1.
          6    2    1    2  501    0 -0.70653826807E+02  0.12172643330E+03  0.19804702229E+03  0.29770069190E+03  0.17202846019E+03 0.  0.
         24    2    3    3    0    0 -0.53878325866E+02  0.11888645280E+02  0.42162969964E+02  0.10621261165E+03  0.80369079579E+02 0.  0.
         -6    2    1    2    0  502  0.70653826807E+02 -0.12172643330E+03  0.70278711802E+03  0.73697546162E+03  0.17150454798E+03 0.  0.
        -24    2    5    5    0    0  0.42199683661E+02 -0.96757009975E+02  0.25501186959E+03  0.28757822813E+03  0.80792644371E+02 0.  0.
          5    1    3    3  501    0 -0.16775500941E+02  0.10983778802E+03  0.15588405233E+03  0.19148808025E+03  0.47000000000E+01 0. -1.
        -11    1    4    4    0    0 -0.41924218381E+02 -0.58227785361E+01  0.63305900731E+02  0.76152359807E+02  0.00000000000E+00 0.  1.
         12    1    4    4    0    0 -0.11954107485E+02  0.17711423816E+02 -0.21142930767E+02  0.30060251842E+02  0.00000000000E+00 0. -1.
         -5    1    5    5    0  502  0.28454143146E+02 -0.24969423328E+02  0.44777524843E+03  0.44939723349E+03  0.47000000000E+01 0.  1.
         11    1    6    6    0    0 -0.18432836238E+02 -0.12795031171E+02  0.90026491576E+02  0.92780663179E+02  0.00000000000E+00 0. -1.
        -12    1    6    6    0    0  0.60632519899E+02 -0.83961978804E+02  0.16498537801E+03  0.19479756495E+03  0.00000000000E+00 0.  1.
</event>
<event>
12    1  0.1623092E-001  0.2473491E+03  0.7818608E-02  0.1115527E+00
         21   -1    0    0  501  502  0.00000000000E+00  0.00000000000E+00  0.24745431674E+03  0.24745431674E+03  0.00000000000E+00 0.  1.
         21   -1    0    0  502  503 -0.00000000000E+00 -0.00000000000E+00 -0.28192917125E+03  0.28192917125E+03  0.00000000000E+00 0. -1.
         -6    2    1    2    0  503  0.14043625462E+03 -0.10232659695E+03 -0.11450485920E+03  0.27256734684E+03  0.17603556949E+03 0.  0.
        -24    2    3    3    0    0  0.51198567068E+02  0.40513608921E+01 -0.46328989612E+01  0.95441480738E+02  0.80311304918E+02 0.  0.
          6    2    1    2  501    0 -0.14043625462E+03  0.10232659695E+03  0.80030004698E+02  0.25681614115E+03  0.17133783775E+03 0.  0.
         24    2    5    5    0    0 -0.14454433859E+03  0.10097477685E+03  0.11640443789E+03  0.21988521696E+03  0.60914235614E+02 0.  0.
          5    1    5    5  501    0  0.41080839671E+01  0.13518200971E+01 -0.36374433187E+02  0.36930924185E+02  0.47000000000E+01 0. -1.
        -11    1    6    6    0    0 -0.10439043387E+03  0.60048826180E+02  0.45589256052E+02  0.12876957900E+03  0.00000000000E+00 0.  1.
         12    1    6    6    0    0 -0.40153904719E+02  0.40925950673E+02  0.70815181833E+02  0.91115637960E+02  0.00000000000E+00 0. -1.
         -5    1    3    3    0  503  0.89237687553E+02 -0.10637795784E+03 -0.10987196024E+03  0.17712586610E+03  0.47000000000E+01 0.  1.
         11    1    4    4    0    0  0.37749995659E+02 -0.37524347756E+01 -0.41019132528E+02  0.55872284474E+02  0.00000000000E+00 0. -1.
        -12    1    4    4    0    0  0.13448571409E+02  0.78037956678E+01  0.36386233567E+02  0.39569196264E+02  0.00000000000E+00 0.  1.
</event>
<event>
12    1  0.1623092E-001  0.1877964E+03  0.7818608E-02  0.1160730E+00
         21   -1    0    0  503  502  0.00000000000E+00  0.00000000000E+00  0.29538013053E+03  0.29538013053E+03  0.00000000000E+00 0. -1.
         21   -1    0    0  501  503 -0.00000000000E+00 -0.00000000000E+00 -0.20288182656E+03  0.20288182656E+03  0.00000000000E+00 0. -1.
          6    2    1    2  501    0  0.21665201063E+02  0.70042285293E+02 -0.11434831373E+03  0.21888226554E+03  0.17163509737E+03 0.  0.
         24    2    3    3    0    0  0.53157123749E+02  0.21413590325E+02 -0.12486691815E+03  0.15981262691E+03  0.81633980775E+02 0.  0.
         -6    2    1    2    0  502 -0.21665201063E+02 -0.70042285293E+02  0.20684661769E+03  0.27937969155E+03  0.17289356880E+03 0.  0.
        -24    2    5    5    0    0 -0.58608047028E+02 -0.85153042618E+02  0.19944377585E+03  0.23851404678E+03  0.80157263811E+02 0.  0.
          5    1    3    3  501    0 -0.31491922686E+02  0.48628694968E+02  0.10518604421E+02  0.59069638629E+02  0.47000000000E+01 0. -1.
        -11    1    4    4    0    0  0.33933307669E+01  0.15740567691E+01  0.12140428793E+02  0.12703635687E+02  0.00000000000E+00 0.  1.
         12    1    4    4    0    0  0.49763792982E+02  0.19839533556E+02 -0.13700734694E+03  0.14710899123E+03  0.00000000000E+00 0. -1.
         -5    1    5    5    0  502  0.36942845965E+02  0.15110757325E+02  0.74028418352E+01  0.40865644767E+02  0.47000000000E+01 0.  1.
         13    1    6    6    0    0  0.12745481097E+02 -0.91680704511E+01  0.72881980217E+02  0.74553898922E+02  0.00000000000E+00 0. -1.
        -14    1    6    6    0    0 -0.71353528126E+02 -0.75984972167E+02  0.12656179564E+03  0.16396014786E+03  0.00000000000E+00 0.  1.
</event>
<event>
12    1  0.1623092E-001  0.2723599E+03  0.7818608E-02  0.1099956E+00
         21   -1    0    0  501  502  0.00000000000E+00  0.00000000000E+00  0.11268505097E+03  0.11268505097E+03  0.00000000000E+00 0. -1.
         21   -1    0    0  502  503 -0.00000000000E+00 -0.00000000000E+00 -0.66147995445E+03  0.66147995445E+03  0.00000000000E+00 0.  1.
         -6    2    1    2    0  503 -0.51666276997E+02 -0.20410184390E+03 -0.30272810775E+03  0.40721523268E+03  0.17278012514E+03 0.  0.
        -24    2    3    3    0    0 -0.22533597528E+02 -0.15918758981E+03 -0.30401251778E+03  0.35345890336E+03  0.81615768246E+02 0.  0.
          6    2    1    2  501    0  0.51666276997E+02  0.20410184390E+03 -0.24606679572E+03  0.36694977274E+03  0.17255810875E+03 0.  0.
         24    2    5    5    0    0  0.90932546051E+02  0.17818211628E+03 -0.15699438289E+03  0.26610505601E+03  0.78403253002E+02 0.  0.
          5    1    5    5  501    0 -0.39266269054E+02  0.25919727619E+02 -0.89072412832E+02  0.10084471673E+03  0.47000000000E+01 0. -1.
        -11    1    6    6    0    0  0.81600969421E+02  0.16776121938E+03 -0.16579323001E+03  0.24957952651E+03  0.00000000000E+00 0.  1.
         12    1    6    6    0    0  0.93315766300E+01  0.10420896895E+02  0.87988471151E+01  0.16525529494E+02  0.00000000000E+00 0. -1.
         -5    1    3    3    0  503 -0.29132679470E+02 -0.44914254082E+02  0.12844100343E+01  0.53756329320E+02  0.47000000000E+01 0.  1.
         11    1    4    4    0    0  0.59608448271E+01 -0.47940030984E+02 -0.31324723361E+02  0.57576180278E+02  0.00000000000E+00 0. -1.
        -12    1    4    4    0    0 -0.28494442355E+02 -0.11124755883E+03 -0.27268779442E+03  0.29588272308E+03  0.00000000000E+00 0.  1.
</event>
<event>
12    1  0.1623092E-001  0.2817834E+03  0.7818608E-02  0.1094953E+00
         21   -1    0    0  501  502  0.00000000000E+00  0.00000000000E+00  0.39501004464E+03  0.39501004464E+03  0.00000000000E+00 0.  1.
         21   -1    0    0  502  503 -0.00000000000E+00 -0.00000000000E+00 -0.20683169342E+03  0.20683169342E+03  0.00000000000E+00 0. -1.
         -6    2    1    2    0  503 -0.18731758047E+03 -0.12143508643E+03  0.38261618249E+02  0.28266012481E+03  0.16911072869E+03 0.  0.
        -24    2    3    3    0    0 -0.22400042322E+02 -0.54195012251E+02  0.33580353028E+02  0.10443827932E+03  0.79629472118E+02 0.  0.
          6    2    1    2  501    0  0.18731758047E+03  0.12143508643E+03  0.14991673297E+03  0.31918161325E+03  0.17195208416E+03 0.  0.
         24    2    5    5    0    0  0.10130118315E+03  0.18166674774E+02  0.16816825381E+02  0.12997045911E+03  0.77572913083E+02 0.  0.
          5    1    5    5  501    0  0.86016397314E+02  0.10326841166E+03  0.13309990759E+03  0.18921115415E+03  0.47000000000E+01 0. -1.
        -13    1    6    6    0    0  0.65346463408E+02 -0.17335478033E+02  0.35175263639E+02  0.76210092840E+02  0.00000000000E+00 0.  1.
         14    1    6    6    0    0  0.35954719743E+02  0.35502152807E+02 -0.18358438258E+02  0.53760366266E+02  0.00000000000E+00 0. -1.
         -5    1    3    3    0  503 -0.16491753814E+03 -0.67240074180E+02  0.46812652217E+01  0.17822184548E+03  0.47000000000E+01 0.  1.
         13    1    4    4    0    0  0.24685173722E+02 -0.20097778705E+02 -0.81715066640E+01  0.32864145078E+02  0.00000000000E+00 0. -1.
        -14    1    4    4    0    0 -0.47085216044E+02 -0.34097233546E+02  0.41751859692E+02  0.71574134246E+02  0.00000000000E+00 0.  1.
</event>
<event>
12    1  0.1623092E-001  0.2545885E+03  0.7818608E-02  0.1110553E+00
         21   -1    0    0  503  502  0.00000000000E+00  0.00000000000E+00  0.23426158594E+03  0.23426158594E+03  0.00000000000E+00 0.  1.
         21   -1    0    0  501  503 -0.00000000000E+00 -0.00000000000E+00 -0.30631459003E+03  0.30631459003E+03  0.00000000000E+00 0. -1.
          6    2    1    2  501    0  0.15884553944E+03  0.98250824566E+02  0.49127478320E+02  0.25928521479E+03  0.17300342064E+03 0.  0.
         24    2    3    3    0    0  0.24579672641E+02 -0.20970660536E+01  0.23566591724E+02  0.89660714604E+02  0.82916231852E+02 0.  0.
         -6    2    1    2    0  502 -0.15884553944E+03 -0.98250824566E+02 -0.12118048242E+03  0.28129096118E+03  0.17191499526E+03 0.  0.
        -24    2    5    5    0    0 -0.45604448133E+02 -0.10034935948E+03 -0.95918177878E+02  0.16515215354E+03  0.76975173493E+02 0.  0.
          5    1    3    3  501    0  0.13426586680E+03  0.10034789062E+03  0.25560886597E+02  0.16962450018E+03  0.47000000000E+01 0. -1.
        -13    1    4    4    0    0 -0.15806809838E+01  0.31729821932E+01  0.51154997104E+02  0.51277676401E+02  0.00000000000E+00 0.  1.
         14    1    4    4    0    0  0.26160353625E+02 -0.52700482467E+01 -0.27588405380E+02  0.38383038203E+02  0.00000000000E+00 0. -1.
         -5    1    5    5    0  502 -0.11324109131E+03  0.20985349173E+01 -0.25262304540E+02  0.11613880764E+03  0.47000000000E+01 0.  1.
         11    1    6    6    0    0 -0.36361745128E+02 -0.81410617428E+02 -0.27114783186E+02  0.93193758407E+02  0.00000000000E+00 0. -1.
        -12    1    6    6    0    0 -0.92427030050E+01 -0.18938742055E+02 -0.68803394691E+02  0.71958395136E+02  0.00000000000E+00 0.  1.
</event>
<event>
12    1  0.1623092E-001  0.1944974E+03  0.7818608E-02  0.1155225E+00
         21   -1    0    0  503  502  0.00000000000E+00  0.00000000000E+00  0.27728821412E+03  0.27728821412E+03  0.00000000000E+00 0.  1.
         21   -1    0    0  501  503 -0.00000000000E+00 -0.00000000000E+00 -0.23568171831E+03  0.23568171831E+03  0.00000000000E+00 0.  1.
          6    2    1    2  501    0  0.59998907753E+02 -0.66191348949E+02 -0.14753464616E+03  0.24412232156E+03  0.17276594705E+03 0.  0.
         24    2    3    3    0    0  0.52993711355E+02  0.25129760056E+02 -0.50310826530E+02  0.11046911797E+03  0.78945604534E+02 0.  0.
         -6    2    1    2    0  502 -0.59998907753E+02  0.66191348949E+02  0.18914114197E+03  0.26884761086E+03  0.16888902473E+03 0.  0.
        -24    2    5    5    0    0 -0.28472015202E+02  0.20109307025E+02  0.22655054652E+02  0.93185415693E+02  0.83398023465E+02 0.  0.
          5    1    3    3  501    0  0.70051963982E+01 -0.91321109005E+02 -0.97223819628E+02  0.13365320359E+03  0.47000000000E+01 0. -1.
        -13    1    4    4    0    0  0.17839217713E+02  0.24869400698E+02 -0.65403842894E+02  0.72210715583E+02  0.00000000000E+00 0.  1.
         14    1    4    4    0    0  0.35154493643E+02  0.26035935817E+00  0.15093016364E+02  0.38258402387E+02  0.00000000000E+00 0. -1.
         -5    1    5    5    0  502 -0.31526892551E+02  0.46082041924E+02  0.16648608732E+03  0.17566219517E+03  0.47000000000E+01 0.  1.
         13    1    6    6    0    0 -0.19902305413E+02 -0.24627822955E+02  0.33775553334E+02  0.46297077956E+02  0.00000000000E+00 0. -1.
        -14    1    6    6    0    0 -0.85697097897E+01  0.44737129980E+02 -0.11120498683E+02  0.46888337736E+02  0.00000000000E+00 0.  1.
</event>
<event>
12    1  0.1623092E-001  0.1853938E+03  0.7818608E-02  0.1164620E+00
         21   -1    0    0  503  502  0.00000000000E+00  0.00000000000E+00  0.61769840190E+02  0.61769840190E+02  0.00000000000E+00 0. -1.
         21   -1    0    0  501  503 -0.00000000000E+00 -0.00000000000E+00 -0.53253006311E+03  0.53253006311E+03  0.00000000000E+00 0.  1.
          6    2    1    2  501    0 -0.42110903748E+02  0.53521183780E+02 -0.24658306770E+03  0.30850292145E+03  0.17243258955E+03 0.  0.
         24    2    3    3    0    0 -0.68095443483E+02  0.83121238650E+02 -0.13595709185E+03  0.19098034453E+03  0.80268495902E+02 0.  0.
         -6    2    1    2    0  502  0.42110903748E+02 -0.53521183780E+02 -0.22417715522E+03  0.28579698184E+03  0.16366634530E+03 0.  0.
        -24    2    5    5    0    0  0.85386300006E+02 -0.65864164923E+02 -0.15147434516E+03  0.20016464160E+03  0.74111389525E+02 0.  0.
          5    1    3    3  501    0  0.25984539735E+02 -0.29600054870E+02 -0.11062597585E+03  0.11752257693E+03  0.47000000000E+01 0. -1.
        -13    1    4    4    0    0 -0.10198193299E+02  0.69879667916E+02 -0.96874725105E+02  0.11988279067E+03  0.00000000000E+00 0.  1.
         14    1    4    4    0    0 -0.57897250184E+02  0.13241570734E+02 -0.39082366741E+02  0.71097553857E+02  0.00000000000E+00 0. -1.
         -5    1    5    5    0  502 -0.43275396259E+02  0.12342981143E+02 -0.72702810056E+02  0.85632340240E+02  0.47000000000E+01 0.  1.
         13    1    6    6    0    0  0.75862368108E+02 -0.51684223110E+02 -0.15729302251E+03  0.18211933654E+03  0.00000000000E+00 0. -1.
        -14    1    6    6    0    0  0.95239318985E+01 -0.14179941814E+02  0.58186773486E+01  0.18045305061E+02  0.00000000000E+00 0.  1.
</event>
<event>
12    1  0.1623092E-001  0.5283853E+03  0.7818608E-02  0.1006643E+00
         21   -1    0    0  503  502  0.00000000000E+00  0.00000000000E+00  0.21568836769E+03  0.21568836769E+03  0.00000000000E+00 0.  1.
         21   -1    0    0  501  503 -0.00000000000E+00 -0.00000000000E+00 -0.22580358806E+04  0.22580358806E+04  0.00000000000E+00 0. -1.
          6    2    1    2  501    0  0.39854054042E+03  0.30093733989E+03 -0.18293141217E+04  0.19040100315E+04  0.17165721490E+03 0.  0.
         24    2    3    3    0    0  0.12330084711E+03  0.16540107126E+03 -0.76322422607E+03  0.79464231771E+03  0.79903570499E+02 0.  0.
         -6    2    1    2    0  502 -0.39854054042E+03 -0.30093733989E+03 -0.21303339118E+03  0.56971421673E+03  0.17260712062E+03 0.  0.
        -24    2    5    5    0    0 -0.31993533195E+03 -0.27254766700E+03 -0.22757206103E+03  0.48475413642E+03  0.80973343725E+02 0.  0.
          5    1    3    3  501    0  0.27523969332E+03  0.13553626864E+03 -0.10660898956E+04  0.11093677138E+04  0.47000000000E+01 0. -1.
        -11    1    4    4    0    0  0.52063522442E+02  0.37843358998E+02 -0.13369275473E+03  0.14837952304E+03  0.00000000000E+00 0.  1.
         12    1    4    4    0    0  0.71237324667E+02  0.12755771226E+03 -0.62953147134E+03  0.64626279468E+03  0.00000000000E+00 0. -1.
         -5    1    5    5    0  502 -0.78605208476E+02 -0.28389672890E+02  0.14538669852E+02  0.84960080317E+02  0.47000000000E+01 0.  1.
         11    1    6    6    0    0 -0.29263533297E+03 -0.26508713929E+03 -0.19130958172E+03  0.43875504052E+03  0.00000000000E+00 0. -1.
        -12    1    6    6    0    0 -0.27299998976E+02 -0.74605277113E+01 -0.36262479311E+02  0.45999095900E+02  0.00000000000E+00 0.  1.
</event>
<event>
12    1  0.1623092E-001  0.2022870E+03  0.7818608E-02  0.1148569E+00
         21   -1    0    0  501  502  0.00000000000E+00  0.00000000000E+00  0.12202525727E+04  0.12202525727E+04  0.00000000000E+00 0.  1.
         21   -1    0    0  502  503 -0.00000000000E+00 -0.00000000000E+00 -0.47809560161E+02  0.47809560161E+02  0.00000000000E+00 0.  1.
         -6    2    1    2    0  503 -0.92983066845E+02 -0.33361487859E+02  0.23631205275E+03  0.31106817399E+03  0.17652530414E+03 0.  0.
        -24    2    3    3    0    0 -0.99612620812E+02  0.12271277108E+02  0.23120615325E+03  0.26443706384E+03  0.79983854390E+02 0.  0.
          6    2    1    2  501    0  0.92983066845E+02  0.33361487859E+02  0.93613095977E+03  0.95699395886E+03  0.17244542283E+03 0.  0.
         24    2    5    5    0    0  0.11783538722E+03  0.24584185740E+02  0.51915499785E+03  0.53915939628E+03  0.81739721916E+02 0.  0.
          5    1    5    5  501    0 -0.24852320374E+02  0.87773021186E+01  0.41697596192E+03  0.41783456257E+03  0.47000000000E+01 0. -1.
        -13    1    6    6    0    0  0.10999848657E+03 -0.56670535986E+01  0.34290750229E+03  0.36016293212E+03  0.00000000000E+00 0.  1.
         14    1    6    6    0    0  0.78369006510E+01  0.30251239339E+02  0.17624749556E+03  0.17899646417E+03  0.00000000000E+00 0. -1.
         -5    1    3    3    0  503  0.66295539675E+01 -0.45632764967E+02  0.51058995024E+01  0.46631110152E+02  0.47000000000E+01 0.  1.
         11    1    4    4    0    0  0.39123561095E+01 -0.16557251769E+02  0.59413313978E+02  0.61801221625E+02  0.00000000000E+00 0. -1.
        -12    1    4    4    0    0 -0.10352497692E+03  0.28828528877E+02  0.17179283927E+03  0.20263584221E+03  0.00000000000E+00 0.  1.
</event>
<event>
12    1  0.1623092E-001  0.2752656E+03  0.7818608E-02  0.1098514E+00
         21   -1    0    0  501  502  0.00000000000E+00  0.00000000000E+00  0.62792694218E+02  0.62792694218E+02  0.00000000000E+00 0.  1.
         21   -1    0    0  502  503 -0.00000000000E+00 -0.00000000000E+00 -0.13432223881E+04  0.13432223881E+04  0.00000000000E+00 0. -1.
         -6    2    1    2    0  503  0.21207675552E+03 -0.15873952136E+02 -0.86812112057E+03  0.91026360265E+03  0.17238623419E+03 0.  0.
        -24    2    3    3    0    0  0.15905206241E+03  0.33662293782E+02 -0.75000959035E+03  0.77156291300E+03  0.79776152550E+02 0.  0.
          6    2    1    2  501    0 -0.21207675552E+03  0.15873952136E+02 -0.41230857328E+03  0.49575147964E+03  0.17476451979E+03 0.  0.
         24    2    5    5    0    0 -0.13731400966E+03  0.46197146932E+02 -0.15641241238E+03  0.22739742345E+03  0.79091287826E+02 0.  0.
          5    1    5    5  501    0 -0.74762745854E+02 -0.30323194796E+02 -0.25589616090E+03  0.26835405619E+03  0.47000000000E+01 0. -1.
        -11    1    6    6    0    0  0.39345214473E+01 -0.52546458244E+01  0.38940787245E+01  0.76325363328E+01  0.00000000000E+00 0.  1.
         12    1    6    6    0    0 -0.14124853111E+03  0.51451792757E+02 -0.16030649111E+03  0.21976488712E+03  0.00000000000E+00 0. -1.
         -5    1    3    3    0  503  0.53024693104E+02 -0.49536245918E+02 -0.11811153022E+03  0.13870068965E+03  0.47000000000E+01 0.  1.
         11    1    4    4    0    0  0.96050142265E+01 -0.72466006714E-01 -0.21056755172E+03  0.21078651614E+03  0.00000000000E+00 0. -1.
        -12    1    4    4    0    0  0.14944704819E+03  0.33734759789E+02 -0.53944203863E+03  0.56077639685E+03  0.00000000000E+00 0.  1.
</event>
<event>
12    1  0.1623092E-001  0.1771223E+03  0.7818608E-02  0.1171377E+00
         21   -1    0    0  503  502  0.00000000000E+00  0.00000000000E+00  0.37545505773E+03  0.37545505773E+03  0.00000000000E+00 0.  1.
         21   -1    0    0  501  503 -0.00000000000E+00 -0.00000000000E+00 -0.93917992092E+02  0.93917992092E+02  0.00000000000E+00 0.  1.
          6    2    1    2  501    0 -0.40391727814E+01 -0.37298324750E+02  0.56547702301E+02  0.18302969461E+03  0.16998454791E+03 0.  0.
         24    2    3    3    0    0 -0.45804999915E+02 -0.68486859005E+02  0.15750511347E+02  0.11666999468E+03  0.81087984174E+02 0.  0.
         -6    2    1    2    0  502  0.40391727814E+01  0.37298324750E+02  0.22498936334E+03  0.28634335521E+03  0.17310350520E+03 0.  0.
        -24    2    5    5    0    0 -0.17934584984E+01  0.21973676665E+01  0.25674594935E+02  0.83822828649E+02  0.79743569393E+02 0.  0.
          5    1    3    3  501    0  0.41765827134E+02  0.31188534256E+02  0.40797190955E+02  0.66359699931E+02  0.47000000000E+01 0. -1.
        -11    1    4    4    0    0 -0.46231612973E+02 -0.85307511841E+01 -0.14920417768E+02  0.49322962403E+02  0.00000000000E+00 0.  1.
         12    1    4    4    0    0  0.42661305813E+00 -0.59956107821E+02  0.30670929115E+02  0.67347032277E+02  0.00000000000E+00 0. -1.
         -5    1    5    5    0  502  0.58326312797E+01  0.35100957083E+02  0.19931476841E+03  0.20252052657E+03  0.47000000000E+01 0.  1.
         11    1    6    6    0    0  0.36556285282E+02  0.12577062539E+02  0.48383544335E+01  0.38960931320E+02  0.00000000000E+00 0. -1.
        -12    1    6    6    0    0 -0.38349743780E+02 -0.10379694872E+02  0.20836240502E+02  0.44861897329E+02  0.00000000000E+00 0.  1.
</event>
<event>
12    1  0.1623092E-001  0.1837399E+03  0.7818608E-02  0.1165669E+00
         21   -1    0    0  501  502  0.00000000000E+00  0.00000000000E+00  0.10674603359E+03  0.10674603359E+03  0.00000000000E+00 0.  1.
         21   -1    0    0  502  503 -0.00000000000E+00 -0.00000000000E+00 -0.33754843747E+03  0.33754843747E+03  0.00000000000E+00 0.  1.
         -6    2    1    2    0  503 -0.61404012212E+02  0.41322991805E+01 -0.18500154890E+03  0.26074107282E+03  0.17312655876E+03 0.  0.
        -24    2    3    3    0    0  0.18220916248E+02 -0.38753530984E+01 -0.15810669380E+03  0.17618532223E+03  0.75475300549E+02 0.  0.
          6    2    1    2  501    0  0.61404012212E+02 -0.41322991805E+01 -0.45800854977E+02  0.18355339824E+03  0.16675312014E+03 0.  0.
         24    2    5    5    0    0  0.34012249673E+02  0.11783345349E+02  0.36068989290E+02  0.95642205576E+02  0.80936883704E+02 0.  0.
          5    1    5    5  501    0  0.27391762539E+02 -0.15915644530E+02 -0.81869844267E+02  0.87911192666E+02  0.47000000000E+01 0. -1.
        -11    1    6    6    0    0  0.11324632076E+02 -0.16947962945E+02  0.51898257720E+02  0.55757599429E+02  0.00000000000E+00 0.  1.
         12    1    6    6    0    0  0.22687617597E+02  0.28731308294E+02 -0.15829268430E+02  0.39884606148E+02  0.00000000000E+00 0. -1.
         -5    1    3    3    0  503 -0.79624928459E+02  0.80076522789E+01 -0.26894855098E+02  0.84555750590E+02  0.47000000000E+01 0.  1.
         11    1    4    4    0    0  0.30609057863E+02  0.16118475282E+02 -0.29555125607E+02  0.45499726574E+02  0.00000000000E+00 0. -1.
        -12    1    4    4    0    0 -0.12388141615E+02 -0.19993828380E+02 -0.12855156820E+03  0.13068559565E+03  0.00000000000E+00 0.  1.
</event>
<event>
12    1  0.1623092E-001  0.2802998E+03  0.7818608E-02  0.1095571E+00
         21   -1    0    0  501  502  0.00000000000E+00  0.00000000000E+00  0.51200416252E+03  0.51200416252E+03  0.00000000000E+00 0.  1.
         21   -1    0    0  502  503 -0.00000000000E+00 -0.00000000000E+00 -0.42377274128E+03  0.42377274128E+03  0.00000000000E+00 0. -1.
         -6    2    1    2    0  503  0.14853685422E+01 -0.22114075872E+03 -0.32971466172E+03  0.43254049663E+03  0.17168017239E+03 0.  0.
        -24    2    3    3    0    0  0.81987705791E+01 -0.22403492832E+03 -0.34527279669E+03  0.41471939822E+03  0.50199663152E+02 0.  0.
          6    2    1    2  501    0 -0.14853685422E+01  0.22114075872E+03  0.41794608296E+03  0.50323640717E+03  0.17222808063E+03 0.  0.
         24    2    5    5    0    0  0.48749335510E+02  0.12448155196E+03  0.32334329825E+03  0.35888161987E+03  0.79830909224E+02 0.  0.
          5    1    5    5  501    0 -0.50234704052E+02  0.96659206755E+02  0.94602784709E+02  0.14435478730E+03  0.47000000000E+01 0. -1.
        -11    1    6    6    0    0  0.29181404447E+02  0.13005929764E+03  0.29745071124E+03  0.32595076451E+03  0.00000000000E+00 0.  1.
         12    1    6    6    0    0  0.19567931062E+02 -0.55777456730E+01  0.25892587005E+02  0.32930855359E+02  0.00000000000E+00 0. -1.
         -5    1    3    3    0  503 -0.67134020369E+01  0.28941695998E+01  0.15558134977E+02  0.17821098410E+02  0.47000000000E+01 0.  1.
         11    1    4    4    0    0  0.88096405384E+01 -0.61462431558E+02 -0.59827061217E+02  0.86223648225E+02  0.00000000000E+00 0. -1.
        -12    1    4    4    0    0 -0.61086995931E+00 -0.16257249676E+03 -0.28544573548E+03  0.32849575000E+03  0.00000000000E+00 0.  1.
</event>
<event>
12    1  0.1623092E-001  0.2383904E+03  0.7818608E-02  0.1120904E+00
         21   -1    0    0  503  502  0.00000000000E+00  0.00000000000E+00  0.21790570648E+03  0.21790570648E+03  0.00000000000E+00 0.  1.
         21   -1    0    0  501  503 -0.00000000000E+00 -0.00000000000E+00 -0.26292935961E+03  0.26292935961E+03  0.00000000000E+00 0.  1.
          6    2    1    2  501    0  0.10931508204E+03  0.12285810173E+03 -0.45267992703E+02  0.24265033147E+03  0.17258647652E+03 0.  0.
         24    2    3    3    0    0  0.28619575519E+02  0.78694991567E+02  0.34838371502E+02  0.12057959518E+03  0.79459076541E+02 0.  0.
         -6    2    1    2    0  502 -0.10931508204E+03 -0.12285810173E+03  0.24433957692E+00  0.23818473461E+03  0.17230208292E+03 0.  0.
        -24    2    5    5    0    0 -0.91730518758E+02 -0.36066350353E+02  0.49392855450E+02  0.13679592071E+03  0.80982714533E+02 0.  0.
          5    1    3    3  501    0  0.80695506525E+02  0.44163110161E+02 -0.80106364205E+02  0.12207073629E+03  0.47000000000E+01 0. -1.
        -13    1    4    4    0    0  0.31150594351E+02  0.87054740845E+02  0.85226040430E+01  0.92852152435E+02  0.00000000000E+00 0.  1.
         14    1    4    4    0    0 -0.25310188324E+01 -0.83597492783E+01  0.26315767459E+02  0.27727442747E+02  0.00000000000E+00 0. -1.
         -5    1    5    5    0  502 -0.17584563286E+02 -0.86791751375E+02 -0.49148515873E+02  0.10138881391E+03  0.47000000000E+01 0.  1.
         11    1    6    6    0    0 -0.59806073148E+02 -0.55200681817E+02  0.56271285471E+02  0.98946143063E+02  0.00000000000E+00 0. -1.
        -12    1    6    6    0    0 -0.31924445610E+02  0.19134331465E+02 -0.68784300215E+01  0.37849777643E+02  0.00000000000E+00 0.  1.
</event>
<event>
12    1  0.1623092E-001  0.1817392E+03  0.7818608E-02  0.1166280E+00
         21   -1    0    0  501  502  0.00000000000E+00  0.00000000000E+00  0.15501671180E+04  0.15501671180E+04  0.00000000000E+00 0. -1.
         21   -1    0    0  502  503 -0.00000000000E+00 -0.00000000000E+00 -0.55534535589E+02  0.55534535589E+02  0.00000000000E+00 0. -1.
         -6    2    1    2    0  503  0.51318485350E+02 -0.21987261149E+02  0.11585825566E+03  0.21500119551E+03  0.17229437622E+03 0.  0.
        -24    2    3    3    0    0  0.68965745475E+01 -0.26258856181E+02 -0.71601338516E+01  0.84054004471E+02  0.79225740025E+02 0.  0.
          6    2    1    2  501    0 -0.51318485350E+02  0.21987261149E+02  0.13787743267E+04  0.13907004580E+04  0.17295113008E+03 0.  0.
         24    2    5    5    0    0 -0.11667001933E+02 -0.18934707632E+02  0.31967460807E+03  0.33005859968E+03  0.79070741069E+02 0.  0.
          5    1    5    5  501    0 -0.39651483417E+02  0.40921968781E+02  0.10590997187E+04  0.10606418584E+04  0.47000000000E+01 0. -1.
        -11    1    6    6    0    0 -0.36711650987E+02  0.82754424414E+01  0.91987968274E+02  0.99388201377E+02  0.00000000000E+00 0.  1.
         12    1    6    6    0    0  0.25044649055E+02 -0.27210150073E+02  0.22768663979E+03  0.23067039830E+03  0.00000000000E+00 0. -1.
         -5    1    3    3    0  503  0.44421910802E+02  0.42715950317E+01  0.12301838951E+03  0.13094719104E+03  0.47000000000E+01 0.  1.
         11    1    4    4    0    0 -0.68762969617E+01 -0.52917665907E+02 -0.73603182524E+00  0.53367635959E+02  0.00000000000E+00 0. -1.
        -12    1    4    4    0    0  0.13772871509E+02  0.26658809726E+02 -0.64241020264E+01  0.30686368512E+02  0.00000000000E+00 0.  1.
</event>
<event>
12    1  0.1623092E-001  0.1768852E+03  0.7818608E-02  0.1170927E+00
         21   -1    0    0  503  502  0.00000000000E+00  0.00000000000E+00  0.29968559161E+03  0.29968559161E+03  0.00000000000E+00 0. -1.
         21   -1    0    0  501  503 -0.00000000000E+00 -0.00000000000E+00 -0.18014575704E+03  0.18014575704E+03  0.00000000000E+00 0. -1.
          6    2    1    2  501    0  0.15805020382E+02  0.38655782298E+02  0.21554940604E+03  0.27883672673E+03  0.17188457044E+03 0.  0.
         24    2    3    3    0    0 -0.36096676760E+00 -0.17291662431E+02  0.20361136645E+03  0.21920399661E+03  0.79332664754E+02 0.  0.
         -6    2    1    2    0  502 -0.15805020382E+02 -0.38655782298E+02 -0.96009571465E+02  0.20099462191E+03  0.17157194424E+03 0.  0.
        -24    2    5    5    0    0 -0.21780722452E+02 -0.79896129786E+02 -0.10892303754E+03  0.15711612055E+03  0.77223414870E+02 0.  0.
          5    1    3    3  501    0  0.16165987149E+02  0.55947444729E+02  0.11938039590E+02  0.59632730119E+02  0.47000000000E+01 0. -1.
        -13    1    4    4    0    0 -0.33608135484E+02 -0.17745114438E+02  0.54579878928E+02  0.66508338131E+02  0.00000000000E+00 0.  1.
         14    1    4    4    0    0  0.33247168716E+02  0.45345200729E+00  0.14903148752E+03  0.15269565848E+03  0.00000000000E+00 0. -1.
         -5    1    5    5    0  502  0.59757020709E+01  0.41240347488E+02  0.12913466072E+02  0.43878501366E+02  0.47000000000E+01 0.  1.
         11    1    6    6    0    0  0.20094156493E+02 -0.45320379577E+02 -0.21141437795E+02  0.53895012035E+02  0.00000000000E+00 0. -1.
        -12    1    6    6    0    0 -0.41874878946E+02 -0.34575750208E+02 -0.87781599743E+02  0.10322110851E+03  0.00000000000E+00 0.  1.
</event>
<event>
12    1  0.1623092E-001  0.1868153E+03  0.7818608E-02  0.1161500E+00
         21   -1    0    0  501  502  0.00000000000E+00  0.00000000000E+00  0.85443709531E+02  0.85443709531E+02  0.00000000000E+00 0.  1.
         21   -1    0    0  502  503 -0.00000000000E+00 -0.00000000000E+00 -0.44774104810E+03  0.44774104810E+03  0.00000000000E+00 0.  1.
         -6    2    1    2    0  503  0.72168538288E+02 -0.93678945332E+01 -0.26164604124E+03  0.32149436362E+03  0.17205789600E+03 0.  0.
        -24    2    3    3    0    0  0.28103337879E+02 -0.18838077113E+01 -0.37009753409E+02  0.92406377785E+02  0.79849048062E+02 0.  0.
          6    2    1    2  501    0 -0.72168538288E+02  0.93678945332E+01 -0.10065129733E+03  0.21169039401E+03  0.17142369701E+03 0.  0.
         24    2    5    5    0    0 -0.33276504179E+02  0.33186088988E+02 -0.12810861646E+03  0.15824985623E+03  0.80140858206E+02 0.  0.
          5    1    5    5  501    0 -0.38892034109E+02 -0.23818194455E+02  0.27457319131E+02  0.53440537779E+02  0.47000000000E+01 0. -1.
        -11    1    6    6    0    0  0.16844649109E+02 -0.91055621355E+01 -0.67455016960E+01  0.20301607289E+02  0.00000000000E+00 0.  1.
         12    1    6    6    0    0 -0.50121153288E+02  0.42291651124E+02 -0.12136311476E+03  0.13794824894E+03  0.00000000000E+00 0. -1.
         -5    1    3    3    0  503  0.44065200409E+02 -0.74840868219E+01 -0.22463628783E+03  0.22908798583E+03  0.47000000000E+01 0.  1.
         13    1    4    4    0    0  0.37611376781E+02 -0.10046989369E+02 -0.56872706275E+02  0.68920696295E+02  0.00000000000E+00 0. -1.
        -14    1    4    4    0    0 -0.95080389021E+01  0.81631816576E+01  0.19862952865E+02  0.23485681490E+02  0.00000000000E+00 0.  1.
</event>
<event>
12    1  0.1623092E-001  0.1730266E+03  0.7818608E-02  0.1174978E+00
         21   -1    0    0  501  502  0.00000000000E+00  0.00000000000E+00  0.13697688717E+03  0.13697688717E+03  0.00000000000E+00 0.  1.
         21   -1    0    0  502  503 -0.00000000000E+00 -0.00000000000E+00 -0.21756069910E+03  0.21756069910E+03  0.00000000000E+00 0.  1.
         -6    2    1    2    0  503 -0.16186135605E+02 -0.59414319341E+01 -0.34388681911E+02  0.17545050367E+03  0.17118120865E+03 0.  0.
        -24    2    3    3    0    0  0.55503161682E+02  0.14424358293E+01 -0.48815135090E+01  0.97433583478E+02  0.79917410102E+02 0.  0.
          6    2    1    2  501    0  0.16186135605E+02  0.59414319341E+01 -0.46195130013E+02  0.17908708260E+03  0.17216533193E+03 0.  0.
         24    2    5    5    0    0  0.38619070806E+02  0.25091008986E+02 -0.88441763538E+02  0.12734917650E+03  0.79214113997E+02 0.  0.
          5    1    5    5  501    0 -0.22432935201E+02 -0.19149577052E+02  0.42246633525E+02  0.51737906096E+02  0.47000000000E+01 0. -1.
        -13    1    6    6    0    0  0.51453189154E+01  0.29002229404E+02  0.32749477300E+01  0.29636614175E+02  0.00000000000E+00 0.  1.
         14    1    6    6    0    0  0.33473751891E+02 -0.39112204176E+01 -0.91716711268E+02  0.97712562328E+02  0.00000000000E+00 0. -1.
         -5    1    3    3    0  503 -0.71689297287E+02 -0.73838677634E+01 -0.29507168402E+02  0.78016920189E+02  0.47000000000E+01 0.  1.
         13    1    4    4    0    0  0.49315866166E+02  0.31172798675E+02 -0.22260881734E+02  0.62444734674E+02  0.00000000000E+00 0. -1.
        -14    1    4    4    0    0  0.61872955165E+01 -0.29730362846E+02  0.17379368225E+02  0.34988848804E+02  0.00000000000E+00 0.  1.
</event>
<event>
12    1  0.1623092E-001  0.1824276E+03  0.7818608E-02  0.1166290E+00
         21   -1    0    0  503  502  0.00000000000E+00  0.00000000000E+00  0.98461116942E+03  0.98461116942E+03  0.00000000000E+00 0. -1.
         21   -1    0    0  501  503 -0.00000000000E+00 -0.00000000000E+00 -0.42409857851E+02  0.42409857851E+02  0.00000000000E+00 0. -1.
          6    2    1    2  501    0  0.55530264976E+02 -0.23656603206E+02  0.22799686085E+03  0.28988613844E+03  0.16854720257E+03 0.  0.
         24    2    3    3    0    0  0.30842974880E+02  0.50774212579E+02  0.11418477411E+03  0.15159409340E+03  0.80083061591E+02 0.  0.
         -6    2    1    2    0  502 -0.55530264976E+02  0.23656603206E+02  0.71420445071E+03  0.73713488883E+03  0.17215284404E+03 0.  0.
        -24    2    5    5    0    0 -0.73870893821E+02 -0.33761639135E+02  0.32891161804E+03  0.34712733746E+03  0.75615994981E+02 0.  0.
          5    1    3    3  501    0  0.24687290096E+02 -0.74430815786E+02  0.11381208675E+03  0.13829204504E+03  0.47000000000E+01 0. -1.
        -11    1    4    4    0    0  0.46055937287E+02  0.37012207362E+02  0.11681941740E+03  0.13091153171E+03  0.00000000000E+00 0.  1.
         12    1    4    4    0    0 -0.15212962407E+02  0.13762005218E+02 -0.26346432928E+01  0.20682561691E+02  0.00000000000E+00 0. -1.
         -5    1    5    5    0  502  0.18340628846E+02  0.57418242342E+02  0.38529283268E+03  0.39000755138E+03  0.47000000000E+01 0.  1.
         11    1    6    6    0    0 -0.55125842149E+02  0.10978543477E+02  0.11791842627E+03  0.13062979042E+03  0.00000000000E+00 0. -1.
        -12    1    6    6    0    0 -0.18745051672E+02 -0.44740182612E+02  0.21099319176E+03  0.21649754704E+03  0.00000000000E+00 0.  1.
</event>
<event>
12    1  0.1623092E-001  0.1991607E+03  0.7818608E-02  0.1150463E+00
         21   -1    0    0  503  502  0.00000000000E+00  0.00000000000E+00  0.50275750639E+03  0.50275750639E+03  0.00000000000E+00 0.  1.
         21   -1    0    0  501  503 -0.00000000000E+00 -0.00000000000E+00 -0.19214116139E+03  0.19214116139E+03  0.00000000000E+00 0.  1.
          6    2    1    2  501    0  0.95782972821E+02 -0.28817692336E+02 -0.11147673694E+03  0.22817866699E+03  0.17214413704E+03 0.  0.
         24    2    3    3    0    0  0.66748517812E+02  0.67125199208E+01 -0.13921106181E+03  0.17435786862E+03  0.80749762016E+02 0.  0.
         -6    2    1    2    0  502 -0.95782972821E+02  0.28817692336E+02  0.42209308194E+03  0.46672000078E+03  0.17222122993E+03 0.  0.
        -24    2    5    5    0    0 -0.46706193652E+02 -0.47687734292E+02  0.23831984678E+03  0.26164366739E+03  0.84885044559E+02 0.  0.
          5    1    3    3  501    0  0.29034455009E+02 -0.35530212257E+02  0.27734324876E+02  0.53820798368E+02  0.47000000000E+01 0. -1.
        -13    1    4    4    0    0  0.28911052466E+02 -0.36586450816E+02 -0.51456215430E+02  0.69441770170E+02  0.00000000000E+00 0.  1.
         14    1    4    4    0    0  0.37837465347E+02  0.43298970737E+02 -0.87754846384E+02  0.10491609845E+03  0.00000000000E+00 0. -1.
         -5    1    5    5    0  502 -0.49076779170E+02  0.76505426628E+02  0.18377323515E+03  0.20507633339E+03  0.47000000000E+01 0.  1.
         11    1    6    6    0    0 -0.71327677060E+01  0.16830285286E+02  0.94380985630E+01  0.20572131208E+02  0.00000000000E+00 0. -1.
        -12    1    6    6    0    0 -0.39573425946E+02 -0.64518019578E+02  0.22888174822E+03  0.24107153619E+03  0.00000000000E+00 0.  1.
</event>
<event>
12    1  0.1623092E-001  0.1849418E+03  0.7818608E-02  0.1163623E+00
         21   -1    0    0  503  502  0.00000000000E+00  0.00000000000E+00  0.30539489077E+03  0.30539489077E+03  0.00000000000E+00 0. -1.
         21   -1    0    0  501  503 -0.00000000000E+00 -0.00000000000E+00 -0.15831271589E+03  0.15831271589E+03  0.00000000000E+00 0. -1.
          6    2    1    2  501    0  0.47757619651E+01 -0.66097015612E+02 -0.53962256162E+02  0.19053671864E+03  0.17029589744E+03 0.  0.
         24    2    3    3    0    0 -0.44509296553E+02 -0.20000454483E+02  0.13946190825E+02  0.94684973149E+02  0.79935300353E+02 0.  0.
         -6    2    1    2    0  502 -0.47757619651E+01  0.66097015612E+02  0.20104443104E+03  0.27317088802E+03  0.17266107678E+03 0.  0.
        -24    2    5    5    0    0 -0.51501680078E+02 -0.69779706310E+01  0.13035078460E+03  0.16117559042E+03  0.79278804082E+02 0.  0.
          5    1    3    3  501    0  0.49285058519E+02 -0.46096561129E+02 -0.67908446987E+02  0.95851745489E+02  0.47000000000E+01 0. -1.
        -13    1    4    4    0    0 -0.72678769976E+01  0.26407936397E+02  0.21342973316E+02  0.34723531657E+02  0.00000000000E+00 0.  1.
         14    1    4    4    0    0 -0.37241419556E+02 -0.46408390880E+02 -0.73967824902E+01  0.59961441492E+02  0.00000000000E+00 0. -1.
         -5    1    5    5    0  502  0.46725918113E+02  0.73074986243E+02  0.70693646433E+02  0.11199529760E+03  0.47000000000E+01 0.  1.
         11    1    6    6    0    0 -0.48527788003E+02  0.81937303645E+01  0.25951572916E+02  0.55637824927E+02  0.00000000000E+00 0. -1.
        -12    1    6    6    0    0 -0.29738920751E+01 -0.15171700995E+02  0.10439921169E+03  0.10553776550E+03  0.00000000000E+00 0.  1.
</event>
<event>
12    1  0.1623092E-001  0.1911104E+03  0.7818608E-02  0.1158489E+00
         21   -1    0    0  503  502  0.00000000000E+00  0.00000000000E+00  0.17979721876E+04  0.17979721876E+04  0.00000000000E+00 0.  1.
         21   -1    0    0  501  503 -0.00000000000E+00 -0.00000000000E+00 -0.29518741244E+02  0.29518741244E+02  0.00000000000E+00 0. -1.
          6    2    1    2  501    0  0.37891643308E+02  0.69878421827E+02  0.36802417097E+03  0.41468660999E+03  0.17379419904E+03 0.  0.
         24    2    3    3    0    0  0.36507395499E+02  0.17128228771E+02  0.34790765849E+03  0.35801860241E+03  0.74238902767E+02 0.  0.
         -6    2    1    2    0  502 -0.37891643308E+02 -0.69878421827E+02  0.14004292754E+04  0.14128043188E+04  0.16880496893E+03 0.  0.
        -24    2    5    5    0    0  0.98309801154E+01  0.21784005165E+02  0.67961566550E+03  0.68460530793E+03  0.78966979191E+02 0.  0.
          5    1    3    3  501    0  0.13842478084E+01  0.52750193056E+02  0.20116512476E+02  0.56668007585E+02  0.47000000000E+01 0. -1.
        -13    1    4    4    0    0  0.38243996976E+02 -0.22014496918E+02  0.21370220534E+03  0.21821061832E+03  0.00000000000E+00 0.  1.
         14    1    4    4    0    0 -0.17366014770E+01  0.39142725689E+02  0.13420545315E+03  0.13980798409E+03  0.00000000000E+00 0. -1.
         -5    1    5    5    0  502 -0.47722623423E+02 -0.91662426992E+02  0.72081360987E+03  0.72819901090E+03  0.47000000000E+01 0.  1.
         13    1    6    6    0    0 -0.76594450947E+01  0.39074965107E+00  0.44349828878E+01  0.88593937526E+01  0.00000000000E+00 0. -1.
        -14    1    6    6    0    0  0.17490425210E+02  0.21393255514E+02  0.67518068262E+03  0.67574591418E+03  0.00000000000E+00 0.  1.
</event>
<event>
12    1  0.1623092E-001  0.1914473E+03  0.7818608E-02  0.1157969E+00
         21   -1    0    0  501  502  0.00000000000E+00  0.00000000000E+00  0.19935527785E+03  0.19935527785E+03  0.00000000000E+00 0. -1.
         21   -1    0    0  502  503 -0.00000000000E+00 -0.00000000000E+00 -0.58639525096E+03  0.58639525096E+03  0.00000000000E+00 0. -1.
         -6    2    1    2    0  503 -0.53869763877E+02 -0.63933857835E+02 -0.51984361881E+03  0.55275079032E+03  0.16824553053E+03 0.  0.
        -24    2    3    3    0    0  0.84265927868E+01  0.65943064591E+01 -0.13829336856E+03  0.15973966900E+03  0.79228869245E+02 0.  0.
          6    2    1    2  501    0  0.53869763877E+02  0.63933857835E+02  0.13280364571E+03  0.23299973849E+03  0.17222827928E+03 0.  0.
         24    2    5    5    0    0  0.82834742397E+01 -0.24542782309E+02  0.95257737614E+02  0.12651964237E+03  0.79134184909E+02 0.  0.
          5    1    5    5  501    0  0.45586289637E+02  0.88476640144E+02  0.37545908096E+02  0.10648009612E+03  0.47000000000E+01 0. -1.
        -11    1    6    6    0    0  0.15851822963E+02  0.22989746610E+02  0.12092767175E+02  0.30430967096E+02  0.00000000000E+00 0.  1.
         12    1    6    6    0    0 -0.75683487238E+01 -0.47532528919E+02  0.83164970440E+02  0.96088675275E+02  0.00000000000E+00 0. -1.
         -5    1    3    3    0  503 -0.62296356664E+02 -0.70528164294E+02 -0.38155025025E+03  0.39301112132E+03  0.47000000000E+01 0.  1.
         13    1    4    4    0    0 -0.18216936979E+02  0.11838652295E+02 -0.12933249948E+03  0.13114459921E+03  0.00000000000E+00 0. -1.
        -14    1    4    4    0    0  0.26643529765E+02 -0.52443458363E+01 -0.89608690806E+01  0.28595069790E+02  0.00000000000E+00 0.  1.
</event>
<event>
12    1  0.1623092E-001  0.2418467E+03  0.7818608E-02  0.1119107E+00
         21   -1    0    0  501  502  0.00000000000E+00  0.00000000000E+00  0.14792846422E+04  0.14792846422E+04  0.00000000000E+00 0.  1.
         21   -1    0    0  502  503 -0.00000000000E+00 -0.00000000000E+00 -0.78558757268E+02  0.78558757268E+02  0.00000000000E+00 0.  1.
         -6    2    1    2    0  503  0.85021990610E+02  0.14159020353E+03  0.12553609285E+04  0.12784447190E+04  0.17667290172E+03 0.  0.
        -24    2    3    3    0    0  0.15971538537E+02  0.85750557889E+02  0.10215854016E+04  0.10283265111E+04  0.78806297171E+02 0.  0.
          6    2    1    2  501    0 -0.85021990610E+02 -0.14159020353E+03  0.14536495646E+03  0.27939868046E+03  0.17220954519E+03 0.  0.
         24    2    5    5    0    0 -0.48577866304E+02 -0.37228665971E+02  0.41640667355E+01  0.10001282266E+03  0.78990142302E+02 0.  0.
          5    1    5    5  501    0 -0.36444124306E+02 -0.10436153756E+03  0.14120088973E+03  0.17938585780E+03  0.47000000000E+01 0. -1.
        -11    1    6    6    0    0 -0.33810500234E+02 -0.55227437969E+02 -0.18680050099E+02  0.67395579249E+02  0.00000000000E+00 0.  1.
         12    1    6    6    0    0 -0.14767366070E+02  0.17998771998E+02  0.22844116834E+02  0.32617243416E+02  0.00000000000E+00 0. -1.
         -5    1    3    3    0  503  0.69050452073E+02  0.55839645642E+02  0.23377552688E+03  0.25011820791E+03  0.47000000000E+01 0.  1.
         13    1    4    4    0    0  0.59894619807E+01  0.44656804241E+02  0.17571727959E+03  0.18140194643E+03  0.00000000000E+00 0. -1.
        -14    1    4    4    0    0  0.99820765563E+01  0.41093753647E+02  0.84586812198E+03  0.84692456466E+03  0.00000000000E+00 0.  1.
</event>
<event>
12    1  0.1623092E-001  0.2350711E+03  0.7818608E-02  0.1123252E+00
         21   -1    0    0  501  502  0.00000000000E+00  0.00000000000E+00  0.28361456368E+03  0.28361456368E+03  0.00000000000E+00 0.  1.
         21   -1    0    0  502  503 -0.00000000000E+00 -0.00000000000E+00 -0.24345323848E+03  0.24345323848E+03  0.00000000000E+00 0.  1.
         -6    2    1    2    0  503  0.13021332483E+03 -0.92046932453E+02 -0.98427204549E+02  0.25484570059E+03  0.17271441392E+03 0.  0.
        -24    2    3    3    0    0  0.73406222899E+02 -0.79237202417E+02  0.63258892263E+01  0.13490222778E+03  0.80570381524E+02 0.  0.
          6    2    1    2  501    0 -0.13021332483E+03  0.92046932453E+02  0.13858852975E+03  0.27222210158E+03  0.17166812247E+03 0.  0.
         24    2    5    5    0    0 -0.27270995565E+02 -0.14990890149E+02  0.40142112288E+02  0.93986286626E+02  0.79079699723E+02 0.  0.
          5    1    5    5  501    0 -0.10294232926E+03  0.10703782260E+03  0.98446417458E+02  0.17823581495E+03  0.47000000000E+01 0. -1.
        -11    1    6    6    0    0 -0.20544646367E+02 -0.11379696959E+02  0.64403482134E+02  0.68552086096E+02  0.00000000000E+00 0.  1.
         12    1    6    6    0    0 -0.67263491983E+01 -0.36111931904E+01 -0.24261369846E+02  0.25434200530E+02  0.00000000000E+00 0. -1.
         -5    1    3    3    0  503  0.56807101929E+02 -0.12809730036E+02 -0.10475309378E+03  0.11994347281E+03  0.47000000000E+01 0.  1.
         13    1    4    4    0    0  0.20988058264E+02 -0.95877367241E+01  0.36050865674E+02  0.42802899447E+02  0.00000000000E+00 0. -1.
        -14    1    4    4    0    0  0.52418164635E+02 -0.69649465692E+02 -0.29724976448E+02  0.92099328335E+02  0.00000000000E+00 0.  1.
</event>
<event>
12    1  0.1623092E-001  0.3487951E+03  0.7818608E-02  0.1063136E+00
         21   -1    0    0  503  502  0.00000000000E+00  0.00000000000E+00  0.23338364436E+03  0.23338364436E+03  0.00000000000E+00 0.  1.
         21   -1    0    0  501  503 -0.00000000000E+00 -0.00000000000E+00 -0.14824013405E+04  0.14824013405E+04  0.00000000000E+00 0. -1.
          6    2    1    2  501    0  0.20185820830E+03  0.22642437153E+03 -0.13153421757E+04  0.13607399439E+04  0.17167825549E+03 0.  0.
         24    2    3    3    0    0  0.10142887729E+03  0.20938554920E+03 -0.96747592089E+03  0.99823560842E+03  0.79589867751E+02 0.  0.
         -6    2    1    2    0  502 -0.20185820830E+03 -0.22642437153E+03  0.66324479571E+02  0.35504504098E+03  0.17217233301E+03 0.  0.
        -24    2    5    5    0    0 -0.22029298370E+03 -0.23004157148E+03  0.55104196900E+02  0.33266402620E+03  0.78617800374E+02 0.  0.
          5    1    3    3  501    0  0.10042933100E+03  0.17038822337E+02 -0.34786625481E+03  0.36250433546E+03  0.47000000000E+01 0. -1.
        -13    1    4    4    0    0  0.29198802617E+02  0.11338633756E+03 -0.34656897294E+03  0.36581290932E+03  0.00000000000E+00 0.  1.
         14    1    4    4    0    0  0.72230074674E+02  0.95999211637E+02 -0.62090694795E+03  0.63242269910E+03  0.00000000000E+00 0. -1.
         -5    1    5    5    0  502  0.18434775401E+02  0.36171999419E+01  0.11220282671E+02  0.22381014784E+02  0.47000000000E+01 0.  1.
         13    1    6    6    0    0 -0.14946223976E+03 -0.99534348834E+02  0.31249649146E+02  0.18227064570E+03  0.00000000000E+00 0. -1.
        -14    1    6    6    0    0 -0.70830743934E+02 -0.13050722264E+03  0.23854547754E+02  0.15039338049E+03  0.00000000000E+00 0.  1.
</event>
<event>
12    1  0.1623092E-001  0.1992570E+03  0.7818608E-02  0.1150570E+00
         21   -1    0    0  503  502  0.00000000000E+00  0.00000000000E+00  0.37312880869E+03  0.37312880869E+03  0.00000000000E+00 0. -1.
         21   -1    0    0  501  503 -0.00000000000E+00 -0.00000000000E+00 -0.11258952233E+03  0.11258952233E+03  0.00000000000E+00 0. -1.
          6    2    1    2  501    0  0.70012054950E+02 -0.43648964349E+02  0.70772637291E+02  0.21055519675E+03  0.18032693853E+03 0.  0.
         24    2    3    3    0    0 -0.33123409183E+02 -0.27097630702E+02  0.48198301776E+02  0.10358528868E+03  0.81088802630E+02 0.  0.
         -6    2    1    2    0  502 -0.70012054950E+02  0.43648964349E+02  0.18976664906E+03  0.27516313428E+03  0.18137378378E+03 0.  0.
        -24    2    5    5    0    0  0.49091748720E+01  0.15087709009E+02  0.17585110489E+03  0.19364829910E+03  0.79525553705E+02 0.  0.
          5    1    3    3  501    0  0.10313546413E+03 -0.16551333647E+02  0.22574335515E+02  0.10696990806E+03  0.47000000000E+01 0. -1.
        -11    1    4    4    0    0 -0.29735973278E+02 -0.55529348253E+02  0.34944954396E+02  0.72033925770E+02  0.00000000000E+00 0.  1.
         12    1    4    4    0    0 -0.33874359050E+01  0.28431717551E+02  0.13253347380E+02  0.31551362913E+02  0.00000000000E+00 0. -1.
         -5    1    5    5    0  502 -0.74921229822E+02  0.28561255340E+02  0.13915544176E+02  0.81514835180E+02  0.47000000000E+01 0.  1.
         13    1    6    6    0    0  0.37669097506E+02  0.21506597927E+02  0.67190662404E+02  0.79975494844E+02  0.00000000000E+00 0. -1.
        -14    1    6    6    0    0 -0.32759922634E+02 -0.64188889182E+01  0.10866044248E+03  0.11367280425E+03  0.00000000000E+00 0.  1.
</event>
<event>
12    1  0.1623092E-001  0.2088125E+03  0.7818608E-02  0.1142999E+00
         21   -1    0    0  501  502  0.00000000000E+00  0.00000000000E+00  0.53398103485E+02  0.53398103485E+02  0.00000000000E+00 0. -1.
         21   -1    0    0  502  503 -0.00000000000E+00 -0.00000000000E+00 -0.80805270354E+03  0.80805270354E+03  0.00000000000E+00 0. -1.
         -6    2    1    2    0  503  0.63390528260E+02 -0.96983187491E+02 -0.35997891945E+03  0.41494039461E+03  0.17078234950E+03 0.  0.
        -24    2    3    3    0    0  0.15897288230E+02 -0.80269384204E+02 -0.10701090111E+03  0.15696778488E+03  0.80570805630E+02 0.  0.
          6    2    1    2  501    0 -0.63390528260E+02  0.96983187491E+02 -0.39467568061E+03  0.44651041242E+03  0.17371976803E+03 0.  0.
         24    2    5    5    0    0  0.17656431691E+02  0.15967736464E+02 -0.92134739401E+02  0.12295945178E+03  0.77868468523E+02 0.  0.
          5    1    5    5  501    0 -0.81046959951E+02  0.81015451027E+02 -0.30254094121E+03  0.32355096064E+03  0.47000000000E+01 0. -1.
        -13    1    6    6    0    0  0.13297587436E+02 -0.20341660909E+02 -0.81245816622E+02  0.84802663394E+02  0.00000000000E+00 0.  1.
         14    1    6    6    0    0  0.43588442552E+01  0.36309397373E+02 -0.10888922779E+02  0.38156788388E+02  0.00000000000E+00 0. -1.
         -5    1    3    3    0  503  0.47493240030E+02 -0.16713803286E+02 -0.25296801833E+03  0.25797260972E+03  0.47000000000E+01 0.  1.
         11    1    4    4    0    0  0.42477680251E+02 -0.16194895833E+02 -0.41466346959E+02  0.61531178281E+02  0.00000000000E+00 0. -1.
        -12    1    4    4    0    0 -0.26580392021E+02 -0.64074488372E+02 -0.65544554153E+02  0.95436606599E+02  0.00000000000E+00 0.  1.
</event>
<event>
12    1  0.1623092E-001  0.2207572E+03  0.7818608E-02  0.1133977E+00
         21   -1    0    0  501  502  0.00000000000E+00  0.00000000000E+00  0.54134620379E+03  0.54134620379E+03  0.00000000000E+00 0. -1.
         21   -1    0    0  502  503 -0.00000000000E+00 -0.00000000000E+00 -0.19870910703E+03  0.19870910703E+03  0.00000000000E+00 0. -1.
         -6    2    1    2    0  503  0.11511094163E+03  0.72591117294E+02 -0.10474050787E+03  0.24117610103E+03  0.16933794178E+03 0.  0.
        -24    2    3    3    0    0  0.99766085944E+02  0.58309422969E+02 -0.10817886099E+02  0.14482787702E+03  0.86630402237E+02 0.  0.
          6    2    1    2  501    0 -0.11511094163E+03 -0.72591117294E+02  0.44737760463E+03  0.49887920979E+03  0.17382101612E+03 0.  0.
         24    2    5    5    0    0 -0.13411122986E+03 -0.77872620296E+02  0.27680334664E+03  0.32710443657E+03  0.79544030228E+02 0.  0.
          5    1    5    5  501    0  0.19000288228E+02  0.52815030024E+01  0.17057425799E+03  0.17177477322E+03  0.47000000000E+01 0. -1.
        -11    1    6    6    0    0 -0.29188192574E+02  0.44055255135E+01  0.14568664289E+02  0.32918159425E+02  0.00000000000E+00 0.  1.
         12    1    6    6    0    0 -0.10492303729E+03 -0.82278145810E+02  0.26223468235E+03  0.29418627714E+03  0.00000000000E+00 0. -1.
         -5    1    3    3    0  503  0.15344855690E+02  0.14281694326E+02 -0.93922621771E+02  0.96348224007E+02  0.47000000000E+01 0.  1.
         11    1    4    4    0    0  0.24953336107E+02 -0.10514090786E+02 -0.31030079067E+02  0.41183502702E+02  0.00000000000E+00 0. -1.
        -12    1    4    4    0    0  0.74812749837E+02  0.68823513755E+02  0.20212192968E+02  0.10364437432E+03  0.00000000000E+00 0.  1.
</event>
<event>
12    1  0.1623092E-001  0.2586898E+03  0.7818608E-02  0.1108587E+00
         21   -1    0    0  501  502  0.00000000000E+00  0.00000000000E+00  0.18423515859E+03  0.18423515859E+03  0.00000000000E+00 0.  1.
         21   -1    0    0  502  503 -0.00000000000E+00 -0.00000000000E+00 -0.35732143847E+03  0.35732143847E+03  0.00000000000E+00 0.  1.
         -6    2    1    2    0  503 -0.14084967044E+03  0.12012713095E+03 -0.91444259854E+02  0.27437652043E+03  0.18069661051E+03 0.  0.
        -24    2    3    3    0    0 -0.67663269682E+02  0.24075172833E+02 -0.10925234206E+03  0.15222315082E+03  0.77960768276E+02 0.  0.
          6    2    1    2  501    0  0.14084967044E+03 -0.12012713095E+03 -0.81642020028E+02  0.26718007663E+03  0.17450105061E+03 0.  0.
         24    2    5    5    0    0  0.15419704585E+03 -0.13484291434E+03 -0.98223660862E+02  0.24087898304E+03  0.80096544369E+02 0.  0.
          5    1    5    5  501    0 -0.13347375418E+02  0.14715783389E+02  0.16581640834E+02  0.26301093591E+02  0.47000000000E+01 0. -1.
        -11    1    6    6    0    0  0.11277794165E+03 -0.45963255130E+02 -0.58041808216E+02  0.13490862258E+03  0.00000000000E+00 0.  1.
         12    1    6    6    0    0  0.41419104203E+02 -0.88879659210E+02 -0.40181852646E+02  0.10597036046E+03  0.00000000000E+00 0. -1.
         -5    1    3    3    0  503 -0.73186400755E+02  0.96051958118E+02  0.17808082204E+02  0.12215336960E+03  0.47000000000E+01 0.  1.
         11    1    4    4    0    0 -0.32952352021E+02  0.46783747749E+02 -0.89623057299E+02  0.10633376207E+03  0.00000000000E+00 0. -1.
        -12    1    4    4    0    0 -0.34710917661E+02 -0.22708574916E+02 -0.19629284759E+02  0.45889388748E+02  0.00000000000E+00 0.  1.
</event>
<event>
12    1  0.1623092E-001  0.1786818E+03  0.7818608E-02  0.1169404E+00
         21   -1    0    0  503  502  0.00000000000E+00  0.00000000000E+00  0.17849905842E+04  0.17849905842E+04  0.00000000000E+00 0.  1.
         21   -1    0    0  501  503 -0.00000000000E+00 -0.00000000000E+00 -0.19672913935E+02  0.19672913935E+02  0.00000000000E+00 0.  1.
          6    2    1    2  501    0 -0.40805629751E+02 -0.20955658355E+02  0.11671877162E+04  0.11807854739E+04  0.17269317150E+03 0.  0.
         24    2    3    3    0    0  0.23598262543E+02 -0.52525301668E+02  0.52961416782E+03  0.53917295585E+03  0.83069394210E+02 0.  0.
         -6    2    1    2    0  502  0.40805629751E+02  0.20955658355E+02  0.59812995407E+03  0.62387802424E+03  0.17134791548E+03 0.  0.
        -24    2    5    5    0    0 -0.15412649074E+02  0.52555491664E+01  0.52010498703E+03  0.52632304598E+03  0.79003674879E+02 0.  0.
          5    1    3    3  501    0 -0.64403892294E+02  0.31569643313E+02  0.63757354834E+03  0.64161251800E+03  0.47000000000E+01 0. -1.
        -11    1    4    4    0    0  0.10755235018E+02 -0.39401651665E+02  0.51233045275E+03  0.51395589115E+03  0.00000000000E+00 0.  1.
         12    1    4    4    0    0  0.12843027526E+02 -0.13123650004E+02  0.17283715072E+02  0.25217064701E+02  0.00000000000E+00 0. -1.
         -5    1    5    5    0  502  0.56218278824E+02  0.15700109188E+02  0.78024967035E+02  0.97554978260E+02  0.47000000000E+01 0.  1.
         13    1    6    6    0    0  0.15364160620E+02  0.19626169234E+02  0.60069221517E+02  0.65035031513E+02  0.00000000000E+00 0. -1.
        -14    1    6    6    0    0 -0.30776809694E+02 -0.14370620067E+02  0.46003576552E+03  0.46128801447E+03  0.00000000000E+00 0.  1.
</event>
<event>
12    1  0.1623092E-001  0.2208423E+03  0.7818608E-02  0.1133313E+00
         21   -1    0    0  503  502  0.00000000000E+00  0.00000000000E+00  0.60120288889E+03  0.60120288889E+03  0.00000000000E+00 0. -1.
         21   -1    0    0  501  503 -0.00000000000E+00 -0.00000000000E+00 -0.95891378881E+02  0.95891378881E+02  0.00000000000E+00 0. -1.
          6    2    1    2  501    0 -0.10599881504E+03 -0.88911863923E+02  0.11520346854E+03  0.24881356996E+03  0.17174191421E+03 0.  0.
         24    2    3    3    0    0  0.15116404139E+02 -0.37132373724E+02  0.24612604987E+02  0.88879813421E+02  0.75409031667E+02 0.  0.
         -6    2    1    2    0  502  0.10599881504E+03  0.88911863923E+02  0.39010804147E+03  0.44828069780E+03  0.17213434193E+03 0.  0.
        -24    2    5    5    0    0  0.30415099870E+02  0.10328047965E+03  0.13483527872E+03  0.18162431120E+03  0.56700108063E+02 0.  0.
          5    1    3    3  501    0 -0.12111521918E+03 -0.51779490199E+02  0.90590863552E+02  0.15993375654E+03  0.47000000000E+01 0. -1.
        -13    1    4    4    0    0  0.75689339233E+01 -0.46362722313E+02 -0.13555129837E+02  0.48893070326E+02  0.00000000000E+00 0.  1.
         14    1    4    4    0    0  0.75474702159E+01  0.92303485886E+01  0.38167734824E+02  0.39986743095E+02  0.00000000000E+00 0. -1.
         -5    1    5    5    0  502  0.75583715172E+02 -0.14368615726E+02  0.25527276275E+03  0.26665638661E+03  0.47000000000E+01 0.  1.
         13    1    6    6    0    0  0.42994055602E+02  0.87199079700E+02  0.12656552156E+03  0.15959636451E+03  0.00000000000E+00 0. -1.
        -14    1    6    6    0    0 -0.12578955732E+02  0.16081399949E+02  0.82697571531E+01  0.22027946682E+02  0.00000000000E+00 0.  1.
</event>
<event>
12    1  0.1623092E-001  0.3887401E+03  0.7818608E-02  0.1047768E+00
         21   -1    0    0  503  502  0.00000000000E+00  0.00000000000E+00  0.15407850476E+04  0.15407850476E+04  0.00000000000E+00 0.  1.
         21   -1    0    0  501  503 -0.00000000000E+00 -0.00000000000E+00 -0.98028380091E+02  0.98028380091E+02  0.00000000000E+00 0. -1.
          6    2    1    2  501    0 -0.31426342587E+02  0.34704082956E+03  0.72080264674E+03  0.81894766749E+03  0.17231910557E+03 0.  0.
         24    2    3    3    0    0 -0.85549146009E+02  0.26065172420E+03  0.49356236218E+03  0.56984409003E+03  0.76553927849E+02 0.  0.
         -6    2    1    2    0  502  0.31426342587E+02 -0.34704082956E+03  0.72195402073E+03  0.81986576017E+03  0.17186420295E+03 0.  0.
        -24    2    5    5    0    0  0.56093648073E+02 -0.15886021403E+03  0.45613731856E+03  0.49321452540E+03  0.82560582167E+02 0.  0.
          5    1    3    3  501    0  0.54122803422E+02  0.86389105361E+02  0.22724028456E+03  0.24910357746E+03  0.47000000000E+01 0. -1.
        -13    1    4    4    0    0 -0.34869327476E+02  0.29527254774E+02  0.11079083503E+03  0.11984297184E+03  0.00000000000E+00 0.  1.
         14    1    4    4    0    0 -0.50679818534E+02  0.23112446942E+03  0.38277152715E+03  0.45000111819E+03  0.00000000000E+00 0. -1.
         -5    1    5    5    0  502 -0.24667305486E+02 -0.18818061553E+03  0.26581670217E+03  0.32665123477E+03  0.47000000000E+01 0.  1.
         11    1    6    6    0    0  0.53246996906E+02 -0.13173379329E+03  0.27014858173E+03  0.30523645127E+03  0.00000000000E+00 0. -1.
        -12    1    6    6    0    0  0.28466511670E+01 -0.27126420733E+02  0.18598873683E+03  0.18797807413E+03  0.00000000000E+00 0.  1.
</event>
<event>
12    1  0.1623092E-001  0.2079746E+03  0.7818608E-02  0.1143383E+00
         21   -1    0    0  501  502  0.00000000000E+00  0.00000000000E+00  0.20036470739E+04  0.20036470739E+04  0.00000000000E+00 0. -1.
         21   -1    0    0  502  503 -0.00000000000E+00 -0.00000000000E+00 -0.22697721472E+02  0.22697721472E+02  0.00000000000E+00 0. -1.
         -6    2    1    2    0  503  0.11211667413E+03 -0.28600843685E+02  0.12225942254E+04  0.12399886948E+04  0.17160176706E+03 0.  0.
        -24    2    3    3    0    0  0.13596309426E+03  0.10259696786E+02  0.87034397932E+03  0.88476887666E+03  0.82012794093E+02 0.  0.
          6    2    1    2  501    0 -0.11211667413E+03  0.28600843685E+02  0.75835512708E+03  0.78635610059E+03  0.17281568588E+03 0.  0.
         24    2    5    5    0    0 -0.10174789742E+03  0.55832736322E+02  0.73603325172E+03  0.74935010612E+03  0.79439944791E+02 0.  0.
          5    1    5    5  501    0 -0.10368776716E+02 -0.27231892637E+02  0.22321875365E+02  0.37005994474E+02  0.47000000000E+01 0. -1.
        -11    1    6    6    0    0 -0.71952631701E+02  0.55738585600E+02  0.67832449010E+03  0.68440345193E+03  0.00000000000E+00 0.  1.
         12    1    6    6    0    0 -0.29795265718E+02  0.94150721929E-01  0.57708761612E+02  0.64946654189E+02  0.00000000000E+00 0. -1.
         -5    1    3    3    0  503 -0.23846420126E+02 -0.38860540471E+02  0.35225024607E+03  0.35521981816E+03  0.47000000000E+01 0.  1.
         11    1    4    4    0    0  0.33708969494E+02  0.36034840151E+02  0.38166343417E+03  0.38483994246E+03  0.00000000000E+00 0. -1.
        -12    1    4    4    0    0  0.10225412477E+03 -0.25775143366E+02  0.48868054515E+03  0.49992893420E+03  0.00000000000E+00 0.  1.
</event>
<event>
12    1  0.1623092E-001  0.1754118E+03  0.7818608E-02  0.1172480E+00
         21   -1    0    0  503  502  0.00000000000E+00  0.00000000000E+00  0.41931111342E+03  0.41931111342E+03  0.00000000000E+00 0. -1.
         21   -1    0    0  501  503 -0.00000000000E+00 -0.00000000000E+00 -0.34786175816E+03  0.34786175816E+03  0.00000000000E+00 0. -1.
          6    2    1    2  501    0  0.32876949135E+02  0.20084262962E+02 -0.30519045568E+03  0.35168900744E+03  0.17046897755E+03 0.  0.
         24    2    3    3    0    0  0.75472089301E+02  0.19463515885E+02 -0.28126524487E+03  0.30260502833E+03  0.79904946554E+02 0.  0.
         -6    2    1    2    0  502 -0.32876949135E+02 -0.20084262962E+02  0.37663981095E+03  0.41548386415E+03  0.17112867315E+03 0.  0.
        -24    2    5    5    0    0  0.40561167693E+02  0.18135301351E+02  0.19323615896E+03  0.21420574397E+03  0.81054241967E+02 0.  0.
          5    1    3    3  501    0 -0.42595140165E+02  0.62074707776E+00 -0.23925210818E+02  0.49083979111E+02  0.47000000000E+01 0. -1.
        -11    1    4    4    0    0  0.27837464977E+02 -0.20966673377E+02 -0.38507888337E+02  0.51936339041E+02  0.00000000000E+00 0.  1.
         12    1    4    4    0    0  0.47634624324E+02  0.40430189261E+02 -0.24275735653E+03  0.25066868928E+03  0.00000000000E+00 0. -1.
         -5    1    5    5    0  502 -0.73438116828E+02 -0.38219564313E+02  0.18340365199E+03  0.20127812018E+03  0.47000000000E+01 0.  1.
         11    1    6    6    0    0  0.33850441803E+02 -0.38011242926E+01  0.18748717561E+03  0.19055640103E+03  0.00000000000E+00 0. -1.
        -12    1    6    6    0    0  0.67107258900E+01  0.21936425643E+02  0.57489833526E+01  0.23649342942E+02  0.00000000000E+00 0.  1.
</event>
<event>
12    1  0.1623092E-001  0.1723726E+03  0.7818608E-02  0.1175568E+00
         21   -1    0    0  501  502  0.00000000000E+00  0.00000000000E+00  0.66471792986E+02  0.66471792986E+02  0.00000000000E+00 0.  1.
         21   -1    0    0  502  503 -0.00000000000E+00 -0.00000000000E+00 -0.66678768005E+03  0.66678768005E+03  0.00000000000E+00 0.  1.
         -6    2    1    2    0  503  0.12874309498E+02  0.10685818173E+02 -0.51187225941E+03  0.54011620248E+03  0.17155864210E+03 0.  0.
        -24    2    3    3    0    0  0.52776109939E+02  0.57407548505E+02 -0.37199620678E+03  0.38726832431E+03  0.74260573318E+02 0.  0.
          6    2    1    2  501    0 -0.12874309498E+02 -0.10685818173E+02 -0.88443627656E+02  0.19314327055E+03  0.17088625788E+03 0.  0.
         24    2    5    5    0    0  0.56936200340E+01 -0.64288873849E+02 -0.90946079490E+02  0.13616601325E+03  0.78131409680E+02 0.  0.
          5    1    5    5  501    0 -0.18567929532E+02  0.53603055676E+02  0.25024518345E+01  0.56977257306E+02  0.47000000000E+01 0. -1.
        -11    1    6    6    0    0 -0.34801602283E+02 -0.42019772951E+02 -0.56360308083E+02  0.78442954863E+02  0.00000000000E+00 0.  1.
         12    1    6    6    0    0  0.40495222317E+02 -0.22269100898E+02 -0.34585771407E+02  0.57723058383E+02  0.00000000000E+00 0. -1.
         -5    1    3    3    0  503 -0.39901800441E+02 -0.46721730332E+02 -0.13987605262E+03  0.15284787817E+03  0.47000000000E+01 0.  1.
         13    1    4    4    0    0  0.31666513921E+02  0.49510557483E+02 -0.11370524127E+03  0.12799588000E+03  0.00000000000E+00 0. -1.
        -14    1    4    4    0    0  0.21109596018E+02  0.78969910224E+01 -0.25829096552E+03  0.25927244431E+03  0.00000000000E+00 0.  1.
</event>
<event>
12    1  0.1623092E-001  0.1750583E+03  0.7818608E-02  0.1173018E+00
         21   -1    0    0  501  502  0.00000000000E+00  0.00000000000E+00  0.12426964793E+03  0.12426964793E+03  0.00000000000E+00 0. -1.
         21   -1    0    0  502  503 -0.00000000000E+00 -0.00000000000E+00 -0.25127923084E+03  0.25127923084E+03  0.00000000000E+00 0. -1.
         -6    2    1    2    0  503 -0.32631504800E+02  0.11911703341E+02 -0.32826271640E+02  0.17676282661E+03  0.17017881472E+03 0.  0.
        -24    2    3    3    0    0  0.46828436675E+02 -0.14961822159E+02 -0.17930038762E+02  0.91439579918E+02  0.74986344635E+02 0.  0.
          6    2    1    2  501    0  0.32631504800E+02 -0.11911703341E+02 -0.94183311269E+02  0.19878605216E+03  0.17157708072E+03 0.  0.
         24    2    5    5    0    0  0.22076900186E+02 -0.39957528161E+02  0.67244990632E+01  0.93417915822E+02  0.81226193622E+02 0.  0.
          5    1    5    5  501    0  0.10554604614E+02  0.28045824821E+02 -0.10090781033E+03  0.10536813633E+03  0.47000000000E+01 0. -1.
        -13    1    6    6    0    0  0.50241766351E+02 -0.13295094437E+02  0.14298091187E+02  0.53902041091E+02  0.00000000000E+00 0.  1.
         14    1    6    6    0    0 -0.28164866164E+02 -0.26662433724E+02 -0.75735921236E+01  0.39515874731E+02  0.00000000000E+00 0. -1.
         -5    1    3    3    0  503 -0.79459941475E+02  0.26873525499E+02 -0.14896232878E+02  0.85323246691E+02  0.47000000000E+01 0.  1.
         13    1    4    4    0    0  0.34614216245E+02 -0.33464308460E+02  0.16150517618E+02  0.50782311155E+02  0.00000000000E+00 0. -1.
        -14    1    4    4    0    0  0.12214220430E+02  0.18502486301E+02 -0.34080556380E+02  0.40657268763E+02  0.00000000000E+00 0.  1.
</event>
<event>
12    1  0.1623092E-001  0.1819060E+03  0.7818608E-02  0.1166248E+00
         21   -1    0    0  501  502  0.00000000000E+00  0.00000000000E+00  0.10179412191E+04  0.10179412191E+04  0.00000000000E+00 0.  1.
         21   -1    0    0  502  503 -0.00000000000E+00 -0.00000000000E+00 -0.44868142462E+02  0.44868142462E+02  0.00000000000E+00 0.  1.
         -6    2    1    2    0  503 -0.66560584930E+01 -0.55225061361E+02  0.20640834466E+03  0.27512575233E+03  0.17319256430E+03 0.  0.
        -24    2    3    3    0    0 -0.36214378415E+02 -0.65341848616E+01  0.33051321152E+02  0.92590157630E+02  0.78271135703E+02 0.  0.
          6    2    1    2  501    0  0.66560584930E+01  0.55225061361E+02  0.76666473193E+03  0.78768360919E+03  0.17197833144E+03 0.  0.
         24    2    5    5    0    0 -0.38826606823E+02  0.67354918128E+02  0.34713144876E+03  0.36549162448E+03  0.83902887021E+02 0.  0.
          5    1    5    5  501    0  0.45482665316E+02 -0.12129856768E+02  0.41953328317E+03  0.42219198471E+03  0.47000000000E+01 0. -1.
        -11    1    6    6    0    0  0.23533606807E+01  0.70685338317E+02  0.25285982540E+03  0.26256436670E+03  0.00000000000E+00 0.  1.
         12    1    6    6    0    0 -0.41179967504E+02 -0.33304201889E+01  0.94271623360E+02  0.10292725778E+03  0.00000000000E+00 0. -1.
         -5    1    3    3    0  503  0.29558319922E+02 -0.48690876499E+02  0.17335702351E+03  0.18253559470E+03  0.47000000000E+01 0.  1.
         13    1    4    4    0    0  0.80936697525E+01 -0.31940062573E+02  0.23892405674E+02  0.40700394791E+02  0.00000000000E+00 0. -1.
        -14    1    4    4    0    0 -0.44308048168E+02  0.25405877712E+02  0.91589154787E+01  0.51889762839E+02  0.00000000000E+00 0.  1.
</event>
<event>
12    1  0.1623092E-001  0.2657090E+03  0.7818608E-02  0.1104700E+00
         21   -1    0    0  501  502  0.00000000000E+00  0.00000000000E+00  0.10650507067E+04  0.10650507067E+04  0.00000000000E+00 0.  1.
         21   -1    0    0  502  503 -0.00000000000E+00 -0.00000000000E+00 -0.83495953485E+02  0.83495953485E+02  0.00000000000E+00 0.  1.
         -6    2    1    2    0  503 -0.16808925144E+03 -0.11339687432E+03  0.21383579198E+03  0.33614671272E+03  0.16172822570E+03 0.  0.
        -24    2    3    3    0    0 -0.17203499308E+03 -0.62632730295E+02  0.20083042732E+03  0.28338501539E+03  0.80344935482E+02 0.  0.
          6    2    1    2  501    0  0.16808925144E+03  0.11339687432E+03  0.76771896126E+03  0.81239994749E+03  0.17172193700E+03 0.  0.
         24    2    5    5    0    0  0.82463087896E+02  0.22071536297E+02  0.20599049110E+03  0.23687138917E+03  0.79929087358E+02 0.  0.
          5    1    5    5  501    0  0.85626163542E+02  0.91325338024E+02  0.56172847016E+03  0.57552855832E+03  0.47000000000E+01 0. -1.
        -13    1    6    6    0    0  0.13217900158E+02 -0.11248828195E+02  0.12121370326E+03  0.12245003421E+03  0.00000000000E+00 0.  1.
         14    1    6    6    0    0  0.69245187739E+02  0.33320364493E+02  0.84776787835E+02  0.11442135496E+03  0.00000000000E+00 0. -1.
         -5    1    3    3    0  503  0.39457416458E+01 -0.50764144026E+02  0.13005364660E+02  0.52761697335E+02  0.47000000000E+01 0.  1.
         13    1    4    4    0    0 -0.23276848998E+02 -0.26931427711E+02  0.67014548775E+01  0.36221857978E+02  0.00000000000E+00 0. -1.
        -14    1    4    4    0    0 -0.14875814409E+03 -0.35701302584E+02  0.19412897244E+03  0.24716315741E+03  0.00000000000E+00 0.  1.
</event>
<event>
12    1  0.1623092E-001  0.1753225E+03  0.7818608E-02  0.1172535E+00
         21   -1    0    0  501  502  0.00000000000E+00  0.00000000000E+00  0.46187073092E+02  0.46187073092E+02  0.00000000000E+00 0.  1.
         21   -1    0    0  502  503 -0.00000000000E+00 -0.00000000000E+00 -0.70397316592E+03  0.70397316592E+03  0.00000000000E+00 0. -1.
         -6    2    1    2    0  503 -0.90728014461E+01 -0.33314749469E+02 -0.41917053674E+03  0.45435880763E+03  0.17188891453E+03 0.  0.
        -24    2    3    3    0    0  0.59306468278E+02 -0.17553507288E+02 -0.29514968474E+03  0.31178460585E+03  0.79189148512E+02 0.  0.
          6    2    1    2  501    0  0.90728014461E+01  0.33314749469E+02 -0.23861555608E+03  0.29580143138E+03  0.17137361215E+03 0.  0.
         24    2    5    5    0    0  0.11283462023E+01 -0.45140832531E+02 -0.15977452022E+03  0.18419322536E+03  0.79751357530E+02 0.  0.
          5    1    5    5  501    0  0.79444552438E+01  0.78455582000E+02 -0.78841035858E+02  0.11160820602E+03  0.47000000000E+01 0. -1.
        -11    1    6    6    0    0 -0.38806237902E+02 -0.28170971153E+02 -0.76373227998E+02  0.90179807444E+02  0.00000000000E+00 0.  1.
         12    1    6    6    0    0  0.39934584104E+02 -0.16969861379E+02 -0.83401292226E+02  0.94013417913E+02  0.00000000000E+00 0. -1.
         -5    1    3    3    0  503 -0.68379269724E+02 -0.15761242181E+02 -0.12402085200E+03  0.14257420178E+03  0.47000000000E+01 0.  1.
         13    1    4    4    0    0 -0.29130769684E+00 -0.25459128657E+02 -0.18089455578E+03  0.18267756404E+03  0.00000000000E+00 0. -1.
        -14    1    4    4    0    0  0.59597775975E+02  0.79056213690E+01 -0.11425512896E+03  0.12910704181E+03  0.00000000000E+00 0.  1.
</event>
<event>
12    1  0.1623092E-001  0.2717202E+03  0.7818608E-02  0.1100469E+00
         21   -1    0    0  501  502  0.00000000000E+00  0.00000000000E+00  0.22335579167E+03  0.22335579167E+03  0.00000000000E+00 0. -1.
         21   -1    0    0  502  503 -0.00000000000E+00 -0.00000000000E+00 -0.75533541540E+03  0.75533541540E+03  0.00000000000E+00 0.  1.
         -6    2    1    2    0  503 -0.33824711523E+02 -0.20723750797E+03 -0.63383638542E+03  0.68962340958E+03  0.17245401629E+03 0.  0.
        -24    2    3    3    0    0 -0.41109669246E+02 -0.46770630360E+02 -0.15975451401E+03  0.18904534352E+03  0.79618718840E+02 0.  0.
          6    2    1    2  501    0  0.33824711523E+02  0.20723750797E+03  0.10185676169E+03  0.28906779749E+03  0.17056932849E+03 0.  0.
         24    2    5    5    0    0 -0.76658214841E+01  0.17308658657E+03  0.17420099249E+02  0.18887104242E+03  0.73151073382E+02 0.  0.
          5    1    5    5  501    0  0.41490533008E+02  0.34150921403E+02  0.84436662445E+02  0.10019675507E+03  0.47000000000E+01 0. -1.
        -11    1    6    6    0    0 -0.49459861549E+00  0.87709549651E+02 -0.27775280117E+02  0.92003673369E+02  0.00000000000E+00 0.  1.
         12    1    6    6    0    0 -0.71712228686E+01  0.85377036919E+02  0.45195379366E+02  0.96867369050E+02  0.00000000000E+00 0. -1.
         -5    1    3    3    0  503  0.72849577224E+01 -0.16046687761E+03 -0.47408187141E+03  0.50057806606E+03  0.47000000000E+01 0.  1.
         11    1    4    4    0    0 -0.32884334251E+01  0.22091673090E+02 -0.40168995966E+02  0.45960896980E+02  0.00000000000E+00 0. -1.
        -12    1    4    4    0    0 -0.37821235821E+02 -0.68862303450E+02 -0.11958551805E+03  0.14308444654E+03  0.00000000000E+00 0.  1.
</event>
<event>
12    1  0.1623092E-001  0.1787364E+03  0.7818608E-02  0.1169277E+00
         21   -1    0    0  503  502  0.00000000000E+00  0.00000000000E+00  0.11610053504E+03  0.11610053504E+03  0.00000000000E+00 0.  1.
         21   -1    0    0  501  503 -0.00000000000E+00 -0.00000000000E+00 -0.29656850714E+03  0.29656850714E+03  0.00000000000E+00 0.  1.
          6    2    1    2  501    0  0.41624853964E+02 -0.21148280512E+02 -0.32603989538E+02  0.18069822990E+03  0.17149038434E+03 0.  0.
         24    2    3    3    0    0  0.29994766185E+02 -0.74951560842E+02  0.18666392017E+01  0.11558013594E+03  0.82691359950E+02 0.  0.
         -6    2    1    2    0  502 -0.41624853964E+02  0.21148280512E+02 -0.14786398257E+03  0.23197081227E+03  0.17253064125E+03 0.  0.
        -24    2    5    5    0    0 -0.73486098403E+02 -0.31254840843E+02 -0.62843234867E+02  0.12703348067E+03  0.76230973411E+02 0.  0.
          5    1    3    3  501    0  0.11630087779E+02  0.53803280330E+02 -0.34470628740E+02  0.65118093965E+02  0.47000000000E+01 0. -1.
        -13    1    4    4    0    0 -0.12353166695E+02  0.11379007918E+02  0.91876767383E+01  0.19144084006E+02  0.00000000000E+00 0.  1.
         14    1    4    4    0    0  0.42347932880E+02 -0.86330568760E+02 -0.73210375366E+01  0.96436051932E+02  0.00000000000E+00 0. -1.
         -5    1    5    5    0  502  0.31861244439E+02  0.52403121356E+02 -0.85020747702E+02  0.10493733161E+03  0.47000000000E+01 0.  1.
         13    1    6    6    0    0  0.93511805838E+01  0.76692341284E+01  0.50182397316E+01  0.13093680171E+02  0.00000000000E+00 0. -1.
        -14    1    6    6    0    0 -0.82837278986E+02 -0.38924074972E+02 -0.67861474598E+02  0.11393980050E+03  0.00000000000E+00 0.  1.
</event>
<event>
12    1  0.1623092E-001  0.2676495E+03  0.7818608E-02  0.1102665E+00
         21   -1    0    0  501  502  0.00000000000E+00  0.00000000000E+00  0.32800996703E+04  0.32800996703E+04  0.00000000000E+00 0.  1.
         21   -1    0    0  502  503 -0.00000000000E+00 -0.00000000000E+00 -0.23208908959E+02  0.23208908959E+02  0.00000000000E+00 0. -1.
         -6    2    1    2    0  503 -0.71318930386E+02 -0.19203554322E+03  0.12252362122E+04  0.12541291921E+04  0.17225624819E+03 0.  0.
        -24    2    3    3    0    0 -0.90223225640E+02 -0.90405105413E+02  0.91057538792E+03  0.92288963737E+03  0.79148165772E+02 0.  0.
          6    2    1    2  501    0  0.71318930386E+02  0.19203554322E+03  0.20316545491E+04  0.20491793871E+04  0.17190670178E+03 0.  0.
         24    2    5    5    0    0  0.19336353291E+01  0.17372852569E+03  0.12904222533E+04  0.13044667765E+04  0.79111564797E+02 0.  0.
          5    1    5    5  501    0  0.69385295057E+02  0.18307017524E+02  0.74123229579E+03  0.74471261059E+03  0.47000000000E+01 0. -1.
        -13    1    6    6    0    0  0.12676046751E+02  0.10231029038E+03  0.99577739322E+03  0.10010997425E+04  0.00000000000E+00 0.  1.
         14    1    6    6    0    0 -0.10742411422E+02  0.71418235319E+02  0.29464486007E+03  0.30336703398E+03  0.00000000000E+00 0. -1.
         -5    1    3    3    0  503  0.18904295254E+02 -0.10163043780E+03  0.31466082430E+03  0.33123955473E+03  0.47000000000E+01 0.  1.
         11    1    4    4    0    0 -0.54452595634E+01 -0.17081149815E+02  0.28152293149E+02  0.33376161257E+02  0.00000000000E+00 0. -1.
        -12    1    4    4    0    0 -0.84777966077E+02 -0.73323955598E+02  0.88242309477E+03  0.88951347611E+03  0.00000000000E+00 0.  1.
</event>
<event>
12    1  0.1623092E-001  0.2194906E+03  0.7818608E-02  0.1135095E+00
         21   -1    0    0  501  502  0.00000000000E+00  0.00000000000E+00  0.27947284968E+03  0.27947284968E+03  0.00000000000E+00 0. -1.
         21   -1    0    0  502  503 -0.00000000000E+00 -0.00000000000E+00 -0.19511317873E+03  0.19511317873E+03  0.00000000000E+00 0.  1.
         -6    2    1    2    0  503  0.10768993800E+03 -0.72345903929E+02 -0.44347907721E+02  0.22392602547E+03  0.17704540492E+03 0.  0.
        -24    2    3    3    0    0  0.11264265857E+03 -0.69357286560E+02  0.23404306386E+02  0.15576508510E+03  0.78842871911E+02 0.  0.
          6    2    1    2  501    0 -0.10768993800E+03  0.72345903929E+02  0.12870757868E+03  0.25066000294E+03  0.17156265241E+03 0.  0.
         24    2    5    5    0    0 -0.87546923809E+02  0.18795585142E+02  0.12058665903E+02  0.12065063207E+03  0.79958900101E+02 0.  0.
          5    1    5    5  501    0 -0.20143014189E+02  0.53550318788E+02  0.11664891277E+03  0.13000937087E+03  0.47000000000E+01 0. -1.
        -13    1    6    6    0    0 -0.29349658447E+02  0.40979632070E+02 -0.15224725217E+02  0.52654771422E+02  0.00000000000E+00 0.  1.
         14    1    6    6    0    0 -0.58197265361E+02 -0.22184046928E+02  0.27283391120E+02  0.67995860644E+02  0.00000000000E+00 0. -1.
         -5    1    3    3    0  503 -0.49527205741E+01 -0.29886173690E+01 -0.67752214107E+02  0.68160940364E+02  0.47000000000E+01 0.  1.
         11    1    4    4    0    0  0.44008978276E+02 -0.40808859513E+02 -0.27145560297E+02  0.65871349064E+02  0.00000000000E+00 0. -1.
        -12    1    4    4    0    0  0.68633680295E+02 -0.28548427047E+02  0.50549866683E+02  0.89893736041E+02  0.00000000000E+00 0.  1.
</event>
<event>
12    1  0.1623092E-001  0.1928206E+03  0.7818608E-02  0.1156760E+00
         21   -1    0    0  501  502  0.00000000000E+00  0.00000000000E+00  0.11877245719E+03  0.11877245719E+03  0.00000000000E+00 0. -1.
         21   -1    0    0  502  503 -0.00000000000E+00 -0.00000000000E+00 -0.43085714231E+03  0.43085714231E+03  0.00000000000E+00 0. -1.
         -6    2    1    2    0  503 -0.68301255290E+00 -0.86540811562E+02 -0.30437936908E+03  0.36031456919E+03  0.17230789266E+03 0.  0.
        -24    2    3    3    0    0 -0.14438512350E+02 -0.22676671257E+02 -0.53356304650E+02  0.10088729408E+03  0.81293596319E+02 0.  0.
          6    2    1    2  501    0  0.68301255290E+00  0.86540811562E+02 -0.77053160427E+01  0.18931503032E+03  0.16819937645E+03 0.  0.
         24    2    5    5    0    0  0.58350970847E+02  0.21104150636E+02  0.13675669602E+02  0.99388468313E+02  0.76425275411E+02 0.  0.
          5    1    5    5  501    0 -0.57667958294E+02  0.65436660925E+02 -0.21380985644E+02  0.89926562005E+02  0.47000000000E+01 0. -1.
        -11    1    6    6    0    0 -0.12430790568E+02  0.26579901810E+01  0.22368184844E+02  0.25727906234E+02  0.00000000000E+00 0.  1.
         12    1    6    6    0    0  0.70781761415E+02  0.18446160455E+02 -0.86925152421E+01  0.73660562079E+02  0.00000000000E+00 0. -1.
         -5    1    3    3    0  503  0.13755499797E+02 -0.63864140305E+02 -0.25102306443E+03  0.25942727511E+03  0.47000000000E+01 0.  1.
         11    1    4    4    0    0  0.17566163413E+01 -0.25257138797E+02 -0.71843779330E+02  0.76174388015E+02  0.00000000000E+00 0. -1.
        -12    1    4    4    0    0 -0.16195128691E+02  0.25804675402E+01  0.18487474680E+02  0.24712906063E+02  0.00000000000E+00 0.  1.
</event>
<event>
12    1  0.1623092E-001  0.1748629E+03  0.7818608E-02  0.1173558E+00
         21   -1    0    0  503  502  0.00000000000E+00  0.00000000000E+00  0.52821707199E+02  0.52821707199E+02  0.00000000000E+00 0.  1.
         21   -1    0    0  501  503 -0.00000000000E+00 -0.00000000000E+00 -0.10920416234E+04  0.10920416234E+04  0.00000000000E+00 0.  1.
          6    2    1    2  501    0 -0.53271742081E+01 -0.18685579325E+02 -0.91329607603E+03  0.92937819843E+03  0.17104555989E+03 0.  0.
         24    2    3    3    0    0  0.45315192217E+02  0.45323066894E+01 -0.55840564639E+03  0.57011085151E+03  0.10552491953E+03 0.  0.
         -6    2    1    2    0  502  0.53271742081E+01  0.18685579325E+02 -0.12592384013E+03  0.21548513213E+03  0.17378003049E+03 0.  0.
        -24    2    5    5    0    0  0.48277428270E+02  0.63279717362E+02 -0.88743388356E+02  0.14311222653E+03  0.79187673886E+02 0.  0.
          5    1    3    3  501    0 -0.50642366426E+02 -0.23217886014E+02 -0.35489042964E+03  0.35926734692E+03  0.47000000000E+01 0. -1.
        -13    1    4    4    0    0 -0.26919352053E+02  0.28352286889E+01 -0.31622555016E+03  0.31738192861E+03  0.00000000000E+00 0.  1.
         14    1    4    4    0    0  0.72234544270E+02  0.16970780005E+01 -0.24218009623E+03  0.25272892290E+03  0.00000000000E+00 0. -1.
         -5    1    5    5    0  502 -0.42950254062E+02 -0.44594138037E+02 -0.37180451772E+02  0.72372905601E+02  0.47000000000E+01 0.  1.
         11    1    6    6    0    0  0.48889463164E+02  0.50464685043E+01 -0.61755045991E+02  0.78926118353E+02  0.00000000000E+00 0. -1.
        -12    1    6    6    0    0 -0.61203489476E+00  0.58233248857E+02 -0.26988342365E+02  0.64186108176E+02  0.00000000000E+00 0.  1.
</event>
<event>
12    1  0.1623092E-001  0.1767370E+03  0.7818608E-02  0.1171177E+00
         21   -1    0    0  501  502  0.00000000000E+00  0.00000000000E+00  0.95923918626E+03  0.95923918626E+03  0.00000000000E+00 0.  1.
         21   -1    0    0  502  503 -0.00000000000E+00 -0.00000000000E+00 -0.45629174990E+02  0.45629174990E+02  0.00000000000E+00 0.  1.
         -6    2    1    2    0  503 -0.16372120924E+02  0.32244662196E+02  0.18724876329E+03  0.25748412734E+03  0.17299772223E+03 0.  0.
        -24    2    3    3    0    0  0.47896344143E+02  0.58920596884E+02  0.11159351761E+03  0.15458686163E+03  0.75354416560E+02 0.  0.
          6    2    1    2  501    0  0.16372120924E+02 -0.32244662196E+02  0.72636124798E+03  0.74738423391E+03  0.17226365240E+03 0.  0.
         24    2    5    5    0    0  0.77172140412E+01  0.14313918447E+02  0.18123479689E+03  0.20018450207E+03  0.83446627317E+02 0.  0.
          5    1    5    5  501    0  0.86549068827E+01 -0.46558580643E+02  0.54512645109E+03  0.54719973184E+03  0.47000000000E+01 0. -1.
        -13    1    6    6    0    0  0.20504823489E+02  0.26435737151E+01  0.18169353189E+03  0.18286600504E+03  0.00000000000E+00 0.  1.
         14    1    6    6    0    0 -0.12787609448E+02  0.11670344732E+02 -0.45873499919E+00  0.17318497030E+02  0.00000000000E+00 0. -1.
         -5    1    3    3    0  503 -0.64268465067E+02 -0.26675934688E+02  0.75655245675E+02  0.10289726571E+03  0.47000000000E+01 0.  1.
         13    1    4    4    0    0  0.81881675347E+01  0.25705210437E+02  0.97171284683E+02  0.10084672775E+03  0.00000000000E+00 0. -1.
        -14    1    4    4    0    0  0.39708176608E+02  0.33215386447E+02  0.14422232931E+02  0.53740133877E+02  0.00000000000E+00 0.  1.
</event>
<event>
12    1  0.1623092E-001  0.1846649E+03  0.7818608E-02  0.1164062E+00
         21   -1    0    0  501  502  0.00000000000E+00  0.00000000000E+00  0.40222011847E+03  0.40222011847E+03  0.00000000000E+00 0.  1.
         21   -1    0    0  502  503 -0.00000000000E+00 -0.00000000000E+00 -0.19736114965E+03  0.19736114965E+03  0.00000000000E+00 0.  1.
         -6    2    1    2    0  503  0.25270753774E+02  0.56655998234E+02 -0.12569613889E+03  0.22094186807E+03  0.17078429846E+03 0.  0.
        -24    2    3    3    0    0  0.25237467564E+02 -0.56299080386E+01 -0.13844919514E+03  0.15719027458E+03  0.69799549825E+02 0.  0.
          6    2    1    2  501    0 -0.25270753774E+02 -0.56655998234E+02  0.33055510771E+03  0.37863940006E+03  0.17393275398E+03 0.  0.
         24    2    5    5    0    0 -0.67044819062E+02  0.74001561528E+01  0.15269991367E+03  0.18498294266E+03  0.79697273248E+02 0.  0.
          5    1    5    5  501    0  0.41774065288E+02 -0.64056154387E+02  0.17785519404E+03  0.19365645740E+03  0.47000000000E+01 0. -1.
        -11    1    6    6    0    0 -0.38442545398E+02 -0.31986931559E+02  0.10747041185E+03  0.11853641850E+03  0.00000000000E+00 0.  1.
         12    1    6    6    0    0 -0.28602273665E+02  0.39387087711E+02  0.45229501820E+02  0.66446524153E+02  0.00000000000E+00 0. -1.
         -5    1    3    3    0  503  0.33286210403E-01  0.62285906273E+02  0.12753056246E+02  0.63751593484E+02  0.47000000000E+01 0.  1.
         11    1    4    4    0    0 -0.12025838640E+02 -0.20167624645E+02 -0.16104233559E+02  0.28472797849E+02  0.00000000000E+00 0. -1.
        -12    1    4    4    0    0  0.37263306203E+02  0.14537716606E+02 -0.12234496158E+03  0.12871747674E+03  0.00000000000E+00 0.  1.
</event>
<event>
12    1  0.1623092E-001  0.2135987E+03  0.7818608E-02  0.1138923E+00
         21   -1    0    0  503  502  0.00000000000E+00  0.00000000000E+00  0.14689555263E+03  0.14689555263E+03  0.00000000000E+00 0. -1.
         21   -1    0    0  501  503 -0.00000000000E+00 -0.00000000000E+00 -0.31272449730E+03  0.31272449730E+03  0.00000000000E+00 0. -1.
          6    2    1    2  501    0  0.28133242757E+02  0.12157524887E+03 -0.10685654634E+03  0.23802998215E+03  0.17224381099E+03 0.  0.
         24    2    3    3    0    0 -0.25802469392E+02  0.73668040122E+02 -0.12186789240E+03  0.16419508386E+03  0.77559620977E+02 0.  0.
         -6    2    1    2    0  502 -0.28133242757E+02 -0.12157524887E+03 -0.58972398338E+02  0.22159006778E+03  0.17335626290E+03 0.  0.
        -24    2    5    5    0    0  0.38923733286E+02 -0.89239034382E+02 -0.73146457509E+02  0.14566074040E+03  0.79924869576E+02 0.  0.
          5    1    3    3  501    0  0.53935712149E+02  0.47907208743E+02  0.15011346060E+02  0.73834898288E+02  0.47000000000E+01 0. -1.
        -13    1    4    4    0    0  0.41011166738E+01  0.21024605001E+02 -0.95992773478E+02  0.98353778440E+02  0.00000000000E+00 0.  1.
         14    1    4    4    0    0 -0.29903586066E+02  0.52643435121E+02 -0.25875118917E+02  0.65841305424E+02  0.00000000000E+00 0. -1.
         -5    1    5    5    0  502 -0.67056976043E+02 -0.32336214484E+02  0.14174059172E+02  0.75929327382E+02  0.47000000000E+01 0.  1.
         11    1    6    6    0    0 -0.74400827876E+01 -0.17731423546E+02 -0.55356031704E+02  0.58600754763E+02  0.00000000000E+00 0. -1.
        -12    1    6    6    0    0  0.46363816074E+02 -0.71507610836E+02 -0.17790425806E+02  0.87059985635E+02  0.00000000000E+00 0.  1.
</event>
<event>
12    1  0.1623092E-001  0.2823151E+03  0.7818608E-02  0.1094442E+00
         21   -1    0    0  501  502  0.00000000000E+00  0.00000000000E+00  0.15275276583E+04  0.15275276583E+04  0.00000000000E+00 0. -1.
         21   -1    0    0  502  503 -0.00000000000E+00 -0.00000000000E+00 -0.86053729359E+02  0.86053729359E+02  0.00000000000E+00 0.  1.
         -6    2    1    2    0  503 -0.18396596978E+02  0.22345097054E+03  0.21436650763E+03  0.35441720938E+03  0.17143449972E+03 0.  0.
        -24    2    3    3    0    0  0.46378151174E+02  0.18134498693E+03  0.16740490911E+03  0.26388454351E+03  0.81078428192E+02 0.  0.
          6    2    1    2  501    0  0.18396596978E+02 -0.22345097054E+03  0.12271074213E+04  0.12591641783E+04  0.17156058232E+03 0.  0.
         24    2    5    5    0    0  0.55092353893E+02 -0.76174625009E+02  0.54850817883E+03  0.56378232460E+03  0.90285914381E+02 0.  0.
          5    1    5    5  501    0 -0.36695756915E+02 -0.14727634553E+03  0.67859924247E+03  0.69538185367E+03  0.47000000000E+01 0. -1.
        -13    1    6    6    0    0  0.66279648586E+02 -0.80884872768E+02  0.35991269619E+03  0.37479661596E+03  0.00000000000E+00 0.  1.
         14    1    6    6    0    0 -0.11187294693E+02  0.47102477590E+01  0.18859548264E+03  0.18898570864E+03  0.00000000000E+00 0. -1.
         -5    1    3    3    0  503 -0.64774748152E+02  0.42105983608E+02  0.46961598521E+02  0.90532665869E+02  0.47000000000E+01 0.  1.
         11    1    4    4    0    0  0.49460279155E+02  0.13287540920E+03  0.16158509916E+03  0.21496962077E+03  0.00000000000E+00 0. -1.
        -12    1    4    4    0    0 -0.30821279814E+01  0.48469577737E+02  0.58198099477E+01  0.48914922741E+02  0.00000000000E+00 0.  1.
</event>
<event>
12    1  0.1623092E-001  0.2104108E+03  0.7818608E-02  0.1143737E+00
         21   -1    0    0  501  502  0.00000000000E+00  0.00000000000E+00  0.61148092893E+02  0.61148092893E+02  0.00000000000E+00 0. -1.
         21   -1    0    0  502  503 -0.00000000000E+00 -0.00000000000E+00 -0.68886026846E+03  0.68886026846E+03  0.00000000000E+00 0. -1.
         -6    2    1    2    0  503 -0.40483978717E+01  0.10653207974E+03 -0.28720968232E+03  0.35603667946E+03  0.18140353350E+03 0.  0.
        -24    2    3    3    0    0 -0.32952870619E+02  0.13132242366E+03 -0.16402284665E+03  0.22701297552E+03  0.79372074396E+02 0.  0.
          6    2    1    2  501    0  0.40483978717E+01 -0.10653207974E+03 -0.34050249325E+03  0.39397168189E+03  0.16705168268E+03 0.  0.
         24    2    5    5    0    0  0.34435032820E+02 -0.45263319620E+02 -0.29707841934E+03  0.31282398479E+03  0.79804251986E+02 0.  0.
          5    1    5    5  501    0 -0.30386634949E+02 -0.61268760116E+02 -0.43424073909E+02  0.81147697099E+02  0.47000000000E+01 0. -1.
        -11    1    6    6    0    0  0.12894349669E+02 -0.25664707777E+02 -0.21925087393E+02  0.36133792160E+02  0.00000000000E+00 0.  1.
         12    1    6    6    0    0  0.21540683151E+02 -0.19598611842E+02 -0.27515333195E+03  0.27669019263E+03  0.00000000000E+00 0. -1.
         -5    1    3    3    0  503  0.28904472747E+02 -0.24790343924E+02 -0.12318683566E+03  0.12902370394E+03  0.47000000000E+01 0.  1.
         13    1    4    4    0    0 -0.43634260260E+02  0.86720148171E+02 -0.15068533619E+03  0.17924955596E+03  0.00000000000E+00 0. -1.
        -14    1    4    4    0    0  0.10681389641E+02  0.44602275489E+02 -0.13337510461E+02  0.47763419567E+02  0.00000000000E+00 0.  1.
</event>
<event>
12    1  0.1623092E-001  0.1836129E+03  0.7818608E-02  0.1165708E+00
         21   -1    0    0  501  502  0.00000000000E+00  0.00000000000E+00  0.16780788779E+03  0.16780788779E+03  0.00000000000E+00 0. -1.
         21   -1    0    0  502  503 -0.00000000000E+00 -0.00000000000E+00 -0.35424537862E+03  0.35424537862E+03  0.00000000000E+00 0. -1.
         -6    2    1    2    0  503 -0.33493942233E+02 -0.17209126758E+01 -0.26754632863E+03  0.32132376868E+03  0.17476590241E+03 0.  0.
        -24    2    3    3    0    0  0.68017297501E+01 -0.39999389219E+02 -0.24563801771E+03  0.26139842317E+03  0.79654787826E+02 0.  0.
          6    2    1    2  501    0  0.33493942233E+02  0.17209126758E+01  0.81108837797E+02  0.20072949773E+03  0.18052390973E+03 0.  0.
         24    2    5    5    0    0  0.24868026874E+01  0.69191289555E+02  0.23193487197E+02  0.10644284812E+03  0.77450134472E+02 0.  0.
          5    1    5    5  501    0  0.31007139546E+02 -0.67470376880E+02  0.57915350600E+02  0.94286649607E+02  0.47000000000E+01 0. -1.
        -13    1    6    6    0    0  0.34424140591E+02  0.10155581764E+02  0.15713260690E+01  0.35925288614E+02  0.00000000000E+00 0.  1.
         14    1    6    6    0    0 -0.31937337904E+02  0.59035707792E+02  0.21622161128E+02  0.70517559506E+02  0.00000000000E+00 0. -1.
         -5    1    3    3    0  503 -0.40295671983E+02  0.38278476543E+02 -0.21908310920E+02  0.59925345509E+02  0.47000000000E+01 0.  1.
         13    1    4    4    0    0  0.30757056864E+02 -0.27699136166E+02 -0.54827675180E+02  0.68697253634E+02  0.00000000000E+00 0. -1.
        -14    1    4    4    0    0 -0.23955327114E+02 -0.12300253053E+02 -0.19081034253E+03  0.19270116953E+03  0.00000000000E+00 0.  1.
</event>
<event>
12    1  0.1623092E-001  0.2186408E+03  0.7818608E-02  0.1134927E+00
         21   -1    0    0  503  502  0.00000000000E+00  0.00000000000E+00  0.52382070318E+02  0.52382070318E+02  0.00000000000E+00 0. -1.
         21   -1    0    0  501  503 -0.00000000000E+00 -0.00000000000E+00 -0.91365610400E+03  0.91365610400E+03  0.00000000000E+00 0. -1.
          6    2    1    2  501    0 -0.12983488340E+03 -0.30642662551E+02 -0.45102802792E+03  0.50116661578E+03  0.17304804271E+03 0.  0.
         24    2    3    3    0    0 -0.21300183161E+02  0.30310869557E+02 -0.13311423046E+03  0.15971912809E+03  0.80114636060E+02 0.  0.
         -6    2    1    2    0  502  0.12983488340E+03  0.30642662551E+02 -0.41024600576E+03  0.46487155854E+03  0.17322733901E+03 0.  0.
        -24    2    5    5    0    0  0.61428471178E+02  0.12200594246E+02 -0.86276798669E+02  0.13321257063E+03  0.79872344489E+02 0.  0.
          5    1    3    3  501    0 -0.10853470024E+03 -0.60953532108E+02 -0.31791379746E+03  0.34144748769E+03  0.47000000000E+01 0. -1.
        -13    1    4    4    0    0 -0.32798974373E+02  0.24971998859E+01 -0.12148647102E+02  0.35065629234E+02  0.00000000000E+00 0.  1.
         14    1    4    4    0    0  0.11498791212E+02  0.27813669671E+02 -0.12096558336E+03  0.12465349885E+03  0.00000000000E+00 0. -1.
         -5    1    5    5    0  502  0.68406412224E+02  0.18442068304E+02 -0.32396920709E+03  0.33165898791E+03  0.47000000000E+01 0.  1.
         11    1    6    6    0    0  0.73121246998E+02 -0.56549365962E+01 -0.43146127607E+02  0.85089854848E+02  0.00000000000E+00 0. -1.
        -12    1    6    6    0    0 -0.11692775820E+02  0.17855530843E+02 -0.43130671062E+02  0.48122715782E+02  0.00000000000E+00 0.  1.
</event>
<event>
12    1  0.1623092E-001  0.2227681E+03  0.7818608E-02  0.1131874E+00
         21   -1    0    0  501  502  0.00000000000E+00  0.00000000000E+00  0.18354425851E+03  0.18354425851E+03  0.00000000000E+00 0. -1.
         21   -1    0    0  502  503 -0.00000000000E+00 -0.00000000000E+00 -0.28384348298E+03  0.28384348298E+03  0.00000000000E+00 0. -1.
         -6    2    1    2    0  503 -0.50234595025E+02 -0.13228182178E+03 -0.10151277310E+03  0.24461636712E+03  0.17178570676E+03 0.  0.
        -24    2    3    3    0    0  0.22588987739E+02 -0.70058131379E+02 -0.52889016156E+01  0.10876282355E+03  0.79893523942E+02 0.  0.
          6    2    1    2  501    0  0.50234595025E+02  0.13228182178E+03  0.12135486316E+01  0.22277137438E+03  0.17205701855E+03 0.  0.
         24    2    5    5    0    0  0.77290235108E+02  0.35897378126E+02  0.26877346402E+02  0.11931757234E+03  0.79068888451E+02 0.  0.
          5    1    5    5  501    0 -0.27055640083E+02  0.96384443659E+02 -0.25663797771E+02  0.10345380204E+03  0.47000000000E+01 0. -1.
        -13    1    6    6    0    0  0.64404358393E+02  0.19457464979E+02  0.53159020175E+02  0.85746112153E+02  0.00000000000E+00 0.  1.
         14    1    6    6    0    0  0.12885876715E+02  0.16439913147E+02 -0.26281673773E+02  0.33571460190E+02  0.00000000000E+00 0. -1.
         -5    1    3    3    0  503 -0.72823582764E+02 -0.62223690405E+02 -0.96223871487E+02  0.13585354356E+03  0.47000000000E+01 0.  1.
         11    1    4    4    0    0  0.21681488445E+02 -0.26671856066E+02 -0.40326714880E+02  0.52987911642E+02  0.00000000000E+00 0. -1.
        -12    1    4    4    0    0  0.90749929366E+00 -0.43386275313E+02  0.35037813264E+02  0.55774911912E+02  0.00000000000E+00 0.  1.
</event>
<event>
12    1  0.1623092E-001  0.1794085E+03  0.7818608E-02  0.1168471E+00
         21   -1    0    0  501  502  0.00000000000E+00  0.00000000000E+00  0.28315498091E+03  0.28315498091E+03  0.00000000000E+00 0.  1.
         21   -1    0    0  502  503 -0.00000000000E+00 -0.00000000000E+00 -0.44645507225E+03  0.44645507225E+03  0.00000000000E+00 0.  1.
         -6    2    1    2    0  503  0.19310512016E+02  0.44828661695E+02 -0.39674589763E+03  0.43542475609E+03  0.17264097470E+03 0.  0.
        -24    2    3    3    0    0 -0.86957119064E+01 -0.17034553976E+02 -0.32370668932E+03  0.33558377261E+03  0.86398242424E+02 0.  0.
          6    2    1    2  501    0 -0.19310512016E+02 -0.44828661695E+02  0.23344580629E+03  0.29418529707E+03  0.17223687106E+03 0.  0.
         24    2    5    5    0    0  0.10267542781E+01 -0.32645543733E+02  0.25028697844E+03  0.26472773704E+03  0.79814894779E+02 0.  0.
          5    1    5    5  501    0 -0.20337266294E+02 -0.12183117962E+02 -0.16841172152E+02  0.29457560032E+02  0.47000000000E+01 0. -1.
        -11    1    6    6    0    0 -0.18302610640E+02  0.87532588197E+01  0.17840163826E+03  0.17955152360E+03  0.00000000000E+00 0.  1.
         12    1    6    6    0    0  0.19329364919E+02 -0.41398802553E+02  0.71885340189E+02  0.85176213434E+02  0.00000000000E+00 0. -1.
         -5    1    3    3    0  503  0.28006223923E+02  0.61863215671E+02 -0.73039208304E+02  0.99840983475E+02  0.47000000000E+01 0.  1.
         13    1    4    4    0    0  0.16757527287E+02 -0.12986429619E+02 -0.15404351099E+02  0.26206031897E+02  0.00000000000E+00 0. -1.
        -14    1    4    4    0    0 -0.25453239193E+02 -0.40481243572E+01 -0.30830233822E+03  0.30937774071E+03  0.00000000000E+00 0.  1.
</event>
<event>
12    1  0.1623092E-001  0.2958490E+03  0.7818608E-02  0.1087824E+00
         21   -1    0    0  503  502  0.00000000000E+00  0.00000000000E+00  0.19357588544E+03  0.19357588544E+03  0.00000000000E+00 0. -1.
         21   -1    0    0  501  503 -0.00000000000E+00 -0.00000000000E+00 -0.51672750001E+03  0.51672750001E+03  0.00000000000E+00 0. -1.
          6    2    1    2  501    0 -0.14761891288E+03 -0.19058181631E+03 -0.31405108000E+02  0.29751119563E+03  0.17150468964E+03 0.  0.
         24    2    3    3    0    0 -0.16941874194E+03 -0.14202415358E+03 -0.54257410042E+00  0.23580491430E+03  0.82037143418E+02 0.  0.
         -6    2    1    2    0  502  0.14761891288E+03  0.19058181631E+03 -0.29174650657E+03  0.41279218981E+03  0.16482898933E+03 0.  0.
        -24    2    5    5    0    0  0.15161602780E+02  0.42514285396E+02 -0.11625964442E+03  0.14767587289E+03  0.79085522384E+02 0.  0.
          5    1    3    3  501    0  0.21799829061E+02 -0.48557662737E+02 -0.30862533900E+02  0.61706281335E+02  0.47000000000E+01 0. -1.
        -11    1    4    4    0    0 -0.59616258005E+02 -0.27299595215E+02 -0.33479732292E+02  0.73622405501E+02  0.00000000000E+00 0.  1.
         12    1    4    4    0    0 -0.10980248393E+03 -0.11472455836E+03  0.32937158191E+02  0.16218250880E+03  0.00000000000E+00 0. -1.
         -5    1    5    5    0  502  0.13245731010E+03  0.14806753092E+03 -0.17548686215E+03  0.26511631692E+03  0.47000000000E+01 0.  1.
         13    1    6    6    0    0  0.47068018305E+02  0.17110128484E+02 -0.59266394843E+02  0.77592914635E+02  0.00000000000E+00 0. -1.
        -14    1    6    6    0    0 -0.31906415525E+02  0.25404156912E+02 -0.56993249579E+02  0.70082958254E+02  0.00000000000E+00 0.  1.
</event>
<event>
12    1  0.1623092E-001  0.2278942E+03  0.7818608E-02  0.1130466E+00
         21   -1    0    0  503  502  0.00000000000E+00  0.00000000000E+00  0.18976168906E+03  0.18976168906E+03  0.00000000000E+00 0.  1.
         21   -1    0    0  501  503 -0.00000000000E+00 -0.00000000000E+00 -0.38280696082E+03  0.38280696082E+03  0.00000000000E+00 0.  1.
          6    2    1    2  501    0 -0.45922942888E+02  0.12325211372E+03 -0.25765913381E+03  0.33569166269E+03  0.17029581012E+03 0.  0.
         24    2    3    3    0    0 -0.78312897655E+02  0.13072004609E+03 -0.17169034386E+03  0.24340080708E+03  0.80905737272E+02 0.  0.
         -6    2    1    2    0  502  0.45922942888E+02 -0.12325211372E+03  0.64613862055E+02  0.23687698718E+03  0.18610683939E+03 0.  0.
        -24    2    5    5    0    0  0.68024154669E+02 -0.36864716516E+02  0.90090172781E+02  0.14402022456E+03  0.81481856308E+02 0.  0.
          5    1    3    3  501    0  0.32389954767E+02 -0.74679323728E+01 -0.85968789954E+02  0.92290855614E+02  0.47000000000E+01 0. -1.
        -13    1    4    4    0    0 -0.18198761628E+02  0.10263760914E+03 -0.12224349604E+03  0.16065225196E+03  0.00000000000E+00 0.  1.
         14    1    4    4    0    0 -0.60114136027E+02  0.28082436944E+02 -0.49446847818E+02  0.82748555118E+02  0.00000000000E+00 0. -1.
         -5    1    5    5    0  502 -0.22101211782E+02 -0.86387397200E+02 -0.25476310726E+02  0.92856762626E+02  0.47000000000E+01 0.  1.
         11    1    6    6    0    0 -0.53511843659E+01  0.18410304146E+02  0.78365895822E+01  0.20711991917E+02  0.00000000000E+00 0. -1.
        -12    1    6    6    0    0  0.73375339035E+02 -0.55275020663E+02  0.82253583198E+02  0.12330823264E+03  0.00000000000E+00 0.  1.
</event>
<event>
12    1  0.1623092E-001  0.2714217E+03  0.7818608E-02  0.1100715E+00
         21   -1    0    0  501  502  0.00000000000E+00  0.00000000000E+00  0.80845481501E+02  0.80845481501E+02  0.00000000000E+00 0. -1.
         21   -1    0    0  502  503 -0.00000000000E+00 -0.00000000000E+00 -0.94312109999E+03  0.94312109999E+03  0.00000000000E+00 0.  1.
         -6    2    1    2    0  503  0.18801605599E+03 -0.92982235564E+02 -0.33014469428E+03  0.42739357525E+03  0.17226147440E+03 0.  0.
        -24    2    3    3    0    0  0.19275035696E+03 -0.46186938053E+02 -0.21800658733E+03  0.30570027837E+03  0.81485303701E+02 0.  0.
          6    2    1    2  501    0 -0.18801605599E+03  0.92982235564E+02 -0.53213092421E+03  0.59657300624E+03  0.16952963705E+03 0.  0.
         24    2    5    5    0    0 -0.11957027132E+03  0.10074960183E+02 -0.40499905281E+03  0.43001057207E+03  0.80537598149E+02 0.  0.
          5    1    5    5  501    0 -0.68445784664E+02  0.82907275381E+02 -0.12713187140E+03  0.16656243417E+03  0.47000000000E+01 0. -1.
        -11    1    6    6    0    0 -0.24496021562E+02  0.37871651879E+02 -0.14112365046E+03  0.14815600497E+03  0.00000000000E+00 0.  1.
         12    1    6    6    0    0 -0.95074249760E+02 -0.27796691695E+02 -0.26387540234E+03  0.28185456710E+03  0.00000000000E+00 0. -1.
         -5    1    3    3    0  503 -0.47343009788E+01 -0.46795297512E+02 -0.11213810695E+03  0.12169329688E+03  0.47000000000E+01 0.  1.
         11    1    4    4    0    0  0.12256156918E+03 -0.20370829425E+02 -0.77224414129E+02  0.14628711177E+03  0.00000000000E+00 0. -1.
        -12    1    4    4    0    0  0.70188787785E+02 -0.25816108627E+02 -0.14078217320E+03  0.15941316660E+03  0.00000000000E+00 0.  1.
</event>
<event>
12    1  0.1623092E-001  0.1783064E+03  0.7818608E-02  0.1169969E+00
         21   -1    0    0  503  502  0.00000000000E+00  0.00000000000E+00  0.35700260768E+03  0.35700260768E+03  0.00000000000E+00 0.  1.
         21   -1    0    0  501  503 -0.00000000000E+00 -0.00000000000E+00 -0.11042368109E+03  0.11042368109E+03  0.00000000000E+00 0.  1.
          6    2    1    2  501    0 -0.25383639011E+02  0.32817116592E+02  0.17419351718E+02  0.17706909917E+03  0.17125635695E+03 0.  0.
         24    2    3    3    0    0 -0.74044400504E+02  0.51456135325E+02 -0.61131604918E+01  0.11970053758E+03  0.78489112980E+02 0.  0.
         -6    2    1    2    0  502  0.25383639011E+02 -0.32817116592E+02  0.22915957487E+03  0.29035718961E+03  0.17341249820E+03 0.  0.
        -24    2    5    5    0    0  0.43220139518E+02  0.38893659572E+02  0.97234159851E+02  0.13907275123E+03  0.80660095941E+02 0.  0.
          5    1    3    3  501    0  0.48660761493E+02 -0.18639018732E+02  0.23532512210E+02  0.57368561593E+02  0.47000000000E+01 0. -1.
        -13    1    4    4    0    0 -0.50302339441E+02  0.67942866079E+02  0.12302197552E+02  0.85427761699E+02  0.00000000000E+00 0.  1.
         14    1    4    4    0    0 -0.23742061062E+02 -0.16486730754E+02 -0.18415358044E+02  0.34272775877E+02  0.00000000000E+00 0. -1.
         -5    1    5    5    0  502 -0.17836500507E+02 -0.71710776164E+02  0.13192541502E+03  0.15128443838E+03  0.47000000000E+01 0.  1.
         13    1    6    6    0    0  0.29635870620E+01  0.37497450406E+02  0.43931974786E+01  0.37870064950E+02  0.00000000000E+00 0. -1.
        -14    1    6    6    0    0  0.40256552456E+02  0.13962091661E+01  0.92840962372E+02  0.10120268628E+03  0.00000000000E+00 0.  1.
</event>
<event>
12    1  0.1623092E-001  0.2381878E+03  0.7818608E-02  0.1121029E+00
         21   -1    0    0  503  502  0.00000000000E+00  0.00000000000E+00  0.86742838715E+03  0.86742838715E+03  0.00000000000E+00 0.  1.
         21   -1    0    0  501  503 -0.00000000000E+00 -0.00000000000E+00 -0.69615362652E+02  0.69615362652E+02  0.00000000000E+00 0. -1.
          6    2    1    2  501    0 -0.15880062226E+03 -0.42811097542E+02  0.51477194430E+03  0.56720681877E+03  0.17228752977E+03 0.  0.
         24    2    3    3    0    0 -0.80687812105E+02  0.41830800679E+02  0.24899781881E+03  0.27751070587E+03  0.82170184340E+02 0.  0.
         -6    2    1    2    0  502  0.15880062226E+03  0.42811097542E+02  0.28304108020E+03  0.36983693104E+03  0.17209495861E+03 0.  0.
        -24    2    5    5    0    0  0.97808974060E+02  0.76431392969E+02  0.25541574686E+03  0.29476660097E+03  0.79005012905E+02 0.  0.
          5    1    3    3  501    0 -0.78112810152E+02 -0.84641898221E+02  0.26577412550E+03  0.28969611290E+03  0.47000000000E+01 0. -1.
        -11    1    4    4    0    0 -0.25614903833E+02 -0.14382076438E+01  0.17004845450E+03  0.17197287175E+03  0.00000000000E+00 0.  1.
         12    1    4    4    0    0 -0.55072908272E+02  0.43269008323E+02  0.78949364308E+02  0.10553783412E+03  0.00000000000E+00 0. -1.
         -5    1    5    5    0  502  0.60991648197E+02 -0.33620295428E+02  0.27625333334E+02  0.75070330066E+02  0.47000000000E+01 0.  1.
         13    1    6    6    0    0  0.17242804485E+02  0.87137642794E+01  0.89027961844E+00  0.19340025652E+02  0.00000000000E+00 0. -1.
        -14    1    6    6    0    0  0.80566169574E+02  0.67717628690E+02  0.25452546724E+03  0.27542657532E+03  0.00000000000E+00 0.  1.
</event>
<event>
12    1  0.1623092E-001  0.2001841E+03  0.7818608E-02  0.1149610E+00
         21   -1    0    0  501  502  0.00000000000E+00  0.00000000000E+00  0.45948560285E+03  0.45948560285E+03  0.00000000000E+00 0. -1.
         21   -1    0    0  502  503 -0.00000000000E+00 -0.00000000000E+00 -0.11135330514E+03  0.11135330514E+03  0.00000000000E+00 0. -1.
         -6    2    1    2    0  503  0.70142307503E+02  0.74448074501E+02  0.41070751779E+02  0.20435378265E+03  0.17207905954E+03 0.  0.
        -24    2    3    3    0    0  0.99227403013E+02  0.74669620737E+02 -0.74774465642E+01  0.14756461620E+03  0.79358515466E+02 0.  0.
          6    2    1    2  501    0 -0.70142307503E+02 -0.74448074501E+02  0.30706154594E+03  0.36648512534E+03  0.17193631090E+03 0.  0.
         24    2    5    5    0    0 -0.35611517115E+02 -0.19869229987E+02  0.52170228129E+02  0.10349672323E+03  0.79541640444E+02 0.  0.
          5    1    5    5  501    0 -0.34530790388E+02 -0.54578844513E+02  0.25489131781E+03  0.26298840211E+03  0.47000000000E+01 0. -1.
        -13    1    6    6    0    0 -0.21549592025E+02  0.12142609883E+02 -0.14170105920E+02  0.28506486858E+02  0.00000000000E+00 0.  1.
         14    1    6    6    0    0 -0.14061925090E+02 -0.32011839870E+02  0.66340334050E+02  0.74990236371E+02  0.00000000000E+00 0. -1.
         -5    1    3    3    0  503 -0.29085095510E+02 -0.22154623650E+00  0.48548198343E+02  0.56789166448E+02  0.47000000000E+01 0.  1.
         11    1    4    4    0    0 -0.72771338555E+01  0.17842059767E+02 -0.18027844865E+02  0.26387477415E+02  0.00000000000E+00 0. -1.
        -12    1    4    4    0    0  0.10650453687E+03  0.56827560971E+02  0.10550398300E+02  0.12117713878E+03  0.00000000000E+00 0.  1.
</event>
<event>
12    1  0.1623092E-001  0.2278503E+03  0.7818608E-02  0.1128244E+00
         21   -1    0    0  503  502  0.00000000000E+00  0.00000000000E+00  0.21738045999E+03  0.21738045999E+03  0.00000000000E+00 0. -1.
         21   -1    0    0  501  503 -0.00000000000E+00 -0.00000000000E+00 -0.31435944840E+03  0.31435944840E+03  0.00000000000E+00 0. -1.
          6    2    1    2  501    0  0.72089386893E+02  0.12958472217E+03 -0.17919304703E+03  0.28951082457E+03  0.17238703408E+03 0.  0.
         24    2    3    3    0    0  0.84625888052E+02  0.15608407315E+03 -0.15243805911E+03  0.24954460330E+03  0.86668150728E+02 0.  0.
         -6    2    1    2    0  502 -0.72089386893E+02 -0.12958472217E+03  0.82214058623E+02  0.24222908382E+03  0.17299334580E+03 0.  0.
        -24    2    5    5    0    0 -0.94708089352E+02 -0.14807898309E+03  0.87813474848E+02  0.21211120125E+03  0.79893353350E+02 0.  0.
          5    1    3    3  501    0 -0.12536501159E+02 -0.26499350989E+02 -0.26754987919E+02  0.39966221271E+02  0.47000000000E+01 0. -1.
        -11    1    4    4    0    0  0.24782983436E+02  0.11327227345E+03 -0.57484933076E+02  0.12941917065E+03  0.00000000000E+00 0.  1.
         12    1    4    4    0    0  0.59842904616E+02  0.42811799706E+02 -0.94953126032E+02  0.12012543265E+03  0.00000000000E+00 0. -1.
         -5    1    5    5    0  502  0.22618702458E+02  0.18494260928E+02 -0.55994162252E+01  0.30117882566E+02  0.47000000000E+01 0.  1.
         11    1    6    6    0    0 -0.77629377938E+02 -0.47639329954E+02  0.45144653877E+02  0.10165562380E+03  0.00000000000E+00 0. -1.
        -12    1    6    6    0    0 -0.17078711414E+02 -0.10043965314E+03  0.42668820972E+02  0.11045557745E+03  0.00000000000E+00 0.  1.
</event>
<event>
12    1  0.1623092E-001  0.1841553E+03  0.7818608E-02  0.1164073E+00
         21   -1    0    0  501  502  0.00000000000E+00  0.00000000000E+00  0.29225492888E+02  0.29225492888E+02  0.00000000000E+00 0. -1.
         21   -1    0    0  502  503 -0.00000000000E+00 -0.00000000000E+00 -0.26755764666E+04  0.26755764666E+04  0.00000000000E+00 0. -1.
         -6    2    1    2    0  503 -0.21709919513E+01 -0.62861669695E+02 -0.23414437593E+04  0.23485975573E+04  0.17203286162E+03 0.  0.
        -24    2    3    3    0    0  0.25756224273E+02 -0.98609260986E+02 -0.19895646840E+04  0.19937753577E+04  0.79908546164E+02 0.  0.
          6    2    1    2  501    0  0.21709919513E+01  0.62861669695E+02 -0.30490721445E+03  0.35620440223E+03  0.17308051311E+03 0.  0.
         24    2    5    5    0    0  0.56076648667E+02  0.18115384395E+02 -0.24015597319E+03  0.26069072195E+03  0.82534861591E+02 0.  0.
          5    1    5    5  501    0 -0.53905656716E+02  0.44746285299E+02 -0.64751241266E+02  0.95513680275E+02  0.47000000000E+01 0. -1.
        -13    1    6    6    0    0  0.51486658469E+02 -0.23218554513E+02 -0.16997418012E+03  0.17911225302E+03  0.00000000000E+00 0.  1.
         14    1    6    6    0    0  0.45899901984E+01  0.41333938908E+02 -0.70181793068E+02  0.81578468936E+02  0.00000000000E+00 0. -1.
         -5    1    3    3    0  503 -0.27927216224E+02  0.35747591291E+02 -0.35187907526E+03  0.35482219955E+03  0.47000000000E+01 0.  1.
         11    1    4    4    0    0  0.11192076641E+02 -0.32272272486E+02 -0.19807032155E+03  0.20099406565E+03  0.00000000000E+00 0. -1.
        -12    1    4    4    0    0  0.14564147632E+02 -0.66336988500E+02 -0.17914943625E+04  0.17927812921E+04  0.00000000000E+00 0.  1.
</event>
<event>
12    1  0.1623092E-001  0.2059420E+03  0.7818608E-02  0.1146027E+00
         21   -1    0    0  503  502  0.00000000000E+00  0.00000000000E+00  0.13004262397E+04  0.13004262397E+04  0.00000000000E+00 0. -1.
         21   -1    0    0  501  503 -0.00000000000E+00 -0.00000000000E+00 -0.44284931037E+02  0.44284931037E+02  0.00000000000E+00 0. -1.
          6    2    1    2  501    0 -0.77271677566E+02 -0.70186203531E+02  0.27606448596E+03  0.34441791491E+03  0.17752488384E+03 0.  0.
         24    2    3    3    0    0  0.11526425715E+02  0.14904229725E+02  0.93031429208E+02  0.12385346890E+03  0.79560294028E+02 0.  0.
         -6    2    1    2    0  502  0.77271677566E+02  0.70186203531E+02  0.98007682272E+03  0.10002932558E+04  0.17070150536E+03 0.  0.
        -24    2    5    5    0    0  0.38155401402E+02  0.10672932617E+03  0.81321215608E+03  0.82498954840E+03  0.80291720877E+02 0.  0.
          5    1    3    3  501    0 -0.88798103280E+02 -0.85090433257E+02  0.18303305675E+03  0.22056444601E+03  0.47000000000E+01 0. -1.
        -13    1    4    4    0    0  0.28335135070E+02  0.25457450501E+02  0.96463466379E+02  0.10371191837E+03  0.00000000000E+00 0.  1.
         14    1    4    4    0    0 -0.16808709356E+02 -0.10553220776E+02 -0.34320371709E+01  0.20141550538E+02  0.00000000000E+00 0. -1.
         -5    1    5    5    0  502  0.39116276164E+02 -0.36543122637E+02  0.16686466664E+03  0.17530370745E+03  0.47000000000E+01 0.  1.
         13    1    6    6    0    0  0.26551659750E+02  0.26452464189E+02  0.50145294559E+03  0.50285164824E+03  0.00000000000E+00 0. -1.
        -14    1    6    6    0    0  0.11603741652E+02  0.80276861980E+02  0.31175921049E+03  0.32213790016E+03  0.00000000000E+00 0.  1.
</event>
<event>
12    1  0.1623092E-001  0.1962605E+03  0.7818608E-02  0.1153296E+00
         21   -1    0    0  503  502  0.00000000000E+00  0.00000000000E+00  0.32476821439E+03  0.32476821439E+03  0.00000000000E+00 0.  1.
         21   -1    0    0  501  503 -0.00000000000E+00 -0.00000000000E+00 -0.19745862053E+03  0.19745862053E+03  0.00000000000E+00 0. -1.
          6    2    1    2  501    0 -0.31313927729E+02 -0.86419304326E+02 -0.10224377069E+03  0.22129615300E+03  0.17340513388E+03 0.  0.
         24    2    3    3    0    0 -0.46996529214E+02 -0.63306814448E+02 -0.13705148782E+03  0.17642078839E+03  0.78260831520E+02 0.  0.
         -6    2    1    2    0  502  0.31313927729E+02  0.86419304326E+02  0.22955336455E+03  0.30093068192E+03  0.17150997030E+03 0.  0.
        -24    2    5    5    0    0  0.65236622670E+02  0.43365099053E+02  0.87924805616E+02  0.14899269282E+03  0.91278159044E+02 0.  0.
          5    1    3    3  501    0  0.15682601485E+02 -0.23112489878E+02  0.34807717121E+02  0.44875364610E+02  0.47000000000E+01 0. -1.
        -11    1    4    4    0    0  0.19879287840E+02 -0.28139239984E+02 -0.54811007251E+02  0.64739859652E+02  0.00000000000E+00 0.  1.
         12    1    4    4    0    0 -0.66875817055E+02 -0.35167574464E+02 -0.82240480565E+02  0.11168092874E+03  0.00000000000E+00 0. -1.
         -5    1    5    5    0  502 -0.33922694941E+02  0.43054205273E+02  0.14162855894E+03  0.15193798910E+03  0.47000000000E+01 0.  1.
         13    1    6    6    0    0  0.45178377955E+02  0.54270745773E+02  0.10057652811E+03  0.12289034823E+03  0.00000000000E+00 0. -1.
        -14    1    6    6    0    0  0.20058244715E+02 -0.10905646720E+02 -0.12651722490E+02  0.26102344596E+02  0.00000000000E+00 0.  1.
</event>
<event>
12    1  0.1623092E-001  0.1762703E+03  0.7818608E-02  0.1173428E+00
         21   -1    0    0  501  502  0.00000000000E+00  0.00000000000E+00  0.11763679229E+04  0.11763679229E+04  0.00000000000E+00 0.  1.
         21   -1    0    0  502  503 -0.00000000000E+00 -0.00000000000E+00 -0.25329491344E+02  0.25329491344E+02  0.00000000000E+00 0.  1.
         -6    2    1    2    0  503 -0.27947747684E+02  0.23494427052E+02  0.61776456138E+03  0.64242063952E+03  0.17244755747E+03 0.  0.
        -24    2    3    3    0    0  0.22771818416E+02  0.21553364292E+01  0.54398539506E+03  0.55026161089E+03  0.79652552984E+02 0.  0.
          6    2    1    2  501    0  0.27947747684E+02 -0.23494427052E+02  0.53327387015E+03  0.55927677470E+03  0.16454915810E+03 0.  0.
         24    2    5    5    0    0  0.56085305134E+02  0.22010049981E+02  0.44329306238E+03  0.45448643480E+03  0.80119763563E+02 0.  0.
          5    1    5    5  501    0 -0.28137557450E+02 -0.45504477032E+02  0.89980807773E+02  0.10479033990E+03  0.47000000000E+01 0. -1.
        -11    1    6    6    0    0 -0.67193256901E+01  0.26840218056E+02  0.60259220810E+02  0.66307769799E+02  0.00000000000E+00 0.  1.
         12    1    6    6    0    0  0.62804630824E+02 -0.48301680754E+01  0.38303384157E+03  0.38817866500E+03  0.00000000000E+00 0. -1.
         -5    1    3    3    0  503 -0.50719566099E+02  0.21339090622E+02  0.73779166325E+02  0.92159028627E+02  0.47000000000E+01 0.  1.
         11    1    4    4    0    0 -0.26348740864E+01  0.33023225997E+02  0.12303426257E+03  0.12741626969E+03  0.00000000000E+00 0. -1.
        -12    1    4    4    0    0  0.25406692502E+02 -0.30867889567E+02  0.42095113249E+03  0.42284534120E+03  0.00000000000E+00 0.  1.
</event>
<event>
12    1  0.1623092E-001  0.2243473E+03  0.7818608E-02  0.1130911E+00
         21   -1    0    0  501  502  0.00000000000E+00  0.00000000000E+00  0.38173542656E+02  0.38173542656E+02  0.00000000000E+00 0. -1.
         21   -1    0    0  502  503 -0.00000000000E+00 -0.00000000000E+00 -0.30728472014E+04  0.30728472014E+04  0.00000000000E+00 0.  1.
         -6    2    1    2    0  503  0.11775991362E+03 -0.77937212539E+02 -0.26969384469E+04  0.27062536260E+04  0.17432755156E+03 0.  0.
        -24    2    3    3    0    0  0.39980123566E+02 -0.15750820161E+02 -0.65244103646E+03  0.65932700429E+03  0.84772011407E+02 0.  0.
          6    2    1    2  501    0 -0.11775991362E+03  0.77937212539E+02 -0.33773521184E+03  0.40476711811E+03  0.17271288379E+03 0.  0.
         24    2    5    5    0    0  0.25334593469E+01  0.56682107796E+02 -0.20061883512E+03  0.22106827265E+03  0.73511797735E+02 0.  0.
          5    1    5    5  501    0 -0.12029337297E+03  0.21255104743E+02 -0.13711637672E+03  0.18369884546E+03  0.47000000000E+01 0. -1.
        -11    1    6    6    0    0 -0.27331656829E+02  0.56703669109E+02 -0.13265708294E+03  0.14683401244E+03  0.00000000000E+00 0.  1.
         12    1    6    6    0    0  0.29865116176E+02 -0.21561312971E-01 -0.67961752180E+02  0.74234260207E+02  0.00000000000E+00 0. -1.
         -5    1    3    3    0  503  0.77779790056E+02 -0.62186392378E+02 -0.20444974105E+04  0.20469266217E+04  0.47000000000E+01 0.  1.
         13    1    4    4    0    0  0.14706331869E+02 -0.12786529795E+02 -0.60646867150E+03  0.60678169143E+03  0.00000000000E+00 0. -1.
        -14    1    4    4    0    0  0.25273791697E+02 -0.29642903657E+01 -0.45972364956E+02  0.52545312861E+02  0.00000000000E+00 0.  1.
</event>
<event>
12    1  0.1623092E-001  0.2281713E+03  0.7818608E-02  0.1127991E+00
         21   -1    0    0  501  502  0.00000000000E+00  0.00000000000E+00  0.16161507233E+04  0.16161507233E+04  0.00000000000E+00 0.  1.
         21   -1    0    0  502  503 -0.00000000000E+00 -0.00000000000E+00 -0.36662861272E+02  0.36662861272E+02  0.00000000000E+00 0.  1.
         -6    2    1    2    0  503  0.98479625814E+02  0.11263154271E+03  0.10786088496E+04  0.11024119791E+04  0.17184591975E+03 0.  0.
        -24    2    3    3    0    0  0.97147206654E+01  0.11140957702E+03  0.60496994550E+03  0.62050264836E+03  0.80798712958E+02 0.  0.
          6    2    1    2  501    0 -0.98479625814E+02 -0.11263154271E+03  0.50087901243E+03  0.55040160546E+03  0.17227315836E+03 0.  0.
         24    2    5    5    0    0 -0.47956360572E+01  0.31468128604E+01  0.19382133129E+03  0.20909847465E+03  0.78246808765E+02 0.  0.
          5    1    5    5  501    0 -0.93683989757E+02 -0.11577835557E+03  0.30705768114E+03  0.34130313081E+03  0.47000000000E+01 0. -1.
        -11    1    6    6    0    0  0.41049477727E+01  0.15428304234E+01  0.19875023480E+03  0.19879860853E+03  0.00000000000E+00 0.  1.
         12    1    6    6    0    0 -0.89005838299E+01  0.16039824370E+01 -0.49289035117E+01  0.10299866116E+02  0.00000000000E+00 0. -1.
         -5    1    3    3    0  503  0.88764905149E+02  0.12219656943E+01  0.47363890413E+03  0.48190933078E+03  0.47000000000E+01 0.  1.
         11    1    4    4    0    0  0.22974636716E+02  0.11716501287E+03  0.47687133629E+03  0.49159103485E+03  0.00000000000E+00 0. -1.
        -12    1    4    4    0    0 -0.13259916050E+02 -0.57554358540E+01  0.12809860921E+03  0.12891161350E+03  0.00000000000E+00 0.  1.
</event>
<event>
12    1  0.1623092E-001  0.1995216E+03  0.7818608E-02  0.1150264E+00
         21   -1    0    0  503  502  0.00000000000E+00  0.00000000000E+00  0.13957906855E+04  0.13957906855E+04  0.00000000000E+00 0. -1.
         21   -1    0    0  501  503 -0.00000000000E+00 -0.00000000000E+00 -0.70559645105E+02  0.70559645105E+02  0.00000000000E+00 0.  1.
          6    2    1    2  501    0 -0.52071374403E+02  0.86246781921E+02  0.95763177019E+02  0.22079820770E+03  0.17155560914E+03 0.  0.
         24    2    3    3    0    0 -0.46774551562E+02  0.85812297993E+02  0.13283599568E+03  0.18305262528E+03  0.79443393122E+02 0.  0.
         -6    2    1    2    0  502  0.52071374403E+02 -0.86246781921E+02  0.12294678634E+04  0.12455521229E+04  0.17221767731E+03 0.  0.
        -24    2    5    5    0    0 -0.13546122177E+02 -0.10208596426E+03  0.69433506297E+03  0.70615825974E+03  0.77157414419E+02 0.  0.
          5    1    3    3  501    0 -0.52968228406E+01  0.43448392794E+00 -0.37072818666E+02  0.37745582421E+02  0.47000000000E+01 0. -1.
        -13    1    4    4    0    0  0.60786282761E+00  0.93402915041E+01 -0.10347813434E+02  0.13953056492E+02  0.00000000000E+00 0.  1.
         14    1    4    4    0    0 -0.47382414390E+02  0.76472006489E+02  0.14318380912E+03  0.16909956879E+03  0.00000000000E+00 0. -1.
         -5    1    5    5    0  502  0.65617496580E+02  0.15839182337E+02  0.53513280039E+03  0.53939386315E+03  0.47000000000E+01 0.  1.
         13    1    6    6    0    0  0.42324653922E+01 -0.53471696086E+02  0.55383122866E+03  0.55642265041E+03  0.00000000000E+00 0. -1.
        -14    1    6    6    0    0 -0.17778587570E+02 -0.48614268172E+02  0.14050383432E+03  0.14973560934E+03  0.00000000000E+00 0.  1.
</event>
<event>
12    1  0.1623092E-001  0.2046282E+03  0.7818608E-02  0.1146317E+00
         21   -1    0    0  501  502  0.00000000000E+00  0.00000000000E+00  0.24738100191E+03  0.24738100191E+03  0.00000000000E+00 0. -1.
         21   -1    0    0  502  503 -0.00000000000E+00 -0.00000000000E+00 -0.19105524858E+03  0.19105524858E+03  0.00000000000E+00 0.  1.
         -6    2    1    2    0  503 -0.91498021936E+02 -0.57932874487E+02  0.10491241347E+03  0.22811892474E+03  0.17118271922E+03 0.  0.
        -24    2    3    3    0    0  0.76603074375E+01 -0.61291600307E+02  0.40631419791E+02  0.10980666218E+03  0.81186514937E+02 0.  0.
          6    2    1    2  501    0  0.91498021936E+02  0.57932874487E+02 -0.48586660141E+02  0.21031732575E+03  0.17362202626E+03 0.  0.
         24    2    5    5    0    0  0.21037163404E+02 -0.13975394699E+02  0.22455804160E+02  0.87010174716E+02  0.80178759423E+02 0.  0.
          5    1    5    5  501    0  0.70460858532E+02  0.71908269186E+02 -0.71042464301E+02  0.12330715103E+03  0.47000000000E+01 0. -1.
        -11    1    6    6    0    0  0.48283078620E+02  0.28867438719E+01  0.87253109472E+00  0.48377166946E+02  0.00000000000E+00 0.  1.
         12    1    6    6    0    0 -0.27245915216E+02 -0.16862138571E+02  0.21583273065E+02  0.38633007770E+02  0.00000000000E+00 0. -1.
         -5    1    3    3    0  503 -0.99158329373E+02  0.33587258197E+01  0.64280993680E+02  0.11831226256E+03  0.47000000000E+01 0.  1.
         11    1    4    4    0    0  0.45755673872E+01 -0.50942252819E+02  0.65259603149E+02  0.82914804121E+02  0.00000000000E+00 0. -1.
        -12    1    4    4    0    0  0.30847400502E+01 -0.10349347487E+02 -0.24628183358E+02  0.26891858064E+02  0.00000000000E+00 0.  1.
</event>
<event>
12    1  0.1623092E-001  0.1781946E+03  0.7818608E-02  0.1169564E+00
         21   -1    0    0  501  502  0.00000000000E+00  0.00000000000E+00  0.33345765307E+03  0.33345765307E+03  0.00000000000E+00 0.  1.
         21   -1    0    0  502  503 -0.00000000000E+00 -0.00000000000E+00 -0.95598967912E+02  0.95598967912E+02  0.00000000000E+00 0.  1.
         -6    2    1    2    0  503  0.44144156915E+02  0.15838359203E+02  0.10541686000E+03  0.20704114809E+03  0.17191207758E+03 0.  0.
        -24    2    3    3    0    0  0.79545143969E+02  0.53981552977E+02  0.85887921578E+02  0.15125940778E+03  0.79127968372E+02 0.  0.
          6    2    1    2  501    0 -0.44144156915E+02 -0.15838359203E+02  0.13244182516E+03  0.22201547290E+03  0.17190250999E+03 0.  0.
         24    2    5    5    0    0 -0.78173370010E+02 -0.47810245186E+02  0.60282253056E+02  0.13593828263E+03  0.80301751715E+02 0.  0.
          5    1    5    5  501    0  0.34029213095E+02  0.31971885983E+02  0.72159572104E+02  0.86077190262E+02  0.47000000000E+01 0. -1.
        -11    1    6    6    0    0 -0.93203776784E+02 -0.28930836925E+02  0.45903055966E+02  0.10784724326E+03  0.00000000000E+00 0.  1.
         12    1    6    6    0    0  0.15030406774E+02 -0.18879408262E+02  0.14379197090E+02  0.28091039373E+02  0.00000000000E+00 0. -1.
         -5    1    3    3    0  503 -0.35400987055E+02 -0.38143193774E+02  0.19528938423E+02  0.55781740307E+02  0.47000000000E+01 0.  1.
         13    1    4    4    0    0 -0.11568665978E+02  0.37669508665E+01  0.31707749843E+02  0.33961821969E+02  0.00000000000E+00 0. -1.
        -14    1    4    4    0    0  0.91113809948E+02  0.50214602111E+02  0.54180171735E+02  0.11729758581E+03  0.00000000000E+00 0.  1.
</event>
<event>
12    1  0.1623092E-001  0.3810616E+03  0.7818608E-02  0.1050586E+00
         21   -1    0    0  501  502  0.00000000000E+00  0.00000000000E+00  0.16005528554E+03  0.16005528554E+03  0.00000000000E+00 0.  1.
         21   -1    0    0  502  503 -0.00000000000E+00 -0.00000000000E+00 -0.92402248871E+03  0.92402248871E+03  0.00000000000E+00 0.  1.
         -6    2    1    2    0  503 -0.39231930682E+01 -0.33984915264E+03 -0.45768796760E+03  0.59555538632E+03  0.17232267552E+03 0.  0.
        -24    2    3    3    0    0  0.64486153833E+02 -0.20226814303E+03 -0.28227700290E+03  0.36231844781E+03  0.80768097282E+02 0.  0.
          6    2    1    2  501    0  0.39231930682E+01  0.33984915264E+03 -0.30627923558E+03  0.48852238793E+03  0.17127263462E+03 0.  0.
         24    2    5    5    0    0 -0.35911002612E+02  0.26014323437E+03 -0.16254241590E+03  0.31934153830E+03  0.81208857991E+02 0.  0.
          5    1    5    5  501    0  0.39834195680E+02  0.79705918264E+02 -0.14373681967E+03  0.16918084963E+03  0.47000000000E+01 0. -1.
        -11    1    6    6    0    0  0.69691238295E+01  0.20449685034E+03 -0.12236135123E+03  0.23841105419E+03  0.00000000000E+00 0.  1.
         12    1    6    6    0    0 -0.42880126441E+02  0.55646384039E+02 -0.40181064675E+02  0.80930484112E+02  0.00000000000E+00 0. -1.
         -5    1    3    3    0  503 -0.68409346901E+02 -0.13758100961E+03 -0.17541096470E+03  0.23323693851E+03  0.47000000000E+01 0.  1.
         13    1    4    4    0    0  0.19771455611E+02 -0.23429041451E+00 -0.31525945347E+02  0.37213580573E+02  0.00000000000E+00 0. -1.
        -14    1    4    4    0    0  0.44714698222E+02 -0.20203385262E+03 -0.25075105755E+03  0.32510486724E+03  0.00000000000E+00 0.  1.
</event>
<event>
12    1  0.1623092E-001  0.2104080E+03  0.7818608E-02  0.1141499E+00
         21   -1    0    0  503  502  0.00000000000E+00  0.00000000000E+00  0.13693704910E+04  0.13693704910E+04  0.00000000000E+00 0.  1.
         21   -1    0    0  501  503 -0.00000000000E+00 -0.00000000000E+00 -0.13893666044E+03  0.13893666044E+03  0.00000000000E+00 0. -1.
          6    2    1    2  501    0  0.42409957476E+02 -0.11530198310E+03 -0.45565593790E+02  0.21528527093E+03  0.17081678121E+03 0.  0.
         24    2    3    3    0    0  0.57555045778E+02 -0.13856823765E+03 -0.26202820016E+02  0.18111365540E+03  0.97988920877E+02 0.  0.
         -6    2    1    2    0  502 -0.42409957476E+02  0.11530198310E+03  0.12759994243E+04  0.12930218805E+04  0.16922736394E+03 0.  0.
        -24    2    5    5    0    0 -0.23706412451E+02  0.82592790343E+02  0.41715583336E+03  0.43333931252E+03  0.79877452817E+02 0.  0.
          5    1    3    3  501    0 -0.15145088302E+02  0.23266254544E+02 -0.19362773775E+02  0.34171615537E+02  0.47000000000E+01 0. -1.
        -13    1    4    4    0    0  0.33832013509E+02 -0.63122709223E+02  0.36316817791E+02  0.80299394843E+02  0.00000000000E+00 0.  1.
         14    1    4    4    0    0  0.23723032269E+02 -0.75445528426E+02 -0.62519637807E+02  0.10081426055E+03  0.00000000000E+00 0. -1.
         -5    1    5    5    0  502 -0.18703545025E+02  0.32709192761E+02  0.85884359097E+03  0.85968256795E+03  0.47000000000E+01 0.  1.
         11    1    6    6    0    0  0.25370390632E+02  0.54510415492E+02  0.19212121985E+03  0.20130972464E+03  0.00000000000E+00 0. -1.
        -12    1    6    6    0    0 -0.49076803084E+02  0.28082374850E+02  0.22503461351E+03  0.23202958789E+03  0.00000000000E+00 0.  1.
</event>
<event>
12    1  0.1623092E-001  0.2885559E+03  0.7818608E-02  0.1091210E+00
         21   -1    0    0  501  502  0.00000000000E+00  0.00000000000E+00  0.47885007050E+03  0.47885007050E+03  0.00000000000E+00 0.  1.
         21   -1    0    0  502  503 -0.00000000000E+00 -0.00000000000E+00 -0.20474877122E+03  0.20474877122E+03  0.00000000000E+00 0.  1.
         -6    2    1    2    0  503 -0.78389339071E+02 -0.21822114644E+03  0.34784612363E+01  0.28857691242E+03  0.17175324584E+03 0.  0.
        -24    2    3    3    0    0 -0.99182030062E+02 -0.10054919535E+03  0.33428614771E+02  0.16529623361E+03  0.79108512730E+02 0.  0.
          6    2    1    2  501    0  0.78389339071E+02  0.21822114644E+03  0.27062283804E+03  0.39502192930E+03  0.17041199171E+03 0.  0.
         24    2    5    5    0    0  0.13707071970E+02  0.18435074495E+03  0.24663261995E+03  0.31802439467E+03  0.78350401363E+02 0.  0.
          5    1    5    5  501    0  0.64682267101E+02  0.33870401492E+02  0.23990218092E+02  0.76997534627E+02  0.47000000000E+01 0. -1.
        -13    1    6    6    0    0  0.32844984959E+02  0.10411302376E+03  0.18591659821E+03  0.21559985214E+03  0.00000000000E+00 0.  1.
         14    1    6    6    0    0 -0.19137912990E+02  0.80237721194E+02  0.60716021742E+02  0.10242454253E+03  0.00000000000E+00 0. -1.
         -5    1    3    3    0  503  0.20792690991E+02 -0.11767195109E+03 -0.29950153535E+02  0.12328067882E+03  0.47000000000E+01 0.  1.
         11    1    4    4    0    0 -0.20423373233E+02  0.12501137413E+02  0.75446743112E+01  0.25106069411E+02  0.00000000000E+00 0. -1.
        -12    1    4    4    0    0 -0.78758656830E+02 -0.11305033277E+03  0.25883940460E+02  0.14019016420E+03  0.00000000000E+00 0.  1.
</event>
<event>
12    1  0.1623092E-001  0.3333293E+03  0.7818608E-02  0.1069675E+00
         21   -1    0    0  503  502  0.00000000000E+00  0.00000000000E+00  0.10070605561E+04  0.10070605561E+04  0.00000000000E+00 0. -1.
         21   -1    0    0  501  503 -0.00000000000E+00 -0.00000000000E+00 -0.17514916504E+03  0.17514916504E+03  0.00000000000E+00 0.  1.
          6    2    1    2  501    0 -0.18349125366E+03  0.21864400080E+03  0.56351630160E+02  0.33805906761E+03  0.17214583271E+03 0.  0.
         24    2    3    3    0    0 -0.15671458285E+02  0.54861310496E+02  0.40583252625E+01  0.97757313358E+02  0.79275874747E+02 0.  0.
         -6    2    1    2    0  502  0.18349125366E+03 -0.21864400080E+03  0.77555976088E+03  0.84415065352E+03  0.17211375274E+03 0.  0.
        -24    2    5    5    0    0  0.19444416209E+03 -0.21291976501E+03  0.77406508436E+03  0.83084437168E+03  0.89343475573E+02 0.  0.
          5    1    3    3  501    0 -0.16781979537E+03  0.16378269030E+03  0.52293304897E+02  0.24030175426E+03  0.47000000000E+01 0. -1.
        -13    1    4    4    0    0 -0.28285968668E+02  0.66232347066E+02 -0.13561391989E+02  0.73285272558E+02  0.00000000000E+00 0.  1.
         14    1    4    4    0    0  0.12614510383E+02 -0.11371036569E+02  0.17619717252E+02  0.24472040799E+02  0.00000000000E+00 0. -1.
         -5    1    5    5    0  502 -0.10952908428E+02 -0.57242357903E+01  0.14946765210E+01  0.13306281837E+02  0.47000000000E+01 0.  1.
         11    1    6    6    0    0  0.10962054916E+03 -0.16201227947E+03  0.42179268626E+03  0.46494485015E+03  0.00000000000E+00 0. -1.
        -12    1    6    6    0    0  0.84823612926E+02 -0.50907485534E+02  0.35227239810E+03  0.36589952153E+03  0.00000000000E+00 0.  1.
</event>
<event>
12    1  0.1623092E-001  0.1917314E+03  0.7818608E-02  0.1157127E+00
         21   -1    0    0  501  502  0.00000000000E+00  0.00000000000E+00  0.28538615060E+03  0.28538615060E+03  0.00000000000E+00 0.  1.
         21   -1    0    0  502  503 -0.00000000000E+00 -0.00000000000E+00 -0.28869552738E+03  0.28869552738E+03  0.00000000000E+00 0.  1.
         -6    2    1    2    0  503 -0.50921229723E+02 -0.63363808558E+02 -0.21570650362E+03  0.28860046371E+03  0.17364615769E+03 0.  0.
        -24    2    3    3    0    0 -0.66931015629E+02  0.68614866889E+01 -0.18041728004E+03  0.20825542878E+03  0.79328984787E+02 0.  0.
          6    2    1    2  501    0  0.50921229723E+02  0.63363808558E+02  0.21239712683E+03  0.28548121428E+03  0.17256604633E+03 0.  0.
         24    2    5    5    0    0  0.72509088603E+02  0.27796241301E+02  0.21712687097E+03  0.24334396269E+03  0.77730348792E+02 0.  0.
          5    1    5    5  501    0 -0.21587858880E+02  0.35567567257E+02 -0.47297441318E+01  0.42137251585E+02  0.47000000000E+01 0. -1.
        -11    1    6    6    0    0  0.25090997222E+02  0.50524585711E+02  0.12765740107E+03  0.13956612752E+03  0.00000000000E+00 0.  1.
         12    1    6    6    0    0  0.47418091381E+02 -0.22728344410E+02  0.89469469891E+02  0.10377783517E+03  0.00000000000E+00 0. -1.
         -5    1    3    3    0  503  0.16009785906E+02 -0.70225295247E+02 -0.35289223579E+02  0.80345034931E+02  0.47000000000E+01 0.  1.
         11    1    4    4    0    0 -0.36812916242E+02 -0.28836142603E+02 -0.13594767721E+03  0.14376538131E+03  0.00000000000E+00 0. -1.
        -12    1    4    4    0    0 -0.30118099387E+02  0.35697629292E+02 -0.44469602824E+02  0.64490047473E+02  0.00000000000E+00 0.  1.
</event>
<event>
12    1  0.1623092E-001  0.4335122E+03  0.7818608E-02  0.1032793E+00
         21   -1    0    0  503  502  0.00000000000E+00  0.00000000000E+00  0.21439267380E+03  0.21439267380E+03  0.00000000000E+00 0. -1.
         21   -1    0    0  501  503 -0.00000000000E+00 -0.00000000000E+00 -0.91528130103E+03  0.91528130103E+03  0.00000000000E+00 0. -1.
          6    2    1    2  501    0  0.22967819300E+03 -0.32563404596E+03 -0.23268081702E+03  0.49158983393E+03  0.16950102652E+03 0.  0.
         24    2    3    3    0    0  0.16148195180E+03 -0.26460883606E+03 -0.11013383360E+03  0.33857134909E+03  0.80042740122E+02 0.  0.
         -6    2    1    2    0  502 -0.22967819300E+03  0.32563404596E+03 -0.46820781020E+03  0.63808414089E+03  0.17071383395E+03 0.  0.
        -24    2    5    5    0    0 -0.12842067729E+03  0.10207462216E+03 -0.25110337939E+03  0.31038256272E+03  0.79833133840E+02 0.  0.
          5    1    3    3  501    0  0.68196241195E+02 -0.61025209899E+02 -0.12254698342E+03  0.15301848484E+03  0.47000000000E+01 0. -1.
        -13    1    4    4    0    0  0.30201813513E+02 -0.10859238839E+03 -0.63630886225E+02  0.12943471728E+03  0.00000000000E+00 0.  1.
         14    1    4    4    0    0  0.13128013829E+03 -0.15601644767E+03 -0.46502947378E+02  0.20913663182E+03  0.00000000000E+00 0. -1.
         -5    1    5    5    0  502 -0.10125751571E+03  0.22355942380E+03 -0.21710443082E+03  0.32770157817E+03  0.47000000000E+01 0.  1.
         13    1    6    6    0    0 -0.13932503659E+03  0.90625238130E+02 -0.23479002803E+03  0.28766431282E+03  0.00000000000E+00 0. -1.
        -14    1    6    6    0    0  0.10904359297E+02  0.11449384026E+02 -0.16313351351E+02  0.22718249901E+02  0.00000000000E+00 0.  1.
</event>
<event>
12    1  0.1623092E-001  0.2038477E+03  0.7818608E-02  0.1146814E+00
         21   -1    0    0  501  502  0.00000000000E+00  0.00000000000E+00  0.70572980834E+02  0.70572980834E+02  0.00000000000E+00 0.  1.
         21   -1    0    0  502  503 -0.00000000000E+00 -0.00000000000E+00 -0.90095707738E+03  0.90095707738E+03  0.00000000000E+00 0. -1.
         -6    2    1    2    0  503  0.47334867604E+02  0.97265281318E+02 -0.70381945387E+03  0.73274531565E+03  0.17277948179E+03 0.  0.
        -24    2    3    3    0    0  0.54904324353E+02  0.39959103832E+02 -0.62874066161E+03  0.63787588063E+03  0.83424245420E+02 0.  0.
          6    2    1    2  501    0 -0.47334867604E+02 -0.97265281318E+02 -0.12656464268E+03  0.23878474256E+03  0.17116781199E+03 0.  0.
         24    2    5    5    0    0  0.23990781605E+02 -0.60361474569E+01 -0.74018779373E+02  0.11153199858E+03  0.79678192306E+02 0.  0.
          5    1    5    5  501    0 -0.71325649209E+02 -0.91229133862E+02 -0.52545863304E+02  0.12725274398E+03  0.47000000000E+01 0. -1.
        -11    1    6    6    0    0  0.43492520902E+02 -0.29761450359E+02 -0.47880621318E+02  0.71203210600E+02  0.00000000000E+00 0.  1.
         12    1    6    6    0    0 -0.19501739297E+02  0.23725302902E+02 -0.26138158055E+02  0.40328787980E+02  0.00000000000E+00 0. -1.
         -5    1    3    3    0  503 -0.75694567499E+01  0.57306177486E+02 -0.75078792261E+02  0.94869435019E+02  0.47000000000E+01 0.  1.
         11    1    4    4    0    0  0.64224117446E+02  0.27045887914E+02 -0.27216713779E+03  0.28094691350E+03  0.00000000000E+00 0. -1.
        -12    1    4    4    0    0 -0.93197930921E+01  0.12913215918E+02 -0.35657352382E+03  0.35692896713E+03  0.00000000000E+00 0.  1.
</event>
<event>
12    1  0.1623092E-001  0.2231384E+03  0.7818608E-02  0.1131570E+00
         21   -1    0    0  501  502  0.00000000000E+00  0.00000000000E+00  0.54577577221E+02  0.54577577221E+02  0.00000000000E+00 0.  1.
         21   -1    0    0  502  503 -0.00000000000E+00 -0.00000000000E+00 -0.11798309299E+04  0.11798309299E+04  0.00000000000E+00 0.  1.
         -6    2    1    2    0  503  0.10959422228E+03  0.94392158787E+02 -0.26867950025E+03  0.34925551524E+03  0.16991164725E+03 0.  0.
        -24    2    3    3    0    0  0.16157908264E+02 -0.10895753408E+02 -0.92978606025E+02  0.12406940673E+03  0.79802262294E+02 0.  0.
          6    2    1    2  501    0 -0.10959422228E+03 -0.94392158787E+02 -0.85657385243E+03  0.88515299189E+03  0.16987136657E+03 0.  0.
         24    2    5    5    0    0 -0.76262945041E+02 -0.23354442419E+02 -0.70869917244E+03  0.71768257011E+03  0.80326133052E+02 0.  0.
          5    1    5    5  501    0 -0.33331277234E+02 -0.71037716368E+02 -0.14787467999E+03  0.16747042178E+03  0.47000000000E+01 0. -1.
        -13    1    6    6    0    0  0.68190665829E+01 -0.23188602518E+02 -0.27761744639E+03  0.27866764702E+03  0.00000000000E+00 0.  1.
         14    1    6    6    0    0 -0.83082011624E+02 -0.16583990033E+00 -0.43108172605E+03  0.43901492309E+03  0.00000000000E+00 0. -1.
         -5    1    3    3    0  503  0.93436314012E+02  0.10528791219E+03 -0.17570089423E+03  0.22518610850E+03  0.47000000000E+01 0.  1.
         11    1    4    4    0    0 -0.29243609207E+02 -0.10509608264E+02 -0.61239380451E+02  0.68672427242E+02  0.00000000000E+00 0. -1.
        -12    1    4    4    0    0  0.45401517471E+02 -0.38614514398E+00 -0.31739225574E+02  0.55396979492E+02  0.00000000000E+00 0.  1.
</event>
<event>
12    1  0.1623092E-001  0.1776109E+03  0.7818608E-02  0.1170644E+00
         21   -1    0    0  501  502  0.00000000000E+00  0.00000000000E+00  0.51746810802E+02  0.51746810802E+02  0.00000000000E+00 0. -1.
         21   -1    0    0  502  503 -0.00000000000E+00 -0.00000000000E+00 -0.68810521896E+03  0.68810521896E+03  0.00000000000E+00 0. -1.
         -6    2    1    2    0  503 -0.20022734265E+02 -0.94776029913E+01 -0.18939035366E+03  0.25964267853E+03  0.17622394732E+03 0.  0.
        -24    2    3    3    0    0 -0.30176546207E+02  0.52827940895E+02 -0.16177673772E+03  0.19057979066E+03  0.80296503418E+02 0.  0.
          6    2    1    2  501    0  0.20022734265E+02  0.94776029913E+01 -0.44696805450E+03  0.48020935123E+03  0.17415465662E+03 0.  0.
         24    2    5    5    0    0  0.30025926617E+02  0.79648830840E+02 -0.29024789649E+03  0.30814144894E+03  0.58837221301E+02 0.  0.
          5    1    5    5  501    0 -0.10003192352E+02 -0.70171227848E+02 -0.15672015801E+03  0.17206790230E+03  0.47000000000E+01 0. -1.
        -13    1    6    6    0    0  0.31597220980E+02  0.31308945200E+02 -0.72268903294E+02  0.84861232648E+02  0.00000000000E+00 0.  1.
         14    1    6    6    0    0 -0.15712943633E+01  0.48339885639E+02 -0.21797899320E+03  0.22328021629E+03  0.00000000000E+00 0. -1.
         -5    1    3    3    0  503  0.10153811942E+02 -0.62305543887E+02 -0.27613615947E+02  0.69062887875E+02  0.47000000000E+01 0.  1.
         11    1    4    4    0    0 -0.30156341528E+02  0.25976956800E+02 -0.16909387372E+02  0.43245052899E+02  0.00000000000E+00 0. -1.
        -12    1    4    4    0    0 -0.20204678805E-01  0.26850984096E+02 -0.14486735034E+03  0.14733473776E+03  0.00000000000E+00 0.  1.
</event>
<event>
12    1  0.1623092E-001  0.1894225E+03  0.7818608E-02  0.1159265E+00
         21   -1    0    0  503  502  0.00000000000E+00  0.00000000000E+00  0.31696921899E+03  0.31696921899E+03  0.00000000000E+00 0. -1.
         21   -1    0    0  501  503 -0.00000000000E+00 -0.00000000000E+00 -0.11313545827E+03  0.11313545827E+03  0.00000000000E+00 0. -1.
          6    2    1    2  501    0 -0.48986711907E+02 -0.60921679214E+02  0.85631701584E+02  0.20787899666E+03  0.17253909700E+03 0.  0.
         24    2    3    3    0    0  0.96672085925E+01 -0.54539138433E+02 -0.11215592827E+02  0.94377861635E+02  0.75587159633E+02 0.  0.
         -6    2    1    2    0  502  0.48986711907E+02  0.60921679214E+02  0.11820205913E+03  0.22222568060E+03  0.17117645105E+03 0.  0.
        -24    2    5    5    0    0 -0.78593024278E+01 -0.20955377785E+02  0.34457172762E+02  0.91954356814E+02  0.82264272254E+02 0.  0.
          5    1    3    3  501    0 -0.58653920499E+02 -0.63825407809E+01  0.96847294411E+02  0.11350113502E+03  0.47000000000E+01 0. -1.
        -11    1    4    4    0    0  0.22672648009E+01  0.37568041483E+01  0.24979176294E+02  0.25361650487E+02  0.00000000000E+00 0.  1.
         12    1    4    4    0    0  0.73999437916E+01 -0.58295942581E+02 -0.36194769121E+02  0.69016211148E+02  0.00000000000E+00 0. -1.
         -5    1    5    5    0  502  0.56846014335E+02  0.81877056999E+02  0.83744886369E+02  0.13027132379E+03  0.47000000000E+01 0.  1.
         11    1    6    6    0    0  0.35660887623E+02  0.20475376262E+01  0.10645509165E+02  0.37272217291E+02  0.00000000000E+00 0. -1.
        -12    1    6    6    0    0 -0.43520190051E+02 -0.23002915411E+02  0.23811663597E+02  0.54682139523E+02  0.00000000000E+00 0.  1.
</event>
<event>
12    1  0.1623092E-001  0.2243922E+03  0.7818608E-02  0.1130715E+00
         21   -1    0    0  503  502  0.00000000000E+00  0.00000000000E+00  0.36443507642E+03  0.36443507642E+03  0.00000000000E+00 0. -1.
         21   -1    0    0  501  503 -0.00000000000E+00 -0.00000000000E+00 -0.15956869690E+03  0.15956869690E+03  0.00000000000E+00 0. -1.
          6    2    1    2  501    0 -0.98595372991E+02  0.10468670013E+03  0.19881268020E+03  0.29952994954E+03  0.17178869608E+03 0.  0.
         24    2    3    3    0    0 -0.15626087543E+02  0.87344975343E+02  0.17367079860E+03  0.21099271468E+03  0.80517451718E+02 0.  0.
         -6    2    1    2    0  502  0.98595372991E+02 -0.10468670013E+03  0.60536993190E+01  0.22447382378E+03  0.17225416549E+03 0.  0.
        -24    2    5    5    0    0  0.12045426791E+03 -0.55079759915E+02  0.40328791550E+02  0.16016572358E+03  0.80521034349E+02 0.  0.
          5    1    3    3  501    0 -0.82969285448E+02  0.17341724786E+02  0.25141881602E+02  0.88537234860E+02  0.47000000000E+01 0. -1.
        -13    1    4    4    0    0 -0.16412279581E+02  0.45547449786E+02  0.15975907952E+03  0.16693380901E+03  0.00000000000E+00 0.  1.
         14    1    4    4    0    0  0.78619203780E+00  0.41797525557E+02  0.13911719083E+02  0.44058905666E+02  0.00000000000E+00 0. -1.
         -5    1    5    5    0  502 -0.21858894916E+02 -0.49606940214E+02 -0.34275092231E+02  0.64308100203E+02  0.47000000000E+01 0.  1.
         11    1    6    6    0    0  0.62914743749E+02 -0.70692495969E+02  0.32365902510E+02  0.10001622675E+03  0.00000000000E+00 0. -1.
        -12    1    6    6    0    0  0.57539524158E+02  0.15612736054E+02  0.79628890399E+01  0.60149496833E+02  0.00000000000E+00 0.  1.
</event>
<event>
12    1  0.1623092E-001  0.2139080E+03  0.7818608E-02  0.1140213E+00
         21   -1    0    0  503  502  0.00000000000E+00  0.00000000000E+00  0.20527465059E+03  0.20527465059E+03  0.00000000000E+00 0.  1.
         21   -1    0    0  501  503 -0.00000000000E+00 -0.00000000000E+00 -0.39512543858E+03  0.39512543858E+03  0.00000000000E+00 0.  1.
          6    2    1    2  501    0 -0.24873521107E+02  0.11290189990E+03 -0.29709330318E+03  0.36111446754E+03  0.16962811329E+03 0.  0.
         24    2    3    3    0    0 -0.42946580234E+02  0.12611791511E+03 -0.29967291341E+03  0.33809180668E+03  0.82171025601E+02 0.  0.
         -6    2    1    2    0  502  0.24873521107E+02 -0.11290189990E+03  0.10724251519E+03  0.23928562162E+03  0.17997533330E+03 0.  0.
        -24    2    5    5    0    0  0.28136123182E+02 -0.54166946574E+02  0.13896003184E+03  0.17228912785E+03  0.81534983903E+02 0.  0.
          5    1    3    3  501    0  0.18073059127E+02 -0.13216015206E+02  0.25796102301E+01  0.23022660860E+02  0.47000000000E+01 0. -1.
        -13    1    4    4    0    0 -0.18204105016E+02  0.28669396880E+02 -0.17333609034E+03  0.17663160524E+03  0.00000000000E+00 0.  1.
         14    1    4    4    0    0 -0.24742475218E+02  0.97448518228E+02 -0.12633682307E+03  0.16146020144E+03  0.00000000000E+00 0. -1.
         -5    1    5    5    0  502 -0.32626020752E+01 -0.58734953328E+02 -0.31717516649E+02  0.66996493767E+02  0.47000000000E+01 0.  1.
         13    1    6    6    0    0 -0.58576834352E+01 -0.18178481476E+02  0.11627656364E+03  0.11783466764E+03  0.00000000000E+00 0. -1.
        -14    1    6    6    0    0  0.33993806617E+02 -0.35988465098E+02  0.22683468192E+02  0.54454460218E+02  0.00000000000E+00 0.  1.
</event>
<event>
12    1  0.1623092E-001  0.1984054E+03  0.7818608E-02  0.1151517E+00
         21   -1    0    0  501  502  0.00000000000E+00  0.00000000000E+00  0.15380731340E+04  0.15380731340E+04  0.00000000000E+00 0. -1.
         21   -1    0    0  502  503 -0.00000000000E+00 -0.00000000000E+00 -0.82929568537E+02  0.82929568537E+02  0.00000000000E+00 0. -1.
         -6    2    1    2    0  503 -0.98923228565E+02  0.10346345471E+02  0.53265527889E+02  0.20543103458E+03  0.17167364822E+03 0.  0.
        -24    2    3    3    0    0 -0.41843945018E+01 -0.35358011571E+02 -0.64284648141E+00  0.87140976844E+02  0.79532625092E+02 0.  0.
          6    2    1    2  501    0  0.98923228565E+02 -0.10346345471E+02  0.14018780376E+04  0.14155716680E+04  0.16937609888E+03 0.  0.
         24    2    5    5    0    0  0.79752804682E+02  0.14602699003E+02  0.48604230702E+03  0.49918357586E+03  0.79833386023E+02 0.  0.
          5    1    5    5  501    0  0.19170423883E+02 -0.24949044474E+02  0.91583573060E+03  0.91638809214E+03  0.47000000000E+01 0. -1.
        -13    1    6    6    0    0  0.39949457619E+02  0.30436260178E+02  0.11260331102E+03  0.12329570451E+03  0.00000000000E+00 0.  1.
         14    1    6    6    0    0  0.39803347063E+02 -0.15833561175E+02  0.37343899599E+03  0.37588787135E+03  0.00000000000E+00 0. -1.
         -5    1    3    3    0  503 -0.94738834063E+02  0.45704357042E+02  0.53908374371E+02  0.11829005774E+03  0.47000000000E+01 0.  1.
         13    1    4    4    0    0 -0.27333489307E+02  0.12146735757E+02  0.12922064622E+02  0.32582857170E+02  0.00000000000E+00 0. -1.
        -14    1    4    4    0    0  0.23149094806E+02 -0.47504747328E+02 -0.13564911104E+02  0.54558119673E+02  0.00000000000E+00 0.  1.
</event>
<event>
12    1  0.1623092E-001  0.1936615E+03  0.7818608E-02  0.1155672E+00
         21   -1    0    0  503  502  0.00000000000E+00  0.00000000000E+00  0.96429694913E+03  0.96429694913E+03  0.00000000000E+00 0.  1.
         21   -1    0    0  501  503 -0.00000000000E+00 -0.00000000000E+00 -0.41570194852E+02  0.41570194852E+02  0.00000000000E+00 0.  1.
          6    2    1    2  501    0 -0.85304325878E+02 -0.40105054714E+01  0.32629261280E+03  0.37943597147E+03  0.17381563540E+03 0.  0.
         24    2    3    3    0    0 -0.11927895295E+03  0.26886747464E+02  0.26733020644E+03  0.30455225570E+03  0.79600699542E+02 0.  0.
         -6    2    1    2    0  502  0.85304325878E+02  0.40105054714E+01  0.59643414148E+03  0.62643117252E+03  0.17143341743E+03 0.  0.
        -24    2    5    5    0    0  0.93201819983E+02  0.56006197045E+02  0.38642528367E+03  0.40988618247E+03  0.82818532742E+02 0.  0.
          5    1    3    3  501    0  0.33974627076E+02 -0.30897252935E+02  0.58962406361E+02  0.74883715772E+02  0.47000000000E+01 0. -1.
        -13    1    4    4    0    0 -0.10003451366E+01  0.27332321295E+02  0.43282184436E+02  0.51199648118E+02  0.00000000000E+00 0.  1.
         14    1    4    4    0    0 -0.11827860782E+03 -0.44557383142E+00  0.22404802200E+03  0.25335260758E+03  0.00000000000E+00 0. -1.
         -5    1    5    5    0  502 -0.78974941050E+01 -0.51995691574E+02  0.21000885781E+03  0.21654499005E+03  0.47000000000E+01 0.  1.
         13    1    6    6    0    0  0.43387937174E+02  0.59089804781E+02  0.13563916451E+03  0.15418203874E+03  0.00000000000E+00 0. -1.
        -14    1    6    6    0    0  0.49813882809E+02 -0.30836077360E+01  0.25078611916E+03  0.25570414373E+03  0.00000000000E+00 0.  1.
</event>
<event>
12    1  0.1623092E-001  0.2621989E+03  0.7818608E-02  0.1105854E+00
         21   -1    0    0  503  502  0.00000000000E+00  0.00000000000E+00  0.13904532752E+03  0.13904532752E+03  0.00000000000E+00 0.  1.
         21   -1    0    0  501  503 -0.00000000000E+00 -0.00000000000E+00 -0.79008871604E+03  0.79008871604E+03  0.00000000000E+00 0. -1.
          6    2    1    2  501    0 -0.20302289713E+02  0.19669627926E+03 -0.60979653975E+03  0.66371071001E+03  0.17192579051E+03 0.  0.
         24    2    3    3    0    0  0.12657499200E+02  0.20883983616E+03 -0.49269007659E+03  0.54135946410E+03  0.80946082975E+02 0.  0.
         -6    2    1    2    0  502  0.20302289713E+02 -0.19669627926E+03 -0.41246848766E+02  0.26542333354E+03  0.17218197994E+03 0.  0.
        -24    2    5    5    0    0 -0.21260771907E+02 -0.65059478244E+02 -0.85210152143E+02  0.12047300579E+03  0.50677598252E+02 0.  0.
          5    1    3    3  501    0 -0.32959788913E+02 -0.12143556906E+02 -0.11710646317E+03  0.12235124591E+03  0.47000000000E+01 0. -1.
        -11    1    4    4    0    0 -0.25855722066E+02  0.26627583488E+02 -0.64403734201E+02  0.74332950601E+02  0.00000000000E+00 0.  1.
         12    1    4    4    0    0  0.38513221266E+02  0.18221225267E+03 -0.42828634238E+03  0.46702651350E+03  0.00000000000E+00 0. -1.
         -5    1    5    5    0  502  0.41563061619E+02 -0.13163680101E+03  0.43963303377E+02  0.14495032775E+03  0.47000000000E+01 0.  1.
         11    1    6    6    0    0 -0.35440502685E+02 -0.54291185931E+02 -0.53298715370E+02  0.83930418565E+02  0.00000000000E+00 0. -1.
        -12    1    6    6    0    0  0.14179730778E+02 -0.10768292312E+02 -0.31911436772E+02  0.36542587225E+02  0.00000000000E+00 0.  1.
</event>
<event>
12    1  0.1623092E-001  0.2173280E+03  0.7818608E-02  0.1135902E+00
         21   -1    0    0  503  502  0.00000000000E+00  0.00000000000E+00  0.79295839128E+02  0.79295839128E+02  0.00000000000E+00 0.  1.
         21   -1    0    0  501  503 -0.00000000000E+00 -0.00000000000E+00 -0.60202358144E+03  0.60202358144E+03  0.00000000000E+00 0.  1.
          6    2    1    2  501    0 -0.66714525459E+01  0.13264103411E+03 -0.22578426453E+03  0.31334266385E+03  0.17195039597E+03 0.  0.
         24    2    3    3    0    0 -0.44975126182E+01  0.18513702414E+02 -0.16398961289E+03  0.18345639504E+03  0.80004193320E+02 0.  0.
         -6    2    1    2    0  502  0.66714525459E+01 -0.13264103411E+03 -0.29694347779E+03  0.36797675671E+03  0.17202706843E+03 0.  0.
        -24    2    5    5    0    0  0.38832812311E+00 -0.94062047968E+02 -0.30166174179E+03  0.32832618497E+03  0.89165338643E+02 0.  0.
          5    1    3    3  501    0 -0.21739399276E+01  0.11412733170E+03 -0.61794651633E+02  0.12988626881E+03  0.47000000000E+01 0. -1.
        -13    1    4    4    0    0  0.85991740350E+01  0.39720681233E+02 -0.40133602378E+02  0.57117285926E+02  0.00000000000E+00 0.  1.
         14    1    4    4    0    0 -0.13096686653E+02 -0.21206978820E+02 -0.12385601051E+03  0.12633910912E+03  0.00000000000E+00 0. -1.
         -5    1    5    5    0  502  0.62831244228E+01 -0.38578986141E+02  0.47182640002E+01  0.39650571741E+02  0.47000000000E+01 0.  1.
         11    1    6    6    0    0  0.36620075483E+02 -0.80778590389E+02 -0.17953220745E+03  0.20024491031E+03  0.00000000000E+00 0. -1.
        -12    1    6    6    0    0 -0.36231747360E+02 -0.13283457579E+02 -0.12212953434E+03  0.12808127466E+03  0.00000000000E+00 0.  1.
</event>
<event>
12    1  0.1623092E-001  0.2316024E+03  0.7818608E-02  0.1125620E+00
         21   -1    0    0  503  502  0.00000000000E+00  0.00000000000E+00  0.69227469235E+02  0.69227469235E+02  0.00000000000E+00 0. -1.
         21   -1    0    0  501  503 -0.00000000000E+00 -0.00000000000E+00 -0.77293325864E+03  0.77293325864E+03  0.00000000000E+00 0. -1.
          6    2    1    2  501    0  0.67728402073E+02  0.13670142936E+03 -0.34817634684E+03  0.41817034892E+03  0.17425629107E+03 0.  0.
         24    2    3    3    0    0  0.10840789671E+03  0.10765007726E+03 -0.21691031996E+03  0.27762974213E+03  0.81776375611E+02 0.  0.
         -6    2    1    2    0  502 -0.67728402073E+02 -0.13670142936E+03 -0.35552944256E+03  0.42399037896E+03  0.17347114942E+03 0.  0.
        -24    2    5    5    0    0 -0.87387948205E+02 -0.40282479055E+02 -0.24456492285E+03  0.27560464390E+03  0.82985460425E+02 0.  0.
          5    1    3    3  501    0 -0.40679494638E+02  0.29051352103E+02 -0.13126602688E+03  0.14054060679E+03  0.47000000000E+01 0. -1.
        -11    1    4    4    0    0  0.33659427398E+02  0.16491704534E+02 -0.88810186224E+01  0.38520200713E+02  0.00000000000E+00 0.  1.
         12    1    4    4    0    0  0.74748469312E+02  0.91158372723E+02 -0.20802930134E+03  0.23910954142E+03  0.00000000000E+00 0. -1.
         -5    1    5    5    0  502  0.19659546132E+02 -0.96418950306E+02 -0.11096451971E+03  0.14838573505E+03  0.47000000000E+01 0.  1.
         11    1    6    6    0    0 -0.62277359756E+02 -0.55038290788E+02 -0.10969148651E+03  0.13762232815E+03  0.00000000000E+00 0. -1.
        -12    1    6    6    0    0 -0.25110588449E+02  0.14755811733E+02 -0.13487343634E+03  0.13798231576E+03  0.00000000000E+00 0.  1.
</event>
<event>
12    1  0.1623092E-001  0.2104394E+03  0.7818608E-02  0.1141344E+00
         21   -1    0    0  501  502  0.00000000000E+00  0.00000000000E+00  0.46324096960E+03  0.46324096960E+03  0.00000000000E+00 0.  1.
         21   -1    0    0  502  503 -0.00000000000E+00 -0.00000000000E+00 -0.54544904553E+03  0.54544904553E+03  0.00000000000E+00 0. -1.
         -6    2    1    2    0  503  0.52561193695E+02  0.10716022985E+03 -0.49926055613E+03  0.54155243906E+03  0.17254549372E+03 0.  0.
        -24    2    3    3    0    0  0.46612130385E+02 -0.87317601657E+01 -0.25140358932E+03  0.26783449902E+03  0.79262978796E+02 0.  0.
          6    2    1    2  501    0 -0.52561193695E+02 -0.10716022985E+03  0.41705248020E+03  0.46713757607E+03  0.17331690568E+03 0.  0.
         24    2    5    5    0    0  0.60016773724E+01 -0.12279562445E+03  0.25627322824E+03  0.29524768895E+03  0.79877686541E+02 0.  0.
          5    1    5    5  501    0 -0.58562871067E+02  0.15635394598E+02  0.16077925196E+03  0.17188988712E+03  0.47000000000E+01 0. -1.
        -13    1    6    6    0    0 -0.22665795952E+02 -0.46638347275E+02  0.16505182514E+03  0.17300571877E+03  0.00000000000E+00 0.  1.
         14    1    6    6    0    0  0.28667473324E+02 -0.76157277173E+02  0.91221403095E+02  0.12224197019E+03  0.00000000000E+00 0. -1.
         -5    1    3    3    0  503  0.59490633094E+01  0.11589199002E+03 -0.24785696680E+03  0.27371794003E+03  0.47000000000E+01 0.  1.
         13    1    4    4    0    0  0.30709193169E+02  0.21698275242E+02 -0.21311131203E+03  0.21640309843E+03  0.00000000000E+00 0. -1.
        -14    1    4    4    0    0  0.15902937216E+02 -0.30430035407E+02 -0.38292277294E+02  0.51431400597E+02  0.00000000000E+00 0.  1.
</event>
<event>
12    1  0.1623092E-001  0.1752862E+03  0.7818608E-02  0.1172561E+00
         21   -1    0    0  503  502  0.00000000000E+00  0.00000000000E+00  0.48109513325E+03  0.48109513325E+03  0.00000000000E+00 0. -1.
         21   -1    0    0  501  503 -0.00000000000E+00 -0.00000000000E+00 -0.84652451174E+02  0.84652451174E+02  0.00000000000E+00 0. -1.
          6    2    1    2  501    0  0.34818184444E+02  0.44145719469E+01  0.57676399177E+02  0.18453135292E+03  0.17173659708E+03 0.  0.
         24    2    3    3    0    0 -0.16066180738E+02 -0.45900782770E+02  0.60693587418E+02  0.11275359198E+03  0.81637350088E+02 0.  0.
         -6    2    1    2    0  502 -0.34818184444E+02 -0.44145719469E+01  0.33876628290E+03  0.38121623150E+03  0.17126420034E+03 0.  0.
        -24    2    5    5    0    0 -0.54278657795E+01  0.62908169884E+02  0.21454241763E+03  0.23682162945E+03  0.77904657425E+02 0.  0.
          5    1    3    3  501    0  0.50884365183E+02  0.50315354717E+02 -0.30171882415E+01  0.71777760937E+02  0.47000000000E+01 0. -1.
        -11    1    4    4    0    0 -0.26254480662E+02  0.14061134108E+02  0.48327397748E+01  0.30172315472E+02  0.00000000000E+00 0.  1.
         12    1    4    4    0    0  0.10188299923E+02 -0.59961916878E+02  0.55860847643E+02  0.82581276512E+02  0.00000000000E+00 0. -1.
         -5    1    5    5    0  502 -0.29390318665E+02 -0.67322741831E+02  0.12422386526E+03  0.14439460205E+03  0.47000000000E+01 0.  1.
         13    1    6    6    0    0  0.32488997705E+02  0.39231299313E+02  0.14916632819E+03  0.15762367615E+03  0.00000000000E+00 0. -1.
        -14    1    6    6    0    0 -0.37916863484E+02  0.23676870572E+02  0.65376089440E+02  0.79197953300E+02  0.00000000000E+00 0.  1.
</event>
<event>
12    1  0.1623092E-001  0.1743132E+03  0.7818608E-02  0.1176877E+00
         21   -1    0    0  501  502  0.00000000000E+00  0.00000000000E+00  0.10925892436E+02  0.10925892436E+02  0.00000000000E+00 0.  1.
         21   -1    0    0  502  503 -0.00000000000E+00 -0.00000000000E+00 -0.25803100381E+04  0.25803100381E+04  0.00000000000E+00 0.  1.
         -6    2    1    2    0  503 -0.28237321725E+02  0.13393687596E+01 -0.11787364962E+04  0.11897060646E+04  0.15868727877E+03 0.  0.
        -24    2    3    3    0    0  0.38644276605E+02 -0.92216673049E+01 -0.56413807312E+03  0.57137120765E+03  0.81454724388E+02 0.  0.
          6    2    1    2  501    0  0.28237321725E+02 -0.13393687596E+01 -0.13906476495E+04  0.14015298660E+04  0.17200563909E+03 0.  0.
         24    2    5    5    0    0  0.51653680745E+02 -0.14407916570E+01 -0.42404603069E+03  0.43463322430E+03  0.80130050002E+02 0.  0.
          5    1    5    5  501    0 -0.23416359021E+02  0.10142289738E+00 -0.96660161884E+03  0.96689664169E+03  0.47000000000E+01 0. -1.
        -11    1    6    6    0    0  0.29750577430E+02  0.38703665166E+02 -0.19076606176E+03  0.19691307949E+03  0.00000000000E+00 0.  1.
         12    1    6    6    0    0  0.21903103316E+02 -0.40144456823E+02 -0.23327996893E+03  0.23772014482E+03  0.00000000000E+00 0. -1.
         -5    1    3    3    0  503 -0.66881598329E+02  0.10561036065E+02 -0.61459842303E+03  0.61833485691E+03  0.47000000000E+01 0.  1.
         13    1    4    4    0    0 -0.20541916719E+02  0.87892207366E+01 -0.72744358805E+02  0.76098373711E+02  0.00000000000E+00 0. -1.
        -14    1    4    4    0    0  0.59186193324E+02 -0.18010888041E+02 -0.49139371432E+03  0.49527283394E+03  0.00000000000E+00 0.  1.
</event>
<event>
12    1  0.1623092E-001  0.2281207E+03  0.7818608E-02  0.1127992E+00
         21   -1    0    0  501  502  0.00000000000E+00  0.00000000000E+00  0.43920562378E+03  0.43920562378E+03  0.00000000000E+00 0. -1.
         21   -1    0    0  502  503 -0.00000000000E+00 -0.00000000000E+00 -0.12657911331E+03  0.12657911331E+03  0.00000000000E+00 0.  1.
         -6    2    1    2    0  503 -0.10638974610E+03 -0.10614204199E+03  0.84440843403E+02  0.24312740493E+03  0.17145194032E+03 0.  0.
        -24    2    3    3    0    0 -0.13934660048E+03 -0.96974801713E+02  0.49655415373E+02  0.19411405421E+03  0.79956353928E+02 0.  0.
          6    2    1    2  501    0  0.10638974610E+03  0.10614204199E+03  0.22818566707E+03  0.32265733216E+03  0.17162209702E+03 0.  0.
         24    2    5    5    0    0  0.34281710373E+02 -0.71441892101E+01  0.55717819285E+02  0.10402387745E+03  0.80561880495E+02 0.  0.
          5    1    5    5  501    0  0.72108035723E+02  0.11328623120E+03  0.17246784779E+03  0.21863345470E+03  0.47000000000E+01 0. -1.
        -11    1    6    6    0    0  0.95960777151E+01  0.41204851846E+01 -0.20561766001E+02  0.23061858701E+02  0.00000000000E+00 0.  1.
         12    1    6    6    0    0  0.24685632658E+02 -0.11264674395E+02  0.76279585286E+02  0.80962018752E+02  0.00000000000E+00 0. -1.
         -5    1    3    3    0  503  0.32956854386E+02 -0.91672402784E+01  0.34785428031E+02  0.49013350718E+02  0.47000000000E+01 0.  1.
         11    1    4    4    0    0 -0.90338718529E+02 -0.16608910380E+02  0.37458511695E+02  0.99197177722E+02  0.00000000000E+00 0. -1.
        -12    1    4    4    0    0 -0.49007881953E+02 -0.80365891334E+02  0.12196903677E+02  0.94916876490E+02  0.00000000000E+00 0.  1.
</event>
<event>
12    1  0.1623092E-001  0.2093209E+03  0.7818608E-02  0.1142634E+00
         21   -1    0    0  503  502  0.00000000000E+00  0.00000000000E+00  0.16304319794E+03  0.16304319794E+03  0.00000000000E+00 0. -1.
         21   -1    0    0  501  503 -0.00000000000E+00 -0.00000000000E+00 -0.31889888627E+03  0.31889888627E+03  0.00000000000E+00 0. -1.
          6    2    1    2  501    0 -0.88216866270E+02 -0.76803857369E+02 -0.17708180716E+03  0.27417731116E+03  0.17359200306E+03 0.  0.
         24    2    3    3    0    0 -0.43955657190E+02 -0.39469569883E+02 -0.14183507372E+02  0.10122977656E+03  0.80971285248E+02 0.  0.
         -6    2    1    2    0  502  0.88216866270E+02  0.76803857369E+02  0.21226118843E+02  0.20776477305E+03  0.17039543655E+03 0.  0.
        -24    2    5    5    0    0  0.69167176003E+02  0.12033106402E+03  0.87052041588E+01  0.15840515673E+03  0.75846884544E+02 0.  0.
          5    1    3    3  501    0 -0.44261209080E+02 -0.37334287486E+02 -0.16289829979E+03  0.17294753461E+03  0.47000000000E+01 0. -1.
        -13    1    4    4    0    0 -0.96101923436E+00  0.89304781857E+01  0.24306657798E+02  0.25913135894E+02  0.00000000000E+00 0.  1.
         14    1    4    4    0    0 -0.42994637956E+02 -0.48400048069E+02 -0.38490165170E+02  0.75316640663E+02  0.00000000000E+00 0. -1.
         -5    1    5    5    0  502  0.19049690267E+02 -0.43527206653E+02  0.12520914685E+02  0.49359616315E+02  0.47000000000E+01 0.  1.
         11    1    6    6    0    0  0.21839370128E+02  0.53485075980E+02  0.40491584455E+02  0.70549130766E+02  0.00000000000E+00 0. -1.
        -12    1    6    6    0    0  0.47327805875E+02  0.66845988041E+02 -0.31786380296E+02  0.87856025966E+02  0.00000000000E+00 0.  1.
</event>
<event>
12    1  0.1623092E-001  0.1834637E+03  0.7818608E-02  0.1164856E+00
         21   -1    0    0  503  502  0.00000000000E+00  0.00000000000E+00  0.37695356460E+03  0.37695356460E+03  0.00000000000E+00 0.  1.
         21   -1    0    0  501  503 -0.00000000000E+00 -0.00000000000E+00 -0.26000152624E+03  0.26000152624E+03  0.00000000000E+00 0.  1.
          6    2    1    2  501    0 -0.51076651319E+02 -0.35338229934E+02 -0.20022866920E+03  0.27053659302E+03  0.17099974674E+03 0.  0.
         24    2    3    3    0    0 -0.40882412285E+02 -0.49046609401E+02 -0.22111234926E+03  0.24314936479E+03  0.78447441476E+02 0.  0.
         -6    2    1    2    0  502  0.51076651319E+02  0.35338229934E+02  0.31718070757E+03  0.36641849783E+03  0.17263052885E+03 0.  0.
        -24    2    5    5    0    0  0.17539011765E+02  0.78244228936E+02  0.27617072911E+03  0.29808397983E+03  0.78447505484E+02 0.  0.
          5    1    3    3  501    0 -0.10194239033E+02  0.13708379468E+02  0.20883680057E+02  0.27387228225E+02  0.47000000000E+01 0. -1.
        -13    1    4    4    0    0  0.15564606390E+01 -0.57775027196E+02 -0.12904023990E+03  0.14139221991E+03  0.00000000000E+00 0.  1.
         14    1    4    4    0    0 -0.42438872924E+02  0.87284177948E+01 -0.92072109357E+02  0.10175714488E+03  0.00000000000E+00 0. -1.
         -5    1    5    5    0  502  0.33537639554E+02 -0.42905999002E+02  0.41009978457E+02  0.68334517999E+02  0.47000000000E+01 0.  1.
         11    1    6    6    0    0  0.37190577941E+02  0.24832974291E+02  0.61770656439E+02  0.76258964697E+02  0.00000000000E+00 0. -1.
        -12    1    6    6    0    0 -0.19651566177E+02  0.53411254645E+02  0.21440007267E+03  0.22182501513E+03  0.00000000000E+00 0.  1.
</event>
<event>
12    1  0.1623092E-001  0.2323286E+03  0.7818608E-02  0.1128030E+00
         21   -1    0    0  501  502  0.00000000000E+00  0.00000000000E+00  0.30574654516E+03  0.30574654516E+03  0.00000000000E+00 0. -1.
         21   -1    0    0  502  503 -0.00000000000E+00 -0.00000000000E+00 -0.25224134163E+03  0.25224134163E+03  0.00000000000E+00 0.  1.
         -6    2    1    2    0  503 -0.12618536527E+03  0.31584395163E+02 -0.13746753716E+03  0.26995162660E+03  0.19249996496E+03 0.  0.
        -24    2    3    3    0    0 -0.12929771091E+03  0.22849588988E+02 -0.22753429668E+02  0.15476742634E+03  0.78709821050E+02 0.  0.
          6    2    1    2  501    0  0.12618536527E+03 -0.31584395163E+02  0.19097274068E+03  0.28803626019E+03  0.17197086693E+03 0.  0.
         24    2    5    5    0    0  0.56082851323E+00  0.75719977205E+01  0.10149290398E+03  0.12883990811E+03  0.79001662547E+02 0.  0.
          5    1    5    5  501    0  0.12562453676E+03 -0.39156392883E+02  0.89479836703E+02  0.15919635208E+03  0.47000000000E+01 0. -1.
        -13    1    6    6    0    0  0.25467721882E+02  0.13046263927E+02  0.50180218351E+01  0.29051512929E+02  0.00000000000E+00 0.  1.
         14    1    6    6    0    0 -0.24906893369E+02 -0.54742662069E+01  0.96474882145E+02  0.99788395180E+02  0.00000000000E+00 0. -1.
         -5    1    3    3    0  503  0.31123456404E+01  0.87348061751E+01 -0.11471410749E+03  0.11518420027E+03  0.47000000000E+01 0.  1.
         13    1    4    4    0    0 -0.12885433153E+03  0.21821550496E+02 -0.40627469240E+02  0.13685835771E+03  0.00000000000E+00 0. -1.
        -14    1    4    4    0    0 -0.44337938593E+00  0.10280384912E+01  0.17874039572E+02  0.17909068625E+02  0.00000000000E+00 0.  1.
</event>
<event>
12    1  0.1623092E-001  0.2341815E+03  0.7818608E-02  0.1123847E+00
         21   -1    0    0  501  502  0.00000000000E+00  0.00000000000E+00  0.15461976254E+03  0.15461976254E+03  0.00000000000E+00 0.  1.
         21   -1    0    0  502  503 -0.00000000000E+00 -0.00000000000E+00 -0.42434284084E+03  0.42434284084E+03  0.00000000000E+00 0.  1.
         -6    2    1    2    0  503 -0.10111648243E+03  0.12088690097E+03 -0.25284527607E+03  0.34417365682E+03  0.17229795871E+03 0.  0.
        -24    2    3    3    0    0 -0.54803290338E+02  0.51511539708E+02 -0.41736805765E+02  0.11713461008E+03  0.79509223161E+02 0.  0.
          6    2    1    2  501    0  0.10111648243E+03 -0.12088690097E+03 -0.16877802234E+02  0.23478894656E+03  0.17321317321E+03 0.  0.
         24    2    5    5    0    0  0.12686563554E+03 -0.72498339142E+02  0.18539560146E+02  0.16935996705E+03  0.83595361656E+02 0.  0.
          5    1    5    5  501    0 -0.25749153109E+02 -0.48388561825E+02 -0.35417362380E+02  0.65428979507E+02  0.47000000000E+01 0. -1.
        -11    1    6    6    0    0  0.57313231297E+02 -0.62500774108E+02  0.42842547157E+02  0.95008615887E+02  0.00000000000E+00 0.  1.
         12    1    6    6    0    0  0.69552404242E+02 -0.99975650347E+01 -0.24302987011E+02  0.74351351165E+02  0.00000000000E+00 0. -1.
         -5    1    3    3    0  503 -0.46313192092E+02  0.69375361260E+02 -0.21110847031E+03  0.22703904674E+03  0.47000000000E+01 0.  1.
         11    1    4    4    0    0 -0.14272264567E+02  0.64097713065E+02 -0.16318176607E+02  0.67664593724E+02  0.00000000000E+00 0. -1.
        -12    1    4    4    0    0 -0.40531025771E+02 -0.12586173357E+02 -0.25418629158E+02  0.49470016354E+02  0.00000000000E+00 0.  1.
</event>
<event>
12    1  0.1623092E-001  0.2283325E+03  0.7818608E-02  0.1128448E+00
         21   -1    0    0  503  502  0.00000000000E+00  0.00000000000E+00  0.11314817609E+04  0.11314817609E+04  0.00000000000E+00 0. -1.
         21   -1    0    0  501  503 -0.00000000000E+00 -0.00000000000E+00 -0.72643980450E+02  0.72643980450E+02  0.00000000000E+00 0. -1.
          6    2    1    2  501    0  0.11471939348E+03 -0.89685677009E+02  0.15796194122E+03  0.27476411996E+03  0.17128714734E+03 0.  0.
         24    2    3    3    0    0  0.39391284870E+02 -0.32112838969E+02  0.15291090242E+03  0.17970330459E+03  0.79552660858E+02 0.  0.
         -6    2    1    2    0  502 -0.11471939348E+03  0.89685677009E+02  0.90087583927E+03  0.92936162142E+03  0.17587406203E+03 0.  0.
        -24    2    5    5    0    0 -0.13393351275E+03  0.23179410036E+02  0.52779659011E+03  0.54988503179E+03  0.72998881981E+02 0.  0.
          5    1    3    3  501    0  0.75328108614E+02 -0.57572838040E+02  0.50510387976E+01  0.95060815377E+02  0.47000000000E+01 0. -1.
        -13    1    4    4    0    0 -0.15914807417E+02  0.11026215879E+02  0.61546448575E+02  0.64519949349E+02  0.00000000000E+00 0.  1.
         14    1    4    4    0    0  0.55306092287E+02 -0.43139054848E+02  0.91364453845E+02  0.11518335524E+03  0.00000000000E+00 0. -1.
         -5    1    5    5    0  502  0.19214119262E+02  0.66506266973E+02  0.37307924915E+03  0.37947658963E+03  0.47000000000E+01 0.  1.
         11    1    6    6    0    0 -0.11887691338E+03  0.24297311879E+02  0.33148068872E+03  0.35298941470E+03  0.00000000000E+00 0. -1.
        -12    1    6    6    0    0 -0.15056599363E+02 -0.11179018433E+01  0.19631590139E+03  0.19689561709E+03  0.00000000000E+00 0.  1.
</event>
<event>
12    1  0.1623092E-001  0.2698747E+03  0.7818608E-02  0.1101461E+00
         21   -1    0    0  503  502  0.00000000000E+00  0.00000000000E+00  0.10181581921E+03  0.10181581921E+03  0.00000000000E+00 0. -1.
         21   -1    0    0  501  503 -0.00000000000E+00 -0.00000000000E+00 -0.80976426418E+03  0.80976426418E+03  0.00000000000E+00 0.  1.
          6    2    1    2  501    0  0.16504461145E+03 -0.12525691850E+03 -0.51172994202E+03  0.57853251626E+03  0.17292576272E+03 0.  0.
         24    2    3    3    0    0  0.60216439668E+02 -0.66157329070E+02 -0.38535056057E+03  0.40396005243E+03  0.81767093855E+02 0.  0.
         -6    2    1    2    0  502 -0.16504461145E+03  0.12525691850E+03 -0.19621850295E+03  0.33304756713E+03  0.17172641516E+03 0.  0.
        -24    2    5    5    0    0 -0.29057308319E+02  0.25181959018E+01 -0.40859037141E+02  0.92806033961E+02  0.78056585540E+02 0.  0.
          5    1    3    3  501    0  0.10482817179E+03 -0.59099589433E+02 -0.12637938145E+03  0.17457246383E+03  0.47000000000E+01 0. -1.
        -13    1    4    4    0    0  0.79354046651E+02 -0.55406850921E+02 -0.34109366179E+03  0.35455869748E+03  0.00000000000E+00 0.  1.
         14    1    4    4    0    0 -0.19137606984E+02 -0.10750478149E+02 -0.44256898780E+02  0.49401354952E+02  0.00000000000E+00 0. -1.
         -5    1    5    5    0  502 -0.13598730313E+03  0.12273872260E+03 -0.15535946581E+03  0.24024153316E+03  0.47000000000E+01 0.  1.
         11    1    6    6    0    0 -0.53437265323E+02  0.13832927837E+02 -0.19733895348E+02  0.58620114665E+02  0.00000000000E+00 0. -1.
        -12    1    6    6    0    0  0.24379957005E+02 -0.11314731935E+02 -0.21125141793E+02  0.34185919296E+02  0.00000000000E+00 0.  1.
</event>
<event>
12    1  0.1623092E-001  0.1830331E+03  0.7818608E-02  0.1165465E+00
         21   -1    0    0  501  502  0.00000000000E+00  0.00000000000E+00  0.18286678313E+03  0.18286678313E+03  0.00000000000E+00 0.  1.
         21   -1    0    0  502  503 -0.00000000000E+00 -0.00000000000E+00 -0.37938464115E+03  0.37938464115E+03  0.00000000000E+00 0.  1.
         -6    2    1    2    0  503  0.16938733188E+02  0.52251413481E+02 -0.30193847244E+03  0.35308352034E+03  0.17459667897E+03 0.  0.
        -24    2    3    3    0    0 -0.54922801425E+02  0.33138484481E+02 -0.22082648739E+03  0.24294438865E+03  0.78377070462E+02 0.  0.
          6    2    1    2  501    0 -0.16938733188E+02 -0.52251413481E+02  0.10542061441E+03  0.20916790394E+03  0.17210629042E+03 0.  0.
         24    2    5    5    0    0 -0.51847671711E+01 -0.63844297408E+02  0.13808440241E+03  0.17226853103E+03  0.80660823660E+02 0.  0.
          5    1    5    5  501    0 -0.11753966017E+02  0.11592883927E+02 -0.32663787994E+02  0.36899372908E+02  0.47000000000E+01 0. -1.
        -11    1    6    6    0    0 -0.33681595318E+00 -0.62949704298E+02  0.41146022004E+02  0.75204879117E+02  0.00000000000E+00 0.  1.
         12    1    6    6    0    0 -0.48479512179E+01 -0.89459310934E+00  0.96938380403E+02  0.97063651915E+02  0.00000000000E+00 0. -1.
         -5    1    3    3    0  503  0.71861534613E+02  0.19112928999E+02 -0.81111985049E+02  0.11013913169E+03  0.47000000000E+01 0.  1.
         11    1    4    4    0    0  0.20165595044E+02  0.39670553542E+01 -0.50811805416E+02  0.54810841276E+02  0.00000000000E+00 0. -1.
        -12    1    4    4    0    0 -0.75088396470E+02  0.29171429127E+02 -0.17001468197E+03  0.18813354737E+03  0.00000000000E+00 0.  1.
</event>
<event>
12    1  0.1623092E-001  0.2225826E+03  0.7818608E-02  0.1132326E+00
         21   -1    0    0  503  502  0.00000000000E+00  0.00000000000E+00  0.98903580615E+02  0.98903580615E+02  0.00000000000E+00 0.  1.
         21   -1    0    0  501  503 -0.00000000000E+00 -0.00000000000E+00 -0.51307574350E+03  0.51307574350E+03  0.00000000000E+00 0. -1.
          6    2    1    2  501    0  0.91264835183E+02 -0.10393899661E+03 -0.15313896762E+03  0.27017503111E+03  0.17438583336E+03 0.  0.
         24    2    3    3    0    0  0.15073943370E+02 -0.10743374427E+03 -0.57742507049E+02  0.14794639312E+03  0.82369320381E+02 0.  0.
         -6    2    1    2    0  502 -0.91264835183E+02  0.10393899661E+03 -0.26103319527E+03  0.34180429301E+03  0.17192806789E+03 0.  0.
        -24    2    5    5    0    0 -0.13045532553E+03  0.92164792780E+02 -0.20484431259E+03  0.27213502470E+03  0.81137773442E+02 0.  0.
          5    1    3    3  501    0  0.76190891813E+02  0.34947476585E+01 -0.95396460571E+02  0.12222863799E+03  0.47000000000E+01 0. -1.
        -13    1    4    4    0    0  0.33441712404E+02 -0.11079122084E+03 -0.40730605510E+02  0.12268669434E+03  0.00000000000E+00 0.  1.
         14    1    4    4    0    0 -0.18367769035E+02  0.33574765704E+01 -0.17011901539E+02  0.25259698775E+02  0.00000000000E+00 0. -1.
         -5    1    5    5    0  502  0.39190490352E+02  0.11774203831E+02 -0.56188882677E+02  0.69669268307E+02  0.47000000000E+01 0.  1.
         11    1    6    6    0    0  0.42500522825E+01  0.25803186604E+02 -0.50059458712E+02  0.56478463062E+02  0.00000000000E+00 0. -1.
        -12    1    6    6    0    0 -0.13470537782E+03  0.66361606175E+02 -0.15478485388E+03  0.21565656164E+03  0.00000000000E+00 0.  1.
</event>
<event>
12    1  0.1623092E-001  0.1781130E+03  0.7818608E-02  0.1170105E+00
         21   -1    0    0  501  502  0.00000000000E+00  0.00000000000E+00  0.26237263750E+02  0.26237263750E+02  0.00000000000E+00 0. -1.
         21   -1    0    0  502  503 -0.00000000000E+00 -0.00000000000E+00 -0.17070400354E+04  0.17070400354E+04  0.00000000000E+00 0. -1.
         -6    2    1    2    0  503 -0.12444771017E+01 -0.37847995435E+02 -0.13112604505E+04  0.13230508154E+04  0.17212051429E+03 0.  0.
        -24    2    3    3    0    0 -0.51670741719E+01  0.29657448193E+02 -0.10387465137E+04  0.10422336017E+04  0.79688757330E+02 0.  0.
          6    2    1    2  501    0  0.12444771017E+01  0.37847995435E+02 -0.36954232118E+03  0.41022648385E+03  0.17404086135E+03 0.  0.
         24    2    5    5    0    0 -0.19163045585E+02 -0.17363107715E+02 -0.32654285537E+03  0.33718008110E+03  0.79946675190E+02 0.  0.
          5    1    5    5  501    0  0.20407522687E+02  0.55211103150E+02 -0.42999465815E+02  0.73046402743E+02  0.47000000000E+01 0. -1.
        -11    1    6    6    0    0 -0.36405961139E+02 -0.60652730435E+01 -0.64387318748E+02  0.74215283865E+02  0.00000000000E+00 0.  1.
         12    1    6    6    0    0  0.17242915554E+02 -0.11297834672E+02 -0.26215553662E+03  0.26296479724E+03  0.00000000000E+00 0. -1.
         -5    1    3    3    0  503  0.39225970702E+01 -0.67505443629E+02 -0.27251393686E+03  0.28081721363E+03  0.47000000000E+01 0.  1.
         13    1    4    4    0    0  0.32590187524E+02  0.27681844122E+02 -0.37898306455E+03  0.38138768731E+03  0.00000000000E+00 0. -1.
        -14    1    4    4    0    0 -0.37757261695E+02  0.19756040714E+01 -0.65976344910E+03  0.66084591441E+03  0.00000000000E+00 0.  1.
</event>
<event>
12    1  0.1623092E-001  0.1842592E+03  0.7818608E-02  0.1163924E+00
         21   -1    0    0  503  502  0.00000000000E+00  0.00000000000E+00  0.13180868335E+03  0.13180868335E+03  0.00000000000E+00 0. -1.
         21   -1    0    0  501  503 -0.00000000000E+00 -0.00000000000E+00 -0.25993911907E+03  0.25993911907E+03  0.00000000000E+00 0. -1.
          6    2    1    2  501    0 -0.17152404737E+02  0.63263739006E+02 -0.86704751969E+02  0.20363976045E+03  0.17220607527E+03 0.  0.
         24    2    3    3    0    0 -0.26082015711E+02  0.57692260424E+00 -0.10809225883E+03  0.13664057872E+03  0.79411000199E+02 0.  0.
         -6    2    1    2    0  502  0.17152404737E+02 -0.63263739006E+02 -0.41425683753E+02  0.18810804197E+03  0.17138273694E+03 0.  0.
        -24    2    5    5    0    0  0.33786026545E+01 -0.61680646656E+02 -0.91593907157E+02  0.13584749811E+03  0.79051766503E+02 0.  0.
          5    1    3    3  501    0  0.89296109740E+01  0.62686816401E+02  0.21387506856E+02  0.66999181728E+02  0.47000000000E+01 0. -1.
        -13    1    4    4    0    0 -0.19696216772E+02 -0.21188048086E+02 -0.29492124088E+01  0.29078724021E+02  0.00000000000E+00 0.  1.
         14    1    4    4    0    0 -0.63857989391E+01  0.21764970691E+02 -0.10514304642E+03  0.10756185470E+03  0.00000000000E+00 0. -1.
         -5    1    5    5    0  502  0.13773802083E+02 -0.15830923498E+01  0.50168223404E+02  0.52260543862E+02  0.47000000000E+01 0.  1.
         13    1    6    6    0    0  0.16362820584E+02 -0.63266232869E+02 -0.28294218441E+02  0.71210398932E+02  0.00000000000E+00 0. -1.
        -14    1    6    6    0    0 -0.12984217929E+02  0.15855862130E+01 -0.63299688716E+02  0.64637099180E+02  0.00000000000E+00 0.  1.
</event>
<event>
12    1  0.1623092E-001  0.2104377E+03  0.7818608E-02  0.1141747E+00
         21   -1    0    0  501  502  0.00000000000E+00  0.00000000000E+00  0.17908257671E+03  0.17908257671E+03  0.00000000000E+00 0. -1.
         21   -1    0    0  502  503 -0.00000000000E+00 -0.00000000000E+00 -0.29761680925E+03  0.29761680925E+03  0.00000000000E+00 0. -1.
         -6    2    1    2    0  503  0.24640337212E+02 -0.11450327478E+03 -0.16057426923E+03  0.26470385352E+03  0.17483102692E+03 0.  0.
        -24    2    3    3    0    0  0.76646813999E+02 -0.40559404120E+02 -0.77440429341E+02  0.14179862592E+03  0.81179005029E+02 0.  0.
          6    2    1    2  501    0 -0.24640337212E+02  0.11450327478E+03  0.42040036700E+02  0.21199553244E+03  0.17162923684E+03 0.  0.
         24    2    5    5    0    0 -0.37008152927E+02  0.35181022580E+02 -0.33133226966E+02  0.10191332621E+03  0.81738654239E+02 0.  0.
          5    1    5    5  501    0  0.12367815716E+02  0.79322252197E+02  0.75173263666E+02  0.11008220623E+03  0.47000000000E+01 0. -1.
        -11    1    6    6    0    0  0.98848291772E+01  0.14795433828E+02  0.20949130140E+02  0.27486010326E+02  0.00000000000E+00 0.  1.
         12    1    6    6    0    0 -0.46892982104E+02  0.20385588752E+02 -0.54082357106E+02  0.74427315883E+02  0.00000000000E+00 0. -1.
         -5    1    3    3    0  503 -0.52006476787E+02 -0.73943870657E+02 -0.83133839891E+02  0.12290522760E+03  0.47000000000E+01 0.  1.
         13    1    4    4    0    0  0.15586768945E+02 -0.49874189086E+02 -0.15927164467E+02  0.54626519851E+02  0.00000000000E+00 0. -1.
        -14    1    4    4    0    0  0.61060045054E+02  0.93147849655E+01 -0.61513264874E+02  0.87172106068E+02  0.00000000000E+00 0.  1.
</event>
<event>
12    1  0.1623092E-001  0.1811096E+03  0.7818608E-02  0.1167833E+00
         21   -1    0    0  503  502  0.00000000000E+00  0.00000000000E+00  0.19133743951E+03  0.19133743951E+03  0.00000000000E+00 0. -1.
         21   -1    0    0  501  503 -0.00000000000E+00 -0.00000000000E+00 -0.20169685630E+03  0.20169685630E+03  0.00000000000E+00 0.  1.
          6    2    1    2  501    0 -0.36623393671E+02 -0.12673353462E+02 -0.86419986049E+02  0.19660138943E+03  0.17228408367E+03 0.  0.
         24    2    3    3    0    0 -0.12896092129E+02 -0.46080364826E+02 -0.11266620558E+03  0.14771409777E+03  0.82680539336E+02 0.  0.
         -6    2    1    2    0  502  0.36623393671E+02  0.12673353462E+02  0.76060569254E+02  0.19643290637E+03  0.17691463947E+03 0.  0.
        -24    2    5    5    0    0  0.47876334642E+02  0.24762908635E+02  0.11760147630E+03  0.15148267853E+03  0.78813384679E+02 0.  0.
          5    1    3    3  501    0 -0.23727301542E+02  0.33407011364E+02  0.26246219530E+02  0.48887291665E+02  0.47000000000E+01 0. -1.
        -13    1    4    4    0    0 -0.16758170624E+02  0.12847433305E+02 -0.74417203402E+02  0.77355109639E+02  0.00000000000E+00 0.  1.
         14    1    4    4    0    0  0.38620784955E+01 -0.58927798130E+02 -0.38249002177E+02  0.70358988128E+02  0.00000000000E+00 0. -1.
         -5    1    5    5    0  502 -0.11252940971E+02 -0.12089555173E+02 -0.41540907047E+02  0.44950227842E+02  0.47000000000E+01 0.  1.
         13    1    6    6    0    0  0.29959104824E+02  0.49566310092E+02  0.47181739878E+02  0.74702634732E+02  0.00000000000E+00 0. -1.
        -14    1    6    6    0    0  0.17917229818E+02 -0.24803401458E+02  0.70419736423E+02  0.76780043801E+02  0.00000000000E+00 0.  1.
</event>
<event>
12    1  0.1623092E-001  0.2068118E+03  0.7818608E-02  0.1144507E+00
         21   -1    0    0  501  502  0.00000000000E+00  0.00000000000E+00  0.32121803635E+03  0.32121803635E+03  0.00000000000E+00 0.  1.
         21   -1    0    0  502  503 -0.00000000000E+00 -0.00000000000E+00 -0.19085059393E+03  0.19085059393E+03  0.00000000000E+00 0. -1.
         -6    2    1    2    0  503 -0.63730418098E+02  0.92201766992E+02 -0.76883201716E+02  0.22064031191E+03  0.17380560550E+03 0.  0.
        -24    2    3    3    0    0 -0.10788706105E+03  0.89805365303E+02 -0.69438478529E+02  0.17555078140E+03  0.79320570909E+02 0.  0.
          6    2    1    2  501    0  0.63730418098E+02 -0.92201766992E+02  0.20725064414E+03  0.29142831837E+03  0.17150773517E+03 0.  0.
         24    2    5    5    0    0  0.23497185711E+02 -0.79928149506E+02  0.45581699576E+02  0.12431071813E+03  0.80217432552E+02 0.  0.
          5    1    5    5  501    0  0.40233232387E+02 -0.12273617485E+02  0.16166894456E+03  0.16711760024E+03  0.47000000000E+01 0. -1.
        -11    1    6    6    0    0 -0.13434342543E+02 -0.62957198034E+02  0.52517038467E+02  0.83079056767E+02  0.00000000000E+00 0.  1.
         12    1    6    6    0    0  0.36931528254E+02 -0.16970951472E+02 -0.69353388911E+01  0.41231661361E+02  0.00000000000E+00 0. -1.
         -5    1    3    3    0  503  0.44156642955E+02  0.23964016882E+01 -0.74447231873E+01  0.45089530508E+02  0.47000000000E+01 0.  1.
         13    1    4    4    0    0  0.23713553190E+01  0.31565181178E+02 -0.32803238691E+02  0.45585485162E+02  0.00000000000E+00 0. -1.
        -14    1    4    4    0    0 -0.11025841637E+03  0.58240184126E+02 -0.36635239838E+02  0.12996529624E+03  0.00000000000E+00 0.  1.
</event>
<event>
12    1  0.1623092E-001  0.1789017E+03  0.7818608E-02  0.1169332E+00
         21   -1    0    0  501  502  0.00000000000E+00  0.00000000000E+00  0.12627676516E+03  0.12627676516E+03  0.00000000000E+00 0.  1.
         21   -1    0    0  502  503 -0.00000000000E+00 -0.00000000000E+00 -0.29197481430E+03  0.29197481430E+03  0.00000000000E+00 0.  1.
         -6    2    1    2    0  503  0.28630974641E+02 -0.43787298962E+02 -0.16175854657E+03  0.24118797037E+03  0.17108111937E+03 0.  0.
        -24    2    3    3    0    0 -0.45883737307E+02 -0.49358526599E+02 -0.10345489402E+03  0.14629388850E+03  0.78469135449E+02 0.  0.
          6    2    1    2  501    0 -0.28630974641E+02  0.43787298962E+02 -0.39395025673E+01  0.17706360908E+03  0.16911221636E+03 0.  0.
         24    2    5    5    0    0 -0.40387883001E+02 -0.23366251698E+02 -0.32757036783E+02  0.10289916653E+03  0.85662431687E+02 0.  0.
          5    1    5    5  501    0  0.11756908360E+02  0.67153550661E+02  0.28817534216E+02  0.74164442550E+02  0.47000000000E+01 0. -1.
        -13    1    6    6    0    0 -0.32218839083E+02 -0.52115242506E+02 -0.39633175601E+01  0.61398371146E+02  0.00000000000E+00 0.  1.
         14    1    6    6    0    0 -0.81690439179E+01  0.28748990808E+02 -0.28793719223E+02  0.41500795386E+02  0.00000000000E+00 0. -1.
         -5    1    3    3    0  503  0.74514711949E+02  0.55712276374E+01 -0.58303652554E+02  0.94894081877E+02  0.47000000000E+01 0.  1.
         13    1    4    4    0    0 -0.35484481228E+02 -0.25823290088E+02 -0.11109835901E+03  0.11945223352E+03  0.00000000000E+00 0. -1.
        -14    1    4    4    0    0 -0.10399256080E+02 -0.23535236511E+02  0.76434649927E+01  0.26841654974E+02  0.00000000000E+00 0.  1.
</event>
<event>
12    1  0.1623092E-001  0.3841225E+03  0.7818608E-02  0.1049439E+00
         21   -1    0    0  503  502  0.00000000000E+00  0.00000000000E+00  0.17581025443E+03  0.17581025443E+03  0.00000000000E+00 0.  1.
         21   -1    0    0  501  503 -0.00000000000E+00 -0.00000000000E+00 -0.84313671884E+03  0.84313671884E+03  0.00000000000E+00 0. -1.
          6    2    1    2  501    0 -0.31198455747E+03  0.14354330725E+03 -0.29707349721E+03  0.48543285286E+03  0.17161977373E+03 0.  0.
         24    2    3    3    0    0 -0.24754011497E+03  0.10692372874E+03 -0.14498659262E+03  0.31617979898E+03  0.78992157559E+02 0.  0.
         -6    2    1    2    0  502  0.31198455747E+03 -0.14354330725E+03 -0.37025296720E+03  0.53351412040E+03  0.17207850472E+03 0.  0.
        -24    2    5    5    0    0  0.95092626931E+02 -0.35919477198E+02 -0.19722921325E+03  0.23588295980E+03  0.80053679652E+02 0.  0.
          5    1    3    3  501    0 -0.64444442500E+02  0.36619578515E+02 -0.15208690459E+03  0.16925305388E+03  0.47000000000E+01 0. -1.
        -11    1    4    4    0    0 -0.71630229633E+01  0.26530881339E+02 -0.12762244541E+02  0.30299693865E+02  0.00000000000E+00 0.  1.
         12    1    4    4    0    0 -0.24037709201E+03  0.80392847397E+02 -0.13222434808E+03  0.28588010511E+03  0.00000000000E+00 0. -1.
         -5    1    5    5    0  502  0.21689193054E+03 -0.10762383005E+03 -0.17302375395E+03  0.29763116060E+03  0.47000000000E+01 0.  1.
         13    1    6    6    0    0  0.10511597491E+03 -0.29865123218E+02 -0.19560707238E+03  0.22406119818E+03  0.00000000000E+00 0. -1.
        -14    1    6    6    0    0 -0.10023347977E+02 -0.60543539803E+01 -0.16221408721E+01  0.11821761620E+02  0.00000000000E+00 0.  1.
</event>
<event>
12    1  0.1623092E-001  0.2379607E+03  0.7818608E-02  0.1121228E+00
         21   -1    0    0  501  502  0.00000000000E+00  0.00000000000E+00  0.23909635088E+03  0.23909635088E+03  0.00000000000E+00 0. -1.
         21   -1    0    0  502  503 -0.00000000000E+00 -0.00000000000E+00 -0.24596335311E+03  0.24596335311E+03  0.00000000000E+00 0. -1.
         -6    2    1    2    0  503 -0.48015770427E+02  0.15729456555E+03 -0.51199255812E+02  0.24340639921E+03  0.17198318760E+03 0.  0.
        -24    2    3    3    0    0  0.34186465145E+02  0.11222762109E+03 -0.21872806404E+02  0.14506837171E+03  0.82478236387E+02 0.  0.
          6    2    1    2  501    0  0.48015770427E+02 -0.15729456555E+03  0.44332253583E+02  0.24165330478E+03  0.17141725829E+03 0.  0.
         24    2    5    5    0    0 -0.22420819249E+02 -0.60109994327E+02  0.61213664172E+02  0.12035521711E+03  0.81377890422E+02 0.  0.
          5    1    5    5  501    0  0.70436589676E+02 -0.97184571223E+02 -0.16881410588E+02  0.12129808767E+03  0.47000000000E+01 0. -1.
        -11    1    6    6    0    0 -0.23064074292E+02  0.90790060437E+01 -0.41966642614E+01  0.25139448375E+02  0.00000000000E+00 0.  1.
         12    1    6    6    0    0  0.64325504231E+00 -0.69189000371E+02  0.65410328433E+02  0.95215768731E+02  0.00000000000E+00 0. -1.
         -5    1    3    3    0  503 -0.82202235572E+02  0.45066944464E+02 -0.29326449408E+02  0.98338027493E+02  0.47000000000E+01 0.  1.
         11    1    4    4    0    0 -0.68930207303E+01  0.55389660477E+02 -0.44494258343E+02  0.71381140703E+02  0.00000000000E+00 0. -1.
        -12    1    4    4    0    0  0.41079485875E+02  0.56837960610E+02  0.22621451939E+02  0.73687231010E+02  0.00000000000E+00 0.  1.
</event>
<event>
12    1  0.1623092E-001  0.1929050E+03  0.7818608E-02  0.1156307E+00
         21   -1    0    0  501  502  0.00000000000E+00  0.00000000000E+00  0.41286002112E+03  0.41286002112E+03  0.00000000000E+00 0. -1.
         21   -1    0    0  502  503 -0.00000000000E+00 -0.00000000000E+00 -0.15809567656E+03  0.15809567656E+03  0.00000000000E+00 0. -1.
         -6    2    1    2    0  503 -0.77924509999E+02  0.42691734802E+02 -0.61429202507E+02  0.20056308861E+03  0.16898873368E+03 0.  0.
        -24    2    3    3    0    0 -0.10925247882E+03  0.64150639286E+02 -0.62438609704E+02  0.16228731148E+03  0.79919852578E+02 0.  0.
          6    2    1    2  501    0  0.77924509999E+02 -0.42691734802E+02  0.31619354708E+03  0.37039260907E+03  0.17122357363E+03 0.  0.
         24    2    5    5    0    0 -0.10939936743E+02 -0.21244998120E+02  0.68793587550E+02  0.10660162670E+03  0.77848037648E+02 0.  0.
          5    1    5    5  501    0  0.88864446743E+02 -0.21446736682E+02  0.24739995953E+03  0.26379098237E+03  0.47000000000E+01 0. -1.
        -13    1    6    6    0    0 -0.43214863511E+01 -0.32611853283E+01 -0.17441796684E+02  0.18262717366E+02  0.00000000000E+00 0.  1.
         14    1    6    6    0    0 -0.66184503924E+01 -0.17983812792E+02  0.86235384234E+02  0.88338909333E+02  0.00000000000E+00 0. -1.
         -5    1    3    3    0  503  0.31327968818E+02 -0.21458904484E+02  0.10094071968E+01  0.38275777128E+02  0.47000000000E+01 0.  1.
         11    1    4    4    0    0 -0.38469798823E+02  0.15855064962E+02 -0.64287609650E+02  0.76578099094E+02  0.00000000000E+00 0. -1.
        -12    1    4    4    0    0 -0.70782679994E+02  0.48295574324E+02  0.18489999456E+01  0.85709212382E+02  0.00000000000E+00 0.  1.
</event>
<event>
12    1  0.1623092E-001  0.1814069E+03  0.7818608E-02  0.1166457E+00
         21   -1    0    0  501  502  0.00000000000E+00  0.00000000000E+00  0.25911990581E+04  0.25911990581E+04  0.00000000000E+00 0.  1.
         21   -1    0    0  502  503 -0.00000000000E+00 -0.00000000000E+00 -0.12286929098E+03  0.12286929098E+03  0.00000000000E+00 0.  1.
         -6    2    1    2    0  503  0.29158142576E+02  0.51993853618E+02 -0.50849464583E+02  0.18836597899E+03  0.17129657294E+03 0.  0.
        -24    2    3    3    0    0  0.47153369492E+02 -0.17550135642E+02 -0.65636118754E+02  0.11487496066E+03  0.79728972057E+02 0.  0.
          6    2    1    2  501    0 -0.29158142576E+02 -0.51993853618E+02  0.25191792317E+04  0.25257023701E+04  0.17133272524E+03 0.  0.
         24    2    5    5    0    0  0.43831176874E+02 -0.56929172907E+02  0.12772821443E+04  0.12816435838E+04  0.77449963618E+02 0.  0.
          5    1    5    5  501    0 -0.72989319450E+02  0.49353192895E+01  0.12418970874E+04  0.12440587864E+04  0.47000000000E+01 0. -1.
        -11    1    6    6    0    0  0.31162182182E+02 -0.50833431384E+02  0.12450714505E+04  0.12464983097E+04  0.00000000000E+00 0.  1.
         12    1    6    6    0    0  0.12668994691E+02 -0.60957415235E+01  0.32210693849E+02  0.35145274070E+02  0.00000000000E+00 0. -1.
         -5    1    3    3    0  503 -0.17995226916E+02  0.69543989260E+02  0.14786654172E+02  0.73491018333E+02  0.47000000000E+01 0.  1.
         13    1    4    4    0    0  0.10589609090E+02 -0.46430353846E+02 -0.31116484064E+02  0.56887196797E+02  0.00000000000E+00 0. -1.
        -14    1    4    4    0    0  0.36563760402E+02  0.28880218204E+02 -0.34519634691E+02  0.57987763859E+02  0.00000000000E+00 0.  1.
</event>
<event>
12    1  0.1623092E-001  0.1848245E+03  0.7818608E-02  0.1163251E+00
         21   -1    0    0  503  502  0.00000000000E+00  0.00000000000E+00  0.42153523278E+03  0.42153523278E+03  0.00000000000E+00 0.  1.
         21   -1    0    0  501  503 -0.00000000000E+00 -0.00000000000E+00 -0.92499938183E+02  0.92499938183E+02  0.00000000000E+00 0. -1.
          6    2    1    2  501    0  0.59857027519E+02  0.35113232168E+02  0.73831120327E+02  0.19902545574E+03  0.17130176557E+03 0.  0.
         24    2    3    3    0    0  0.37029645259E+01  0.70914595059E+02  0.84390607262E+02  0.13143396855E+03  0.71487913366E+02 0.  0.
         -6    2    1    2    0  502 -0.59857027519E+02 -0.35113232168E+02  0.25520417427E+03  0.31500971523E+03  0.17113195875E+03 0.  0.
        -24    2    5    5    0    0  0.74207622549E+01 -0.51459099140E+02  0.75612013635E+02  0.12247680239E+03  0.81118949206E+02 0.  0.
          5    1    3    3  501    0  0.56154062993E+02 -0.35801362891E+02 -0.10559486935E+02  0.67591487185E+02  0.47000000000E+01 0. -1.
        -11    1    4    4    0    0  0.36846832325E+02  0.33824702127E+02  0.51562032531E+02  0.71836221540E+02  0.00000000000E+00 0.  1.
         12    1    4    4    0    0 -0.33143867799E+02  0.37089892932E+02  0.32828574731E+02  0.59597747015E+02  0.00000000000E+00 0. -1.
         -5    1    5    5    0  502 -0.67277789774E+02  0.16345866972E+02  0.17959216064E+03  0.19253291284E+03  0.47000000000E+01 0.  1.
         13    1    6    6    0    0 -0.10575605182E+01  0.60151290984E+01 -0.14231155921E+02  0.15486316901E+02  0.00000000000E+00 0. -1.
        -14    1    6    6    0    0  0.84783227730E+01 -0.57474228239E+02  0.89843169555E+02  0.10699048549E+03  0.00000000000E+00 0.  1.
</event>
<event>
12    1  0.1623092E-001  0.1732768E+03  0.7818608E-02  0.1174751E+00
         21   -1    0    0  503  502  0.00000000000E+00  0.00000000000E+00  0.97160305138E+02  0.97160305138E+02  0.00000000000E+00 0.  1.
         21   -1    0    0  501  503 -0.00000000000E+00 -0.00000000000E+00 -0.37856007731E+03  0.37856007731E+03  0.00000000000E+00 0.  1.
          6    2    1    2  501    0 -0.21286021800E+02 -0.82596639140E+01 -0.24441606235E+03  0.29960651890E+03  0.17176593917E+03 0.  0.
         24    2    3    3    0    0 -0.24970854274E+02 -0.54812750089E+02 -0.22645085030E+03  0.24935110459E+03  0.85252593083E+02 0.  0.
         -6    2    1    2    0  502  0.21286021800E+02  0.82596639140E+01 -0.36983709821E+02  0.17611386355E+03  0.17066628657E+03 0.  0.
        -24    2    5    5    0    0  0.14982097831E+02 -0.44690862775E+02  0.22860073611E+02  0.95821484401E+02  0.80233642796E+02 0.  0.
          5    1    3    3  501    0  0.36848324746E+01  0.46553086175E+02 -0.17965212058E+02  0.50255414306E+02  0.47000000000E+01 0. -1.
        -11    1    4    4    0    0 -0.97375246680E+01 -0.92947798053E-01 -0.16642935163E+03  0.16671399795E+03  0.00000000000E+00 0.  1.
         12    1    4    4    0    0 -0.15233329606E+02 -0.54719802291E+02 -0.60021498663E+02  0.82637106649E+02  0.00000000000E+00 0. -1.
         -5    1    5    5    0  502  0.63039239692E+01  0.52950526689E+02 -0.59843783433E+02  0.80292379150E+02  0.47000000000E+01 0.  1.
         13    1    6    6    0    0 -0.27464298924E+02 -0.88754512315E+00 -0.63345843757E+01  0.28199333520E+02  0.00000000000E+00 0. -1.
        -14    1    6    6    0    0  0.42446396755E+02 -0.43803317652E+02  0.29194657987E+02  0.67622150881E+02  0.00000000000E+00 0.  1.
</event>
<event>
12    1  0.1623092E-001  0.2655854E+03  0.7818608E-02  0.1104024E+00
         21   -1    0    0  501  502  0.00000000000E+00  0.00000000000E+00  0.34091382219E+03  0.34091382219E+03  0.00000000000E+00 0.  1.
         21   -1    0    0  502  503 -0.00000000000E+00 -0.00000000000E+00 -0.24984436539E+03  0.24984436539E+03  0.00000000000E+00 0.  1.
         -6    2    1    2    0  503  0.18874085275E+03 -0.67964277960E+02 -0.78268192160E+02  0.27687820566E+03  0.17404993045E+03 0.  0.
        -24    2    3    3    0    0  0.10235950254E+03  0.21344312852E+02 -0.72981668733E+02  0.15242821816E+03  0.83516407196E+02 0.  0.
          6    2    1    2  501    0 -0.18874085275E+03  0.67964277960E+02  0.16933764897E+03  0.31387998192E+03  0.17205566285E+03 0.  0.
         24    2    5    5    0    0 -0.12948910396E+03  0.10470572469E+03  0.83207665395E+02  0.20296935253E+03  0.80884644144E+02 0.  0.
          5    1    5    5  501    0 -0.59251748785E+02 -0.36741446732E+02  0.86129983572E+02  0.11091062939E+03  0.47000000000E+01 0. -1.
        -11    1    6    6    0    0 -0.72874343925E+02  0.39300940084E+02  0.81893333580E+02  0.11645493540E+03  0.00000000000E+00 0.  1.
         12    1    6    6    0    0 -0.56614760038E+02  0.65404784608E+02  0.13143318155E+01  0.86514417133E+02  0.00000000000E+00 0. -1.
         -5    1    3    3    0  503  0.86381350211E+02 -0.89308590813E+02 -0.52865234271E+01  0.12444998749E+03  0.47000000000E+01 0.  1.
         11    1    4    4    0    0  0.31698202507E+02  0.33895380827E+02  0.47287565240E+01  0.46647979826E+02  0.00000000000E+00 0. -1.
        -12    1    4    4    0    0  0.70661300030E+02 -0.12551067975E+02 -0.77710425257E+02  0.10578023834E+03  0.00000000000E+00 0.  1.
</event>
<event>
12    1  0.1623092E-001  0.1948341E+03  0.7818608E-02  0.1154645E+00
         21   -1    0    0  503  502  0.00000000000E+00  0.00000000000E+00  0.11105932188E+03  0.11105932188E+03  0.00000000000E+00 0. -1.
         21   -1    0    0  501  503 -0.00000000000E+00 -0.00000000000E+00 -0.36109281477E+03  0.36109281477E+03  0.00000000000E+00 0. -1.
          6    2    1    2  501    0 -0.87927655367E+02 -0.81694792366E+01 -0.18532896193E+03  0.26889990208E+03  0.17367302680E+03 0.  0.
         24    2    3    3    0    0 -0.96226022889E+02 -0.49845229889E+02 -0.84288933194E+02  0.15918705641E+03  0.80572329286E+02 0.  0.
         -6    2    1    2    0  502  0.87927655367E+02  0.81694792366E+01 -0.64704530959E+02  0.20325223457E+03  0.17125063960E+03 0.  0.
        -24    2    5    5    0    0  0.46099228054E+02 -0.27038319090E+02  0.23961500239E+02  0.98978740898E+02  0.79789899923E+02 0.  0.
          5    1    3    3  501    0  0.82983675228E+01  0.41675750652E+02 -0.10104002874E+03  0.10971284566E+03  0.47000000000E+01 0. -1.
        -13    1    4    4    0    0  0.11140044340E+02 -0.19880411695E+02 -0.21080919418E+02  0.31044106052E+02  0.00000000000E+00 0.  1.
         14    1    4    4    0    0 -0.10736606723E+03 -0.29964818194E+02 -0.63208013775E+02  0.12814295036E+03  0.00000000000E+00 0. -1.
         -5    1    5    5    0  502  0.41828427313E+02  0.35207798327E+02 -0.88666031197E+02  0.10427349367E+03  0.47000000000E+01 0.  1.
         11    1    6    6    0    0  0.56822111038E+02  0.98011348489E+01  0.13889285691E+02  0.59310427448E+02  0.00000000000E+00 0. -1.
        -12    1    6    6    0    0 -0.10722882984E+02 -0.36839453939E+02  0.10072214548E+02  0.39668313450E+02  0.00000000000E+00 0.  1.
</event>
<event>
12    1  0.1623092E-001  0.1978601E+03  0.7818608E-02  0.1151883E+00
         21   -1    0    0  501  502  0.00000000000E+00  0.00000000000E+00  0.32246344437E+03  0.32246344437E+03  0.00000000000E+00 0.  1.
         21   -1    0    0  502  503 -0.00000000000E+00 -0.00000000000E+00 -0.16782832285E+03  0.16782832285E+03  0.00000000000E+00 0.  1.
         -6    2    1    2    0  503 -0.30730431700E+02  0.89692700668E+02  0.20731847372E+03  0.28553789419E+03  0.17193545151E+03 0.  0.
        -24    2    3    3    0    0 -0.21799793642E+02 -0.56545639685E+01  0.58760211503E+02  0.10872583453E+03  0.88664195371E+02 0.  0.
          6    2    1    2  501    0  0.30730431700E+02 -0.89692700668E+02 -0.52683352201E+02  0.20475387303E+03  0.17366482930E+03 0.  0.
         24    2    5    5    0    0 -0.22826616051E+02  0.30811127641E+01  0.10317298117E+01  0.84825820185E+02  0.81632148370E+02 0.  0.
          5    1    5    5  501    0  0.53557047751E+02 -0.92773813432E+02 -0.53715082013E+02  0.11992805284E+03  0.47000000000E+01 0. -1.
        -13    1    6    6    0    0 -0.14233674916E+02  0.33378613944E+02 -0.24918657506E+02  0.44018960259E+02  0.00000000000E+00 0.  1.
         14    1    6    6    0    0 -0.85929411350E+01 -0.30297501179E+02  0.25950387318E+02  0.40806859926E+02  0.00000000000E+00 0. -1.
         -5    1    3    3    0  503 -0.89306380577E+01  0.95347264637E+02  0.14855826222E+03  0.17681205966E+03  0.47000000000E+01 0.  1.
         11    1    4    4    0    0 -0.43734960702E+02  0.30683737904E+00 -0.20724104608E+01  0.43785109591E+02  0.00000000000E+00 0. -1.
        -12    1    4    4    0    0  0.21935167060E+02 -0.59614013475E+01  0.60832621964E+02  0.64940724934E+02  0.00000000000E+00 0.  1.
</event>
<event>
12    1  0.1623092E-001  0.2011146E+03  0.7818608E-02  0.1148889E+00
         21   -1    0    0  503  502  0.00000000000E+00  0.00000000000E+00  0.35817306417E+03  0.35817306417E+03  0.00000000000E+00 0.  1.
         21   -1    0    0  501  503 -0.00000000000E+00 -0.00000000000E+00 -0.24383054297E+03  0.24383054297E+03  0.00000000000E+00 0.  1.
          6    2    1    2  501    0 -0.72481020380E+02 -0.75611281427E+02 -0.16359988964E+03  0.25893063567E+03  0.17120042641E+03 0.  0.
         24    2    3    3    0    0 -0.34168008075E+01 -0.84563116978E+02 -0.14633304749E+03  0.18702628516E+03  0.80017968418E+02 0.  0.
         -6    2    1    2    0  502  0.72481020380E+02  0.75611281427E+02  0.27794241084E+03  0.34307297147E+03  0.17168726166E+03 0.  0.
        -24    2    5    5    0    0  0.11548586731E+01  0.12982953492E+02  0.21724878842E+03  0.23030979217E+03  0.75337066044E+02 0.  0.
          5    1    3    3  501    0 -0.69064219572E+02  0.89518355504E+01 -0.17266842144E+02  0.71904350511E+02  0.47000000000E+01 0. -1.
        -13    1    4    4    0    0  0.36236147955E+02 -0.49427718717E+02 -0.96345102177E+02  0.11418641123E+03  0.00000000000E+00 0.  1.
         14    1    4    4    0    0 -0.39652948763E+02 -0.35135398261E+02 -0.49987945317E+02  0.72839873926E+02  0.00000000000E+00 0. -1.
         -5    1    5    5    0  502  0.71326161706E+02  0.62628327935E+02  0.60693622425E+02  0.11276317930E+03  0.47000000000E+01 0.  1.
         11    1    6    6    0    0  0.24470443523E+02  0.11285925268E+02  0.25366040250E+02  0.37008251963E+02  0.00000000000E+00 0. -1.
        -12    1    6    6    0    0 -0.23315584850E+02  0.16970282244E+01  0.19188274817E+03  0.19330154021E+03  0.00000000000E+00 0.  1.
</event>
<event>
12    1  0.1623092E-001  0.1785378E+03  0.7818608E-02  0.1169464E+00
         21   -1    0    0  503  502  0.00000000000E+00  0.00000000000E+00  0.21168798035E+03  0.21168798035E+03  0.00000000000E+00 0. -1.
         21   -1    0    0  501  503 -0.00000000000E+00 -0.00000000000E+00 -0.18897358814E+03  0.18897358814E+03  0.00000000000E+00 0. -1.
          6    2    1    2  501    0  0.23725428021E+02 -0.33692279852E+02 -0.79875243552E+02  0.19559094127E+03  0.17371728791E+03 0.  0.
         24    2    3    3    0    0  0.78282551786E+02 -0.15459911184E+02 -0.24933092357E+02  0.11590638192E+03  0.80283644086E+02 0.  0.
         -6    2    1    2    0  502 -0.23725428021E+02  0.33692279852E+02  0.10258963577E+03  0.20507062723E+03  0.17271729250E+03 0.  0.
        -24    2    5    5    0    0 -0.63234196355E+02  0.58846147709E+02  0.32996204495E+02  0.12105279865E+03  0.78125526302E+02 0.  0.
          5    1    3    3  501    0 -0.54557123764E+02 -0.18232368668E+02 -0.54942151195E+02  0.79684559349E+02  0.47000000000E+01 0. -1.
        -11    1    4    4    0    0  0.45894624035E+02 -0.48308779213E+02 -0.97608854073E+01  0.67344855396E+02  0.00000000000E+00 0.  1.
         12    1    4    4    0    0  0.32387927751E+02  0.32848868029E+02 -0.15172206949E+02  0.48561526525E+02  0.00000000000E+00 0. -1.
         -5    1    5    5    0  502  0.39508768333E+02 -0.25153867857E+02  0.69593431270E+02  0.84017828580E+02  0.47000000000E+01 0.  1.
         11    1    6    6    0    0 -0.80122698105E+02  0.58991286519E+02  0.29802421371E+02  0.10386434882E+03  0.00000000000E+00 0. -1.
        -12    1    6    6    0    0  0.16888501750E+02 -0.14513881038E+00  0.31937831239E+01  0.17188449822E+02  0.00000000000E+00 0.  1.
</event>
<event>
12    1  0.1623092E-001  0.2322294E+03  0.7818608E-02  0.1125936E+00
         21   -1    0    0  503  502  0.00000000000E+00  0.00000000000E+00  0.23798086467E+04  0.23798086467E+04  0.00000000000E+00 0. -1.
         21   -1    0    0  501  503 -0.00000000000E+00 -0.00000000000E+00 -0.24024764551E+02  0.24024764551E+02  0.00000000000E+00 0. -1.
          6    2    1    2  501    0 -0.14536367035E+03  0.37045676619E+02  0.15215973642E+04  0.15392170157E+04  0.17727804091E+03 0.  0.
         24    2    3    3    0    0 -0.52836003810E+02  0.78639906258E+02  0.10329677359E+04  0.10401454250E+04  0.76839335505E+02 0.  0.
         -6    2    1    2    0  502  0.14536367035E+03 -0.37045676619E+02  0.83418651791E+03  0.86461639553E+03  0.17085486810E+03 0.  0.
        -24    2    5    5    0    0  0.20264340144E+02 -0.13538337209E+02  0.19195818808E+03  0.20987846700E+03  0.81284038312E+02 0.  0.
          5    1    3    3  501    0 -0.92527666544E+02 -0.41594229638E+02  0.48862962825E+03  0.49907159068E+03  0.47000000000E+01 0. -1.
        -13    1    4    4    0    0 -0.40504523053E+02  0.45590251049E+02  0.29010405557E+03  0.29644468360E+03  0.00000000000E+00 0.  1.
         14    1    4    4    0    0 -0.12331480757E+02  0.33049655209E+02  0.74286368037E+03  0.74370074139E+03  0.00000000000E+00 0. -1.
         -5    1    5    5    0  502  0.12509933021E+03 -0.23507339411E+02  0.64222832983E+03  0.65473792853E+03  0.47000000000E+01 0.  1.
         11    1    6    6    0    0  0.50659969657E+02 -0.13759986464E+02  0.98706421831E+02  0.11179770778E+03  0.00000000000E+00 0. -1.
        -12    1    6    6    0    0 -0.30395629513E+02  0.22164925583E+00  0.93251766250E+02  0.98080759228E+02  0.00000000000E+00 0.  1.
</event>
<event>
12    1  0.1623092E-001  0.2178066E+03  0.7818608E-02  0.1135681E+00
         21   -1    0    0  501  502  0.00000000000E+00  0.00000000000E+00  0.28121633345E+03  0.28121633345E+03  0.00000000000E+00 0. -1.
         21   -1    0    0  502  503 -0.00000000000E+00 -0.00000000000E+00 -0.22303031670E+03  0.22303031670E+03  0.00000000000E+00 0.  1.
         -6    2    1    2    0  503  0.45725979051E+02  0.12448929639E+03 -0.96019087509E+02  0.23803233775E+03  0.17277522557E+03 0.  0.
        -24    2    3    3    0    0  0.20245703653E+02  0.15352237569E+03 -0.96557351885E+02  0.19911519684E+03  0.79652564632E+02 0.  0.
          6    2    1    2  501    0 -0.45725979051E+02 -0.12448929639E+03  0.15420510426E+03  0.26621431240E+03  0.17176261488E+03 0.  0.
         24    2    5    5    0    0 -0.43032580405E+02 -0.68256131524E+02  0.13366427652E+02  0.11446766151E+03  0.80084216152E+02 0.  0.
          5    1    5    5  501    0 -0.26933986461E+01 -0.56233164865E+02  0.14083867661E+03  0.15174665089E+03  0.47000000000E+01 0. -1.
        -11    1    6    6    0    0 -0.40159354576E+02 -0.83107059979E+02  0.24720119823E+02  0.95554390283E+02  0.00000000000E+00 0.  1.
         12    1    6    6    0    0 -0.28732258289E+01  0.14850928455E+02 -0.11353692171E+02  0.18913271228E+02  0.00000000000E+00 0. -1.
         -5    1    3    3    0  503  0.25480275398E+02 -0.29033079305E+02  0.53826437596E+00  0.38917140913E+02  0.47000000000E+01 0.  1.
         13    1    4    4    0    0  0.34579625129E+02  0.33670279013E+02 -0.69017008986E+01  0.48755221651E+02  0.00000000000E+00 0. -1.
        -14    1    4    4    0    0 -0.14333921476E+02  0.11985209668E+03 -0.89655650987E+02  0.15035997519E+03  0.00000000000E+00 0.  1.
</event>
<event>
12    1  0.1623092E-001  0.2391323E+03  0.7818608E-02  0.1120686E+00
         21   -1    0    0  503  502  0.00000000000E+00  0.00000000000E+00  0.24457906139E+03  0.24457906139E+03  0.00000000000E+00 0.  1.
         21   -1    0    0  501  503 -0.00000000000E+00 -0.00000000000E+00 -0.23220365803E+03  0.23220365803E+03  0.00000000000E+00 0. -1.
          6    2    1    2  501    0 -0.81210267119E+02  0.14128799066E+03  0.13580722462E+02  0.23951760319E+03  0.17500526399E+03 0.  0.
         24    2    3    3    0    0 -0.19281381001E+00  0.43734066673E+02 -0.39700619117E+02  0.10188916431E+03  0.83021424232E+02 0.  0.
         -6    2    1    2    0  502  0.81210267119E+02 -0.14128799066E+03 -0.12053191097E+01  0.23726511623E+03  0.17244094293E+03 0.  0.
        -24    2    5    5    0    0  0.82675234837E+02 -0.96214984959E+02  0.60088852163E+02  0.16102347797E+03  0.78901029887E+02 0.  0.
          5    1    3    3  501    0 -0.81017453309E+02  0.97553923985E+02  0.53281341579E+02  0.13762843887E+03  0.47000000000E+01 0. -1.
        -11    1    4    4    0    0  0.25196090370E+02  0.30242880349E+02  0.13335901790E+02  0.41561052179E+02  0.00000000000E+00 0.  1.
         12    1    4    4    0    0 -0.25388904180E+02  0.13491186324E+02 -0.53036520907E+02  0.60328112135E+02  0.00000000000E+00 0. -1.
         -5    1    5    5    0  502 -0.14649677180E+01 -0.45073005699E+02 -0.61294171273E+02  0.76241638264E+02  0.47000000000E+01 0.  1.
         13    1    6    6    0    0 -0.53585465116E+01 -0.48395147351E+02  0.13438815604E+02  0.50511444967E+02  0.00000000000E+00 0. -1.
        -14    1    6    6    0    0  0.88033781348E+02 -0.47819837608E+02  0.46650036559E+02  0.11051203300E+03  0.00000000000E+00 0.  1.
</event>
<event>
12    1  0.1623092E-001  0.2131266E+03  0.7818608E-02  0.1139750E+00
         21   -1    0    0  503  502  0.00000000000E+00  0.00000000000E+00  0.29933703836E+02  0.29933703836E+02  0.00000000000E+00 0.  1.
         21   -1    0    0  501  503 -0.00000000000E+00 -0.00000000000E+00 -0.21214064179E+04  0.21214064179E+04  0.00000000000E+00 0. -1.
          6    2    1    2  501    0  0.12448619171E+02 -0.12612047309E+03 -0.16248577319E+04  0.16383562296E+04  0.16729358683E+03 0.  0.
         24    2    3    3    0    0 -0.45882098502E+02 -0.36746692374E+02 -0.60739713455E+03  0.61530280845E+03  0.78808506269E+02 0.  0.
         -6    2    1    2    0  502 -0.12448619171E+02  0.12612047309E+03 -0.46661498219E+03  0.51298389220E+03  0.17135224012E+03 0.  0.
        -24    2    5    5    0    0 -0.37232323804E+02  0.14934505082E+03 -0.42258467763E+03  0.45717734468E+03  0.82116530511E+02 0.  0.
          5    1    3    3  501    0  0.58330717673E+02 -0.89373780720E+02 -0.10174605974E+04  0.10230534211E+04  0.47000000000E+01 0. -1.
        -13    1    4    4    0    0 -0.48569220398E+02 -0.51366576794E+02 -0.57853104618E+03  0.58283416662E+03  0.00000000000E+00 0.  1.
         14    1    4    4    0    0  0.26871218958E+01  0.14619884420E+02 -0.28866088370E+02  0.32468641831E+02  0.00000000000E+00 0. -1.
         -5    1    5    5    0  502  0.24783704633E+02 -0.23224577724E+02 -0.44030304565E+02  0.55806547518E+02  0.47000000000E+01 0.  1.
         13    1    6    6    0    0  0.68801748604E+01  0.53554173945E+02 -0.24291492462E+03  0.24884341855E+03  0.00000000000E+00 0. -1.
        -14    1    6    6    0    0 -0.44112498664E+02  0.95790876873E+02 -0.17966975301E+03  0.20833392613E+03  0.00000000000E+00 0.  1.
</event>
<event>
12    1  0.1623092E-001  0.1982325E+03  0.7818608E-02  0.1151438E+00
         21   -1    0    0  503  502  0.00000000000E+00  0.00000000000E+00  0.44694510473E+03  0.44694510473E+03  0.00000000000E+00 0.  1.
         21   -1    0    0  501  503 -0.00000000000E+00 -0.00000000000E+00 -0.10327488216E+03  0.10327488216E+03  0.00000000000E+00 0. -1.
          6    2    1    2  501    0  0.89958368205E+02  0.41032054989E+02  0.64002233273E+02  0.20742221096E+03  0.17073825051E+03 0.  0.
         24    2    3    3    0    0  0.11640970450E+03 -0.33622746538E+01  0.71454117803E+02  0.15499940791E+03  0.73188805902E+02 0.  0.
         -6    2    1    2    0  502 -0.89958368205E+02 -0.41032054989E+02  0.27966798930E+03  0.34279777593E+03  0.17181383354E+03 0.  0.
        -24    2    5    5    0    0  0.18855629428E+02 -0.48665068393E+02  0.13375921378E+03  0.16056108986E+03  0.71864543865E+02 0.  0.
          5    1    3    3  501    0 -0.26451336294E+02  0.44394329643E+02 -0.74518845295E+01  0.52422803046E+02  0.47000000000E+01 0. -1.
        -11    1    4    4    0    0  0.37986953224E+01 -0.21020770572E+02  0.22255025926E+02  0.30847837211E+02  0.00000000000E+00 0.  1.
         12    1    4    4    0    0  0.11261100918E+03  0.17658495918E+02  0.49199091877E+02  0.12415157070E+03  0.00000000000E+00 0. -1.
         -5    1    5    5    0  502 -0.10881399763E+03  0.76330134042E+01  0.14590877552E+03  0.18223668607E+03  0.47000000000E+01 0.  1.
         11    1    6    6    0    0 -0.57187713104E+01 -0.53897887141E+02  0.12055217167E+03  0.13217606697E+03  0.00000000000E+00 0. -1.
        -12    1    6    6    0    0  0.24574400738E+02  0.52328187476E+01  0.13207042103E+02  0.28385022896E+02  0.00000000000E+00 0.  1.
</event>
<event>
12    1  0.1623092E-001  0.2034406E+03  0.7818608E-02  0.1147004E+00
         21   -1    0    0  501  502  0.00000000000E+00  0.00000000000E+00  0.94731026279E+02  0.94731026279E+02  0.00000000000E+00 0.  1.
         21   -1    0    0  502  503 -0.00000000000E+00 -0.00000000000E+00 -0.60044944146E+03  0.60044944146E+03  0.00000000000E+00 0.  1.
         -6    2    1    2    0  503 -0.72159535984E+02  0.82951619686E+02 -0.43534206621E+03  0.48053176097E+03  0.17117268722E+03 0.  0.
        -24    2    3    3    0    0  0.19912780841E+02  0.75274550687E+02 -0.22072112725E+03  0.24682149942E+03  0.78359809471E+02 0.  0.
          6    2    1    2  501    0  0.72159535984E+02 -0.82951619686E+02 -0.70376348973E+02  0.21464870677E+03  0.17039151088E+03 0.  0.
         24    2    5    5    0    0  0.99856265272E+02 -0.35091721816E+02 -0.11268436788E+02  0.13357149715E+03  0.80694885389E+02 0.  0.
          5    1    5    5  501    0 -0.27696729288E+02 -0.47859897870E+02 -0.59107912185E+02  0.81077209623E+02  0.47000000000E+01 0. -1.
        -13    1    6    6    0    0  0.62071905396E+02  0.88244092552E+01  0.22385404034E+02  0.66572501470E+02  0.00000000000E+00 0.  1.
         14    1    6    6    0    0  0.37784359876E+02 -0.43916131071E+02 -0.33653840821E+02  0.66998995675E+02  0.00000000000E+00 0. -1.
         -5    1    3    3    0  503 -0.92072316825E+02  0.76770689989E+01 -0.21462093895E+03  0.23371026154E+03  0.47000000000E+01 0.  1.
         13    1    4    4    0    0  0.11284746699E+02  0.90276428897E+02 -0.20069625418E+03  0.22035463591E+03  0.00000000000E+00 0. -1.
        -14    1    4    4    0    0  0.86280341425E+01 -0.15001878210E+02 -0.20024873071E+02  0.26466863518E+02  0.00000000000E+00 0.  1.
</event>
<event>
12    1  0.1623092E-001  0.1735921E+03  0.7818608E-02  0.1174375E+00
         21   -1    0    0  501  502  0.00000000000E+00  0.00000000000E+00  0.79091559924E+03  0.79091559924E+03  0.00000000000E+00 0. -1.
         21   -1    0    0  502  503 -0.00000000000E+00 -0.00000000000E+00 -0.10475430522E+03  0.10475430522E+03  0.00000000000E+00 0. -1.
         -6    2    1    2    0  503  0.21093234794E+02 -0.19037172669E+02 -0.14346041030E+02  0.17418392782E+03  0.17125096590E+03 0.  0.
        -24    2    3    3    0    0  0.15225778011E+02 -0.39841009497E+02 -0.69426511077E+02  0.11482758986E+03  0.80908618818E+02 0.  0.
          6    2    1    2  501    0 -0.21093234794E+02  0.19037172669E+02  0.70050733505E+03  0.72148597663E+03  0.17036475432E+03 0.  0.
         24    2    5    5    0    0 -0.51602714416E+02 -0.33493143912E+02  0.29593647027E+03  0.31235282332E+03  0.78748085541E+02 0.  0.
          5    1    5    5  501    0  0.30509479622E+02  0.52530316581E+02  0.40457086478E+03  0.40913315331E+03  0.47000000000E+01 0. -1.
        -13    1    6    6    0    0 -0.99916697149E+01 -0.52682979421E+02  0.14414675710E+03  0.15379732561E+03  0.00000000000E+00 0.  1.
         14    1    6    6    0    0 -0.41611044701E+02  0.19189835509E+02  0.15178971318E+03  0.15855549771E+03  0.00000000000E+00 0. -1.
         -5    1    3    3    0  503  0.58674567829E+01  0.20803836828E+02  0.55080470047E+02  0.59356337964E+02  0.47000000000E+01 0.  1.
         13    1    4    4    0    0 -0.28383928000E+01  0.36876204745E+01 -0.67499930042E+02  0.67660147606E+02  0.00000000000E+00 0. -1.
        -14    1    4    4    0    0  0.18064170811E+02 -0.43528629972E+02 -0.19265810355E+01  0.47167442254E+02  0.00000000000E+00 0.  1.
</event>
<event>
12    1  0.1623092E-001  0.2527535E+03  0.7818608E-02  0.1111615E+00
         21   -1    0    0  501  502  0.00000000000E+00  0.00000000000E+00  0.17685802413E+03  0.17685802413E+03  0.00000000000E+00 0. -1.
         21   -1    0    0  502  503 -0.00000000000E+00 -0.00000000000E+00 -0.53883639147E+03  0.53883639147E+03  0.00000000000E+00 0. -1.
         -6    2    1    2    0  503  0.49826197770E+02  0.17715633856E+03 -0.38670435717E+03  0.46197899318E+03  0.17325504901E+03 0.  0.
        -24    2    3    3    0    0  0.10098282938E+03  0.88211092670E+02 -0.22215866682E+03  0.26800571683E+03  0.67036276094E+02 0.  0.
          6    2    1    2  501    0 -0.49826197770E+02 -0.17715633856E+03  0.24725989830E+02  0.25371542243E+03  0.17289627737E+03 0.  0.
         24    2    5    5    0    0  0.20225382226E+02 -0.30266880780E+02  0.30739955566E+02  0.90798282592E+02  0.77293163314E+02 0.  0.
          5    1    5    5  501    0 -0.70051579997E+02 -0.14688945778E+03 -0.60139657364E+01  0.16291713984E+03  0.47000000000E+01 0. -1.
        -11    1    6    6    0    0 -0.76967949804E-01 -0.50262352203E+01 -0.25449125434E+02  0.25940835567E+02  0.00000000000E+00 0.  1.
         12    1    6    6    0    0  0.20302350176E+02 -0.25240645559E+02  0.56189081000E+02  0.64857447025E+02  0.00000000000E+00 0. -1.
         -5    1    3    3    0  503 -0.51156631605E+02  0.88945245895E+02 -0.16454569034E+03  0.19397327634E+03  0.47000000000E+01 0.  1.
         13    1    4    4    0    0  0.68479696157E+02  0.46412049988E+02 -0.18690453815E+03  0.20439386867E+03  0.00000000000E+00 0. -1.
        -14    1    4    4    0    0  0.32503133219E+02  0.41799042682E+02 -0.35254128675E+02  0.63611848163E+02  0.00000000000E+00 0.  1.
</event>
<event>
12    1  0.1623092E-001  0.2400519E+03  0.7818608E-02  0.1120456E+00
         21   -1    0    0  503  502  0.00000000000E+00  0.00000000000E+00  0.26308166519E+02  0.26308166519E+02  0.00000000000E+00 0.  1.
         21   -1    0    0  501  503 -0.00000000000E+00 -0.00000000000E+00 -0.23092055711E+04  0.23092055711E+04  0.00000000000E+00 0. -1.
          6    2    1    2  501    0  0.49756588235E+02 -0.15812995590E+03 -0.14547655908E+04  0.14744381438E+04  0.17362060540E+03 0.  0.
         24    2    3    3    0    0  0.56836159114E+02 -0.10887670959E+03 -0.57924492766E+03  0.59749200849E+03  0.79922006507E+02 0.  0.
         -6    2    1    2    0  502 -0.49756588235E+02  0.15812995590E+03 -0.82813181379E+03  0.86107559386E+03  0.16783347787E+03 0.  0.
        -24    2    5    5    0    0 -0.84227975373E+02  0.10457467375E+03 -0.70869130874E+03  0.72563346959E+03  0.79185521929E+02 0.  0.
          5    1    3    3  501    0 -0.70795708791E+01 -0.49253246315E+02 -0.87552066315E+03  0.87694613529E+03  0.47000000000E+01 0. -1.
        -13    1    4    4    0    0  0.41566551965E+01 -0.55861515565E+02 -0.12285041875E+03  0.13501856202E+03  0.00000000000E+00 0.  1.
         14    1    4    4    0    0  0.52679503917E+02 -0.53015194021E+02 -0.45639450891E+03  0.46247344647E+03  0.00000000000E+00 0. -1.
         -5    1    5    5    0  502  0.34471387138E+02  0.53555282155E+02 -0.11944050505E+03  0.13544212426E+03  0.47000000000E+01 0.  1.
         11    1    6    6    0    0 -0.82743546544E+01 -0.10344008985E+02 -0.13446201290E+03  0.13511290234E+03  0.00000000000E+00 0. -1.
        -12    1    6    6    0    0 -0.75953620719E+02  0.11491868273E+03 -0.57422929584E+03  0.59052056725E+03  0.00000000000E+00 0.  1.
</event>
<event>
12    1  0.1623092E-001  0.2467765E+03  0.7818608E-02  0.1115516E+00
         21   -1    0    0  501  502  0.00000000000E+00  0.00000000000E+00  0.22452002187E+03  0.22452002187E+03  0.00000000000E+00 0.  1.
         21   -1    0    0  502  503 -0.00000000000E+00 -0.00000000000E+00 -0.32549701736E+03  0.32549701736E+03  0.00000000000E+00 0.  1.
         -6    2    1    2    0  503  0.70449302201E+02  0.16102772655E+03 -0.16378608749E+03  0.29537293263E+03  0.17183205166E+03 0.  0.
        -24    2    3    3    0    0  0.99125081899E+02  0.16945457424E+03 -0.12610552357E+03  0.24704874614E+03  0.81177862131E+02 0.  0.
          6    2    1    2  501    0 -0.70449302201E+02 -0.16102772655E+03  0.62809092009E+02  0.25464410660E+03  0.17322126338E+03 0.  0.
         24    2    5    5    0    0 -0.51275779438E+02 -0.27635711079E+02 -0.11190931353E+02  0.10082880429E+03  0.81536940993E+02 0.  0.
          5    1    5    5  501    0 -0.19173522763E+02 -0.13339201547E+03  0.74000023362E+02  0.15381530231E+03  0.47000000000E+01 0. -1.
        -13    1    6    6    0    0 -0.28166079559E+01 -0.28605239643E+02 -0.36251844528E+02  0.46264340989E+02  0.00000000000E+00 0.  1.
         14    1    6    6    0    0 -0.48459171482E+02  0.96952856481E+00  0.25060913175E+02  0.54564463302E+02  0.00000000000E+00 0. -1.
         -5    1    3    3    0  503 -0.28675779698E+02 -0.84268476887E+01 -0.37680563920E+02  0.48324186497E+02  0.47000000000E+01 0.  1.
         11    1    4    4    0    0  0.84820375293E+02  0.70649001285E+02 -0.48385514748E+02  0.12052773741E+03  0.00000000000E+00 0. -1.
        -12    1    4    4    0    0  0.14304706606E+02  0.98805572951E+02 -0.77720008826E+02  0.12652100873E+03  0.00000000000E+00 0.  1.
</event>
<event>
12    1  0.1623092E-001  0.1808538E+03  0.7818608E-02  0.1167269E+00
         21   -1    0    0  501  502  0.00000000000E+00  0.00000000000E+00  0.20028805954E+03  0.20028805954E+03  0.00000000000E+00 0.  1.
         21   -1    0    0  502  503 -0.00000000000E+00 -0.00000000000E+00 -0.19246890736E+03  0.19246890736E+03  0.00000000000E+00 0.  1.
         -6    2    1    2    0  503  0.32401683123E+02  0.41924204058E+02  0.81746844541E+02  0.19737678736E+03  0.17166112444E+03 0.  0.
        -24    2    3    3    0    0 -0.13918709112E+02  0.47406640045E+02 -0.90485404773E+01  0.95192993239E+02  0.80862289686E+02 0.  0.
          6    2    1    2  501    0 -0.32401683123E+02 -0.41924204058E+02 -0.73927692353E+02  0.19538017954E+03  0.17291790799E+03 0.  0.
         24    2    5    5    0    0  0.14113480300E+02 -0.84939719206E+02 -0.51954503652E+02  0.12815737096E+03  0.79442400868E+02 0.  0.
          5    1    5    5  501    0 -0.46515163422E+02  0.43015515148E+02 -0.21973188700E+02  0.67222808579E+02  0.47000000000E+01 0. -1.
        -11    1    6    6    0    0  0.35651276835E+02 -0.78395030441E+01 -0.22377584470E+02  0.42816207617E+02  0.00000000000E+00 0.  1.
         12    1    6    6    0    0 -0.21537796536E+02 -0.77100216162E+02 -0.29576919183E+02  0.85341163340E+02  0.00000000000E+00 0. -1.
         -5    1    3    3    0  503  0.46320392235E+02 -0.54824359870E+01  0.90795385019E+02  0.10218379413E+03  0.47000000000E+01 0.  1.
         11    1    4    4    0    0 -0.68585258415E+01 -0.20264920043E+02 -0.16120453229E+02  0.26787597380E+02  0.00000000000E+00 0. -1.
        -12    1    4    4    0    0 -0.70601832709E+01  0.67671560088E+02  0.70719127520E+01  0.68405395858E+02  0.00000000000E+00 0.  1.
</event>
<event>
12    1  0.1623092E-001  0.2384950E+03  0.7818608E-02  0.1120803E+00
         21   -1    0    0  503  502  0.00000000000E+00  0.00000000000E+00  0.87989406404E+03  0.87989406404E+03  0.00000000000E+00 0.  1.
         21   -1    0    0  501  503 -0.00000000000E+00 -0.00000000000E+00 -0.73628674524E+02  0.73628674524E+02  0.00000000000E+00 0. -1.
          6    2    1    2  501    0  0.15818950234E+03  0.47652443874E+02  0.23655477522E+03  0.33591371509E+03  0.17200345419E+03 0.  0.
         24    2    3    3    0    0  0.37827439691E+02 -0.26773488263E+02  0.12380399188E+03  0.15491350890E+03  0.80765289369E+02 0.  0.
         -6    2    1    2    0  502 -0.15818950234E+03 -0.47652443874E+02  0.56971061430E+03  0.61760902347E+03  0.17197688149E+03 0.  0.
        -24    2    5    5    0    0 -0.15809296433E+03 -0.18493303443E+02  0.31123030918E+03  0.35744672235E+03  0.74622157038E+02 0.  0.
          5    1    3    3  501    0  0.12036206265E+03  0.74425932137E+02  0.11275078334E+03  0.18100020619E+03  0.47000000000E+01 0. -1.
        -11    1    4    4    0    0  0.38478924121E+01  0.20555610611E+02  0.78132650923E+02  0.80882943467E+02  0.00000000000E+00 0.  1.
         12    1    4    4    0    0  0.33979547279E+02 -0.47329098874E+02  0.45671340957E+02  0.74030565433E+02  0.00000000000E+00 0. -1.
         -5    1    5    5    0  502 -0.96538004754E-01 -0.29159140431E+02  0.25848030512E+03  0.26016230112E+03  0.47000000000E+01 0.  1.
         11    1    6    6    0    0 -0.20611622565E+02 -0.25655370456E+02  0.30926926547E+02  0.45160954414E+02  0.00000000000E+00 0. -1.
        -12    1    6    6    0    0 -0.13748134177E+03  0.71620670125E+01  0.28030338263E+03  0.31228576793E+03  0.00000000000E+00 0.  1.
</event>
<event>
12    1  0.1623092E-001  0.2617775E+03  0.7818608E-02  0.1106103E+00
         21   -1    0    0  501  502  0.00000000000E+00  0.00000000000E+00  0.21404192121E+03  0.21404192121E+03  0.00000000000E+00 0. -1.
         21   -1    0    0  502  503 -0.00000000000E+00 -0.00000000000E+00 -0.72861396582E+03  0.72861396582E+03  0.00000000000E+00 0. -1.
         -6    2    1    2    0  503 -0.18811023137E+03 -0.59881065761E+02 -0.61023025960E+03  0.66394821239E+03  0.17168301553E+03 0.  0.
        -24    2    3    3    0    0 -0.18067927611E+03 -0.91542396515E+02 -0.57938018681E+03  0.61887631480E+03  0.79381868067E+02 0.  0.
          6    2    1    2  501    0  0.18811023137E+03  0.59881065761E+02  0.95658214994E+02  0.27870767464E+03  0.17191937828E+03 0.  0.
         24    2    5    5    0    0  0.51470215211E+02  0.54719180243E+02  0.86535769407E+02  0.14158565566E+03  0.83154595545E+02 0.  0.
          5    1    5    5  501    0  0.13664001616E+03  0.51618855174E+01  0.91224455864E+01  0.13712201899E+03  0.47000000000E+01 0. -1.
        -13    1    6    6    0    0  0.21663418957E+02  0.16768282715E+02 -0.13483669945E+02  0.30533397801E+02  0.00000000000E+00 0.  1.
         14    1    6    6    0    0  0.29806796254E+02  0.37950897529E+02  0.10001943935E+03  0.11105225785E+03  0.00000000000E+00 0. -1.
         -5    1    3    3    0  503 -0.74309552645E+01  0.31661330755E+02 -0.30850072796E+02  0.45071897595E+02  0.47000000000E+01 0.  1.
         13    1    4    4    0    0  0.54753329081E+01  0.47852202110E+01 -0.30040694066E+02  0.30908265932E+02  0.00000000000E+00 0. -1.
        -14    1    4    4    0    0 -0.18615460901E+03 -0.96327616726E+02 -0.54933949274E+03  0.58796804887E+03  0.00000000000E+00 0.  1.
</event>
<event>
12    1  0.1623092E-001  0.2045544E+03  0.7818608E-02  0.1149128E+00
         21   -1    0    0  501  502  0.00000000000E+00  0.00000000000E+00  0.97201288717E+02  0.97201288717E+02  0.00000000000E+00 0. -1.
         21   -1    0    0  502  503 -0.00000000000E+00 -0.00000000000E+00 -0.42233960589E+03  0.42233960589E+03  0.00000000000E+00 0. -1.
         -6    2    1    2    0  503 -0.57773679469E+02  0.56510793564E+02 -0.21684502954E+03  0.28808910131E+03  0.17158757424E+03 0.  0.
        -24    2    3    3    0    0  0.82945109673E+01 -0.25093651809E+02 -0.85885205424E+02  0.12016990401E+03  0.79787511837E+02 0.  0.
          6    2    1    2  501    0  0.57773679469E+02 -0.56510793564E+02 -0.10829328764E+03  0.23145179329E+03  0.18791282192E+03 0.  0.
         24    2    5    5    0    0  0.28926630104E+02 -0.36560919260E+02 -0.15033925593E+03  0.17649632777E+03  0.79847423847E+02 0.  0.
          5    1    5    5  501    0  0.28847049366E+02 -0.19949874303E+02  0.42045968292E+02  0.54955465528E+02  0.47000000000E+01 0. -1.
        -11    1    6    6    0    0  0.13847063004E+02 -0.59727932444E+02 -0.79084230288E+02  0.10006739003E+03  0.00000000000E+00 0.  1.
         12    1    6    6    0    0  0.15079567100E+02  0.23167013183E+02 -0.71255025641E+02  0.76428937732E+02  0.00000000000E+00 0. -1.
         -5    1    3    3    0  503 -0.66068190437E+02  0.81604445373E+02 -0.13095982411E+03  0.16791919731E+03  0.47000000000E+01 0.  1.
         11    1    4    4    0    0 -0.25885599663E+02  0.14258553832E+02 -0.18077105414E+02  0.34643215316E+02  0.00000000000E+00 0. -1.
        -12    1    4    4    0    0  0.34180110630E+02 -0.39352205641E+02 -0.67808100010E+02  0.85526688692E+02  0.00000000000E+00 0.  1.
</event>
<event>
12    1  0.1623092E-001  0.2340211E+03  0.7818608E-02  0.1123925E+00
         21   -1    0    0  503  502  0.00000000000E+00  0.00000000000E+00  0.39301825782E+03  0.39301825782E+03  0.00000000000E+00 0.  1.
         21   -1    0    0  501  503 -0.00000000000E+00 -0.00000000000E+00 -0.13946808932E+03  0.13946808932E+03  0.00000000000E+00 0. -1.
          6    2    1    2  501    0 -0.50737091908E+02 -0.15025949457E+03  0.11217028651E+03  0.25907430294E+03  0.17142098198E+03 0.  0.
         24    2    3    3    0    0  0.19590848797E+02 -0.52450964688E+02  0.10483545130E+03  0.13829178115E+03  0.70705302707E+02 0.  0.
         -6    2    1    2    0  502  0.50737091908E+02  0.15025949457E+03  0.14137988198E+03  0.27341204421E+03  0.17208633497E+03 0.  0.
        -24    2    5    5    0    0  0.94131955024E-01  0.10515838550E+02  0.74399527127E+02  0.11031251408E+03  0.80764902059E+02 0.  0.
          5    1    3    3  501    0 -0.70327940705E+02 -0.97808529883E+02  0.73348352138E+01  0.12078252179E+03  0.47000000000E+01 0. -1.
        -11    1    4    4    0    0  0.31156973810E+02 -0.10176045534E+01  0.16119829293E+02  0.35094749357E+02  0.00000000000E+00 0.  1.
         12    1    4    4    0    0 -0.11566125013E+02 -0.51433360135E+02  0.88715622007E+02  0.10319703179E+03  0.00000000000E+00 0. -1.
         -5    1    5    5    0  502  0.50642959953E+02  0.13974365602E+03  0.66980354858E+02  0.16309953013E+03  0.47000000000E+01 0.  1.
         13    1    6    6    0    0 -0.13155915448E+02  0.11543457628E+02  0.88921325838E+02  0.90627433562E+02  0.00000000000E+00 0. -1.
        -14    1    6    6    0    0  0.13250047403E+02 -0.10276190772E+01 -0.14521798711E+02  0.19685080517E+02  0.00000000000E+00 0.  1.
</event>
<event>
12    1  0.1623092E-001  0.2245943E+03  0.7818608E-02  0.1130624E+00
         21   -1    0    0  501  502  0.00000000000E+00  0.00000000000E+00  0.96616377662E+02  0.96616377662E+02  0.00000000000E+00 0. -1.
         21   -1    0    0  502  503 -0.00000000000E+00 -0.00000000000E+00 -0.59652806826E+03  0.59652806826E+03  0.00000000000E+00 0. -1.
         -6    2    1    2    0  503 -0.10306543155E+03  0.10134142577E+03 -0.12595211850E+03  0.25692392652E+03  0.17103625376E+03 0.  0.
        -24    2    3    3    0    0 -0.41927566513E+02  0.22675083661E+02  0.51752592815E+01  0.92173475446E+02  0.78721572739E+02 0.  0.
          6    2    1    2  501    0  0.10306543155E+03 -0.10134142577E+03 -0.37395957209E+03  0.43622051941E+03  0.17190116995E+03 0.  0.
         24    2    5    5    0    0  0.39441242983E+02  0.11010278396E+02 -0.19212127273E+03  0.21315505835E+03  0.82750574537E+02 0.  0.
          5    1    5    5  501    0  0.63624188571E+02 -0.11235170417E+03 -0.18183829936E+03  0.22306546105E+03  0.47000000000E+01 0. -1.
        -11    1    6    6    0    0  0.45031861409E+02  0.40772689528E+02 -0.11050339208E+03  0.12610027920E+03  0.00000000000E+00 0.  1.
         12    1    6    6    0    0 -0.55906184264E+01 -0.29762411132E+02 -0.81617880659E+02  0.87054779156E+02  0.00000000000E+00 0. -1.
         -5    1    3    3    0  503 -0.61137865042E+02  0.78666342111E+02 -0.13112737779E+03  0.16475045107E+03  0.47000000000E+01 0.  1.
         11    1    4    4    0    0  0.20777627655E+02  0.17612242491E+02 -0.69403738423E+01  0.28108178269E+02  0.00000000000E+00 0. -1.
        -12    1    4    4    0    0 -0.62705194168E+02  0.50628411693E+01  0.12115633124E+02  0.64065297177E+02  0.00000000000E+00 0.  1.
</event>
<event>
12    1  0.1623092E-001  0.2156814E+03  0.7818608E-02  0.1137322E+00
         21   -1    0    0  501  502  0.00000000000E+00  0.00000000000E+00  0.61297496445E+03  0.61297496445E+03  0.00000000000E+00 0.  1.
         21   -1    0    0  502  503 -0.00000000000E+00 -0.00000000000E+00 -0.75326064990E+03  0.75326064990E+03  0.00000000000E+00 0.  1.
         -6    2    1    2    0  503  0.12197831687E+03 -0.42612617890E+02 -0.71807637186E+03  0.74950184216E+03  0.17153655757E+03 0.  0.
        -24    2    3    3    0    0  0.38627855504E+02 -0.24408264283E+02 -0.15275180927E+03  0.17775657635E+03  0.78590143246E+02 0.  0.
          6    2    1    2  501    0 -0.12197831687E+03  0.42612617890E+02  0.57779068641E+03  0.61673377220E+03  0.17269604361E+03 0.  0.
         24    2    5    5    0    0 -0.11111276495E+03  0.64223569559E+02  0.57196510173E+03  0.59141340713E+03  0.78453980864E+02 0.  0.
          5    1    5    5  501    0 -0.10865551923E+02 -0.21610951669E+02  0.58255846852E+01  0.25320365075E+02  0.47000000000E+01 0. -1.
        -13    1    6    6    0    0 -0.40848259268E+02 -0.52120067692E+01  0.84013786438E+02  0.93563142377E+02  0.00000000000E+00 0.  1.
         14    1    6    6    0    0 -0.70264505680E+02  0.69435576328E+02  0.48795131529E+03  0.49785026475E+03  0.00000000000E+00 0. -1.
         -5    1    3    3    0  503  0.83350461367E+02 -0.18204353607E+02 -0.56532456259E+03  0.57174526581E+03  0.47000000000E+01 0.  1.
         13    1    4    4    0    0 -0.17809324231E+02  0.13960286327E+02 -0.40197445218E+02  0.46129125571E+02  0.00000000000E+00 0. -1.
        -14    1    4    4    0    0  0.56437179735E+02 -0.38368550610E+02 -0.11255436405E+03  0.13162745078E+03  0.00000000000E+00 0.  1.
</event>
<event>
12    1  0.1623092E-001  0.1897994E+03  0.7818608E-02  0.1160355E+00
         21   -1    0    0  503  502  0.00000000000E+00  0.00000000000E+00  0.99997558227E+03  0.99997558227E+03  0.00000000000E+00 0. -1.
         21   -1    0    0  501  503 -0.00000000000E+00 -0.00000000000E+00 -0.26288882422E+03  0.26288882422E+03  0.00000000000E+00 0. -1.
          6    2    1    2  501    0  0.24394458654E+02  0.75327229706E+02 -0.22078627029E+03  0.28636834741E+03  0.16428929394E+03 0.  0.
         24    2    3    3    0    0 -0.19251246499E+02  0.86678375326E+02 -0.14051361075E+03  0.19417514834E+03  0.10038008859E+03 0.  0.
         -6    2    1    2    0  502 -0.24394458654E+02 -0.75327229706E+02  0.95787302834E+03  0.97649605908E+03  0.17249502552E+03 0.  0.
        -24    2    5    5    0    0 -0.63174476612E+02 -0.15861770891E+02  0.42326970496E+03  0.43717905216E+03  0.87895791931E+02 0.  0.
          5    1    3    3  501    0  0.43645705153E+02 -0.11351145620E+02 -0.80272659541E+02  0.92193199071E+02  0.47000000000E+01 0. -1.
        -11    1    4    4    0    0  0.39083054750E+02  0.52343647425E+02 -0.57184606272E+02  0.86818326342E+02  0.00000000000E+00 0.  1.
         12    1    4    4    0    0 -0.58334301249E+02  0.34334727901E+02 -0.83329004474E+02  0.10735682200E+03  0.00000000000E+00 0. -1.
         -5    1    5    5    0  502  0.38780017958E+02 -0.59465458815E+02  0.53460332338E+03  0.53931700692E+03  0.47000000000E+01 0.  1.
         13    1    6    6    0    0  0.17538387405E+02 -0.47671612667E+01  0.17368821998E+03  0.17463653289E+03  0.00000000000E+00 0. -1.
        -14    1    6    6    0    0 -0.80712864017E+02 -0.11094609625E+02  0.24958148498E+03  0.26254251927E+03  0.00000000000E+00 0.  1.
</event>
<event>
12    1  0.1623092E-001  0.2522176E+03  0.7818608E-02  0.1111990E+00
         21   -1    0    0  503  502  0.00000000000E+00  0.00000000000E+00  0.20715348432E+04  0.20715348432E+04  0.00000000000E+00 0.  1.
         21   -1    0    0  501  503 -0.00000000000E+00 -0.00000000000E+00 -0.33476421190E+02  0.33476421190E+02  0.00000000000E+00 0. -1.
          6    2    1    2  501    0 -0.17136826144E+03 -0.63462561983E+02  0.71214818700E+03  0.75532549908E+03  0.17310976723E+03 0.  0.
         24    2    3    3    0    0 -0.78805842504E+02  0.16767156510E+02  0.47610177247E+03  0.48934691171E+03  0.79347362263E+02 0.  0.
         -6    2    1    2    0  502  0.17136826144E+03  0.63462561983E+02  0.13259102351E+04  0.13496857654E+04  0.17383652084E+03 0.  0.
        -24    2    5    5    0    0  0.11778683928E+03  0.89611629335E+02  0.66024422155E+03  0.68133849480E+03  0.79973300452E+02 0.  0.
          5    1    3    3  501    0 -0.92562418933E+02 -0.80229718493E+02  0.23604641453E+03  0.26597858737E+03  0.47000000000E+01 0. -1.
        -11    1    4    4    0    0 -0.19158205121E+02 -0.30591294703E+02  0.12674066211E+03  0.13178034591E+03  0.00000000000E+00 0.  1.
         12    1    4    4    0    0 -0.59647637383E+02  0.47358451213E+02  0.34936111036E+03  0.35756656580E+03  0.00000000000E+00 0. -1.
         -5    1    5    5    0  502  0.53581422152E+02 -0.26149067352E+02  0.66566601351E+03  0.66834727056E+03  0.47000000000E+01 0.  1.
         13    1    6    6    0    0  0.22123701131E+02  0.63041094627E+02  0.32022735129E+03  0.32712259824E+03  0.00000000000E+00 0. -1.
        -14    1    6    6    0    0  0.95663138153E+02  0.26570534708E+02  0.34001687026E+03  0.35421589657E+03  0.00000000000E+00 0.  1.
</event>
<event>
12    1  0.1623092E-001  0.2548842E+03  0.7818608E-02  0.1110319E+00
         21   -1    0    0  503  502  0.00000000000E+00  0.00000000000E+00  0.24114850290E+03  0.24114850290E+03  0.00000000000E+00 0. -1.
         21   -1    0    0  501  503 -0.00000000000E+00 -0.00000000000E+00 -0.29238684096E+03  0.29238684096E+03  0.00000000000E+00 0. -1.
          6    2    1    2  501    0  0.18047496532E+03 -0.53008494989E+02  0.49849463872E+02  0.25971318930E+03  0.17200249417E+03 0.  0.
         24    2    3    3    0    0  0.11402159375E+03 -0.46351881640E+02 -0.38050396234E+02  0.14921958540E+03  0.75294297546E+02 0.  0.
         -6    2    1    2    0  502 -0.18047496532E+03  0.53008494989E+02 -0.10108780193E+03  0.27382215457E+03  0.17140220240E+03 0.  0.
        -24    2    5    5    0    0 -0.20158084528E+03  0.39783932384E+02 -0.63962450060E+02  0.22886963543E+03  0.77926353355E+02 0.  0.
          5    1    3    3  501    0  0.66453371570E+02 -0.66566133486E+01  0.87899860106E+02  0.11049360389E+03  0.47000000000E+01 0. -1.
        -13    1    4    4    0    0  0.50183984871E+02 -0.55852159609E+02 -0.39129259883E+02  0.84669918209E+02  0.00000000000E+00 0.  1.
         14    1    4    4    0    0  0.63837608875E+02  0.95002779685E+01  0.10788636492E+01  0.64549667196E+02  0.00000000000E+00 0. -1.
         -5    1    5    5    0  502  0.21105879962E+02  0.13224562605E+02 -0.37125351873E+02  0.44952519137E+02  0.47000000000E+01 0.  1.
         13    1    6    6    0    0 -0.17725603758E+03  0.25729048223E+02 -0.80388845686E+02  0.19632639479E+03  0.00000000000E+00 0. -1.
        -14    1    6    6    0    0 -0.24324807699E+02  0.14054884160E+02  0.16426395626E+02  0.32543240644E+02  0.00000000000E+00 0.  1.
</event>
<event>
12    1  0.1623092E-001  0.2803527E+03  0.7818608E-02  0.1095547E+00
         21   -1    0    0  501  502  0.00000000000E+00  0.00000000000E+00  0.62860727087E+03  0.62860727087E+03  0.00000000000E+00 0.  1.
         21   -1    0    0  502  503 -0.00000000000E+00 -0.00000000000E+00 -0.31173202355E+03  0.31173202355E+03  0.00000000000E+00 0. -1.
         -6    2    1    2    0  503  0.15414142326E+03  0.15874460882E+03 -0.20562306946E+03  0.34737883363E+03  0.17155692399E+03 0.  0.
        -24    2    3    3    0    0  0.80653586274E+02  0.15886119624E+03 -0.18776404842E+03  0.27160607857E+03  0.82296071510E+02 0.  0.
          6    2    1    2  501    0 -0.15414142326E+03 -0.15874460882E+03  0.52249831678E+03  0.59296046078E+03  0.17215745065E+03 0.  0.
         24    2    5    5    0    0 -0.16794521284E+03 -0.91686984960E+02  0.35328172059E+03  0.41035811701E+03  0.83508756222E+02 0.  0.
          5    1    5    5  501    0  0.13803789577E+02 -0.67057623857E+02  0.16921659619E+03  0.18260234377E+03  0.47000000000E+01 0. -1.
        -11    1    6    6    0    0 -0.10069738276E+03 -0.98794600812E+02  0.24411521697E+03  0.28194427676E+03  0.00000000000E+00 0.  1.
         12    1    6    6    0    0 -0.67247830082E+02  0.71076158525E+01  0.10916650362E+03  0.12841384025E+03  0.00000000000E+00 0. -1.
         -5    1    3    3    0  503  0.73487836988E+02 -0.11658742561E+00 -0.17859021044E+02  0.75772755067E+02  0.47000000000E+01 0.  1.
         11    1    4    4    0    0  0.11137212417E+02  0.10734790379E+03 -0.12229034714E+03  0.16310284777E+03  0.00000000000E+00 0. -1.
        -12    1    4    4    0    0  0.69516373856E+02  0.51513292453E+02 -0.65473701276E+02  0.10850323079E+03  0.00000000000E+00 0.  1.
</event>
<event>
12    1  0.1623092E-001  0.1772169E+03  0.7818608E-02  0.1170844E+00
         21   -1    0    0  503  502  0.00000000000E+00  0.00000000000E+00  0.45122608960E+03  0.45122608960E+03  0.00000000000E+00 0. -1.
         21   -1    0    0  501  503 -0.00000000000E+00 -0.00000000000E+00 -0.81061303574E+02  0.81061303574E+02  0.00000000000E+00 0.  1.
          6    2    1    2  501    0  0.36652048975E+02 -0.94026198286E+01  0.28676173012E+03  0.33642549555E+03  0.17180815534E+03 0.  0.
         24    2    3    3    0    0  0.54178634694E+02  0.39038351035E+02  0.10883836294E+03  0.15113511951E+03  0.80849970889E+02 0.  0.
         -6    2    1    2    0  502 -0.36652048975E+02  0.94026198286E+01  0.83403055912E+02  0.19586189763E+03  0.17313009921E+03 0.  0.
        -24    2    5    5    0    0 -0.19071667250E+02 -0.33302075956E+01 -0.24853665934E+02  0.85350348274E+02  0.79323126929E+02 0.  0.
          5    1    3    3  501    0 -0.17526585720E+02 -0.48440970863E+02  0.17792336718E+03  0.18529037604E+03  0.47000000000E+01 0. -1.
        -13    1    4    4    0    0  0.57836623662E+02  0.58642735194E+01  0.10149061459E+03  0.11696071815E+03  0.00000000000E+00 0.  1.
         14    1    4    4    0    0 -0.36579889677E+01  0.33174077515E+02  0.73477483470E+01  0.34174401356E+02  0.00000000000E+00 0. -1.
         -5    1    5    5    0  502 -0.17580381724E+02  0.12732827424E+02  0.10825672185E+03  0.11051154935E+03  0.47000000000E+01 0.  1.
         13    1    6    6    0    0 -0.24791383171E+02 -0.11784058303E+02  0.23374845592E+02  0.36053572862E+02  0.00000000000E+00 0. -1.
        -14    1    6    6    0    0  0.57197159210E+01  0.84538507076E+01 -0.48228511526E+02  0.49296775412E+02  0.00000000000E+00 0.  1.
</event>
<event>
12    1  0.1623092E-001  0.2061814E+03  0.7818608E-02  0.1145238E+00
         21   -1    0    0  501  502  0.00000000000E+00  0.00000000000E+00  0.27281684327E+03  0.27281684327E+03  0.00000000000E+00 0. -1.
         21   -1    0    0  502  503 -0.00000000000E+00 -0.00000000000E+00 -0.17289439022E+03  0.17289439022E+03  0.00000000000E+00 0.  1.
         -6    2    1    2    0  503 -0.82779116505E+02  0.76160342736E+02 -0.24226717109E+02  0.20759982191E+03  0.17279459569E+03 0.  0.
        -24    2    3    3    0    0 -0.87125160779E+02  0.50307090443E+00  0.18009567659E+02  0.12071538928E+03  0.81589300535E+02 0.  0.
          6    2    1    2  501    0  0.82779116505E+02 -0.76160342736E+02  0.12414917016E+03  0.23811141158E+03  0.16920770650E+03 0.  0.
         24    2    5    5    0    0  0.12187896566E+03 -0.72650061134E+02  0.10843217604E+03  0.19556456463E+03  0.79721066750E+02 0.  0.
          5    1    5    5  501    0 -0.39099849159E+02 -0.35102816024E+01  0.15716994119E+02  0.42546846949E+02  0.47000000000E+01 0. -1.
        -13    1    6    6    0    0  0.72695240457E+02 -0.36273105103E+01  0.25875973373E+02  0.77248439238E+02  0.00000000000E+00 0.  1.
         14    1    6    6    0    0  0.49183725207E+02 -0.69022750624E+02  0.82556202667E+02  0.11831612539E+03  0.00000000000E+00 0. -1.
         -5    1    3    3    0  503  0.43460442744E+01  0.75657271832E+02 -0.42236284768E+02  0.86884432627E+02  0.47000000000E+01 0.  1.
         11    1    4    4    0    0 -0.82503841499E+02  0.30490273889E+02  0.20359996631E+02  0.90283277116E+02  0.00000000000E+00 0. -1.
        -12    1    4    4    0    0 -0.46213192804E+01 -0.29987202985E+02 -0.23504289711E+01  0.30432112169E+02  0.00000000000E+00 0.  1.
</event>
<event>
12    1  0.1623092E-001  0.1763812E+03  0.7818608E-02  0.1171618E+00
         21   -1    0    0  501  502  0.00000000000E+00  0.00000000000E+00  0.10801272199E+04  0.10801272199E+04  0.00000000000E+00 0. -1.
         21   -1    0    0  502  503 -0.00000000000E+00 -0.00000000000E+00 -0.41610981159E+02  0.41610981159E+02  0.00000000000E+00 0. -1.
         -6    2    1    2    0  503 -0.24186387711E+02 -0.19685132253E+02  0.20489328141E+03  0.26965983095E+03  0.17251864211E+03 0.  0.
        -24    2    3    3    0    0 -0.37684299256E+02  0.26850133765E+02  0.46698322926E+02  0.10414409305E+03  0.80772660351E+02 0.  0.
          6    2    1    2  501    0  0.24186387711E+02  0.19685132253E+02  0.83362295730E+03  0.85207837008E+03  0.17360250012E+03 0.  0.
         24    2    5    5    0    0 -0.34028831806E+02 -0.23485199580E+02  0.63035452031E+03  0.63622463069E+03  0.75666659968E+02 0.  0.
          5    1    5    5  501    0  0.58215219516E+02  0.43170331833E+02  0.20326843699E+03  0.21585373940E+03  0.47000000000E+01 0. -1.
        -11    1    6    6    0    0 -0.51491705539E+01 -0.12312886404E+02  0.14946010916E+02  0.20037573987E+02  0.00000000000E+00 0.  1.
         12    1    6    6    0    0 -0.28879661252E+02 -0.11172313175E+02  0.61540850939E+03  0.61618705670E+03  0.00000000000E+00 0. -1.
         -5    1    3    3    0  503  0.13497911546E+02 -0.46535266018E+02  0.15819495849E+03  0.16551573789E+03  0.47000000000E+01 0.  1.
         13    1    4    4    0    0  0.20908588079E+02  0.25574660585E+02  0.82412290251E+01  0.34046294590E+02  0.00000000000E+00 0. -1.
        -14    1    4    4    0    0 -0.58592887335E+02  0.12754731805E+01  0.38457093901E+02  0.70097798463E+02  0.00000000000E+00 0.  1.
</event>
<event>
12    1  0.1623092E-001  0.2007901E+03  0.7818608E-02  0.1149171E+00
         21   -1    0    0  501  502  0.00000000000E+00  0.00000000000E+00  0.19322360669E+03  0.19322360669E+03  0.00000000000E+00 0.  1.
         21   -1    0    0  502  503 -0.00000000000E+00 -0.00000000000E+00 -0.20817974789E+03  0.20817974789E+03  0.00000000000E+00 0.  1.
         -6    2    1    2    0  503  0.10402439700E+03  0.11437451958E+02 -0.64056118184E+01  0.20043131451E+03  0.17082092815E+03 0.  0.
        -24    2    3    3    0    0  0.70722169917E+02  0.53272107544E+02  0.43218544709E+02  0.12732985319E+03  0.80656717920E+02 0.  0.
          6    2    1    2  501    0 -0.10402439700E+03 -0.11437451958E+02 -0.85505293811E+01  0.20097204008E+03  0.17136148593E+03 0.  0.
         24    2    5    5    0    0  0.16008432755E+02  0.14151298661E+02 -0.98191615411E+01  0.78145480225E+02  0.74523626946E+02 0.  0.
          5    1    5    5  501    0 -0.12003282976E+03 -0.25588750619E+02  0.12686321599E+01  0.12282655985E+03  0.47000000000E+01 0. -1.
        -13    1    6    6    0    0 -0.27944809258E+02  0.92396375918E+01  0.79422323735E+01  0.30485444434E+02  0.00000000000E+00 0.  1.
         14    1    6    6    0    0  0.43953242012E+02  0.49116610691E+01 -0.17761393915E+02  0.47660035791E+02  0.00000000000E+00 0. -1.
         -5    1    3    3    0  503  0.33302227085E+02 -0.41834655585E+02 -0.49624156527E+02  0.73101461325E+02  0.47000000000E+01 0.  1.
         13    1    4    4    0    0  0.12637413832E+02  0.39142643826E+02  0.52649566205E+02  0.66811882294E+02  0.00000000000E+00 0. -1.
        -14    1    4    4    0    0  0.58084756085E+02  0.14129463717E+02 -0.94310214964E+01  0.60517970892E+02  0.00000000000E+00 0.  1.
</event>
<event>
12    1  0.1623092E-001  0.1883005E+03  0.7818608E-02  0.1162740E+00
         21   -1    0    0  501  502  0.00000000000E+00  0.00000000000E+00  0.35493653128E+03  0.35493653128E+03  0.00000000000E+00 0.  1.
         21   -1    0    0  502  503 -0.00000000000E+00 -0.00000000000E+00 -0.14179645084E+03  0.14179645084E+03  0.00000000000E+00 0.  1.
         -6    2    1    2    0  503  0.55503146387E+02  0.44139041458E+01 -0.40061244920E+02  0.18118904833E+03  0.16770356610E+03 0.  0.
        -24    2    3    3    0    0  0.31787523330E+01 -0.49507671557E+02 -0.47691048913E+02  0.10552080897E+03  0.79994318360E+02 0.  0.
          6    2    1    2  501    0 -0.55503146387E+02 -0.44139041458E+01  0.25320132536E+03  0.31554393379E+03  0.17988046358E+03 0.  0.
         24    2    5    5    0    0 -0.14270767330E+02 -0.71436183058E+02  0.12995390212E+03  0.16924249057E+03  0.80300814984E+02 0.  0.
          5    1    5    5  501    0 -0.41232379057E+02  0.67022278913E+02  0.12324742324E+03  0.14630144322E+03  0.47000000000E+01 0. -1.
        -11    1    6    6    0    0 -0.43968587264E+02 -0.56443209196E+02  0.10740136813E+03  0.12905086752E+03  0.00000000000E+00 0.  1.
         12    1    6    6    0    0  0.29697819934E+02 -0.14992973862E+02  0.22552533987E+02  0.40191623049E+02  0.00000000000E+00 0. -1.
         -5    1    3    3    0  503  0.52324394054E+02  0.53921575702E+02  0.76298039926E+01  0.75668239363E+02  0.47000000000E+01 0.  1.
         13    1    4    4    0    0  0.89955244426E+01 -0.39872852617E+02  0.13697599531E+02  0.43109025375E+02  0.00000000000E+00 0. -1.
        -14    1    4    4    0    0 -0.58167721096E+01 -0.96348189394E+01 -0.61388648444E+02  0.62411783595E+02  0.00000000000E+00 0.  1.
</event>
<event>
12    1  0.1623092E-001  0.2079677E+03  0.7818608E-02  0.1144505E+00
         21   -1    0    0  501  502  0.00000000000E+00  0.00000000000E+00  0.10672023345E+03  0.10672023345E+03  0.00000000000E+00 0.  1.
         21   -1    0    0  502  503 -0.00000000000E+00 -0.00000000000E+00 -0.46746984260E+03  0.46746984260E+03  0.00000000000E+00 0.  1.
         -6    2    1    2    0  503 -0.26939814164E+02 -0.11602507240E+03 -0.29752787969E+03  0.36300605810E+03  0.17047870253E+03 0.  0.
        -24    2    3    3    0    0 -0.62590482835E+02 -0.10239337465E+03 -0.14114007753E+03  0.20195939398E+03  0.80405868060E+02 0.  0.
          6    2    1    2  501    0  0.26939814164E+02  0.11602507240E+03 -0.63221729459E+02  0.21118401795E+03  0.16252424850E+03 0.  0.
         24    2    5    5    0    0 -0.44096359156E+02  0.51194638329E+02 -0.47074497637E+02  0.11355233151E+03  0.78184037879E+02 0.  0.
          5    1    5    5  501    0  0.71036173320E+02  0.64830434066E+02 -0.16147231822E+02  0.97631686438E+02  0.47000000000E+01 0. -1.
        -13    1    6    6    0    0 -0.14022875518E+02  0.63562601319E+02 -0.12857671428E+02  0.66348813394E+02  0.00000000000E+00 0.  1.
         14    1    6    6    0    0 -0.30073483638E+02 -0.12367962990E+02 -0.34216826210E+02  0.47203518116E+02  0.00000000000E+00 0. -1.
         -5    1    3    3    0  503  0.35650668671E+02 -0.13631697746E+02 -0.15638780216E+03  0.16104666412E+03  0.47000000000E+01 0.  1.
         11    1    4    4    0    0 -0.20260877732E+02 -0.33232069404E+01  0.42865653619E+01  0.20974306030E+02  0.00000000000E+00 0. -1.
        -12    1    4    4    0    0 -0.42329605103E+02 -0.99070167709E+02 -0.14542664289E+03  0.18098508795E+03  0.00000000000E+00 0.  1.
</event>
<event>
12    1  0.1623092E-001  0.1791199E+03  0.7818608E-02  0.1169674E+00
         21   -1    0    0  503  502  0.00000000000E+00  0.00000000000E+00  0.39006171081E+03  0.39006171081E+03  0.00000000000E+00 0. -1.
         21   -1    0    0  501  503 -0.00000000000E+00 -0.00000000000E+00 -0.10782127756E+03  0.10782127756E+03  0.00000000000E+00 0. -1.
          6    2    1    2  501    0  0.16212287157E+02  0.12142005161E+02  0.16743270521E+02  0.17990072742E+03  0.17797097537E+03 0.  0.
         24    2    3    3    0    0  0.46978878649E+02  0.19545772759E+02 -0.56006214885E+02  0.10042760898E+03  0.66029964930E+02 0.  0.
         -6    2    1    2    0  502 -0.16212287157E+02 -0.12142005161E+02  0.26549716272E+03  0.31798226095E+03  0.17382090877E+03 0.  0.
        -24    2    5    5    0    0 -0.57475198734E+02  0.11470700031E+02  0.82778934262E+02  0.12912191909E+03  0.79907087313E+02 0.  0.
          5    1    3    3  501    0 -0.30766591493E+02 -0.74037675987E+01  0.72749485406E+02  0.79473118433E+02  0.47000000000E+01 0. -1.
        -13    1    4    4    0    0  0.42643152803E+02  0.42008451318E+02 -0.45829422500E+02  0.75388887973E+02  0.00000000000E+00 0.  1.
         14    1    4    4    0    0  0.43357258466E+01 -0.22462678559E+02 -0.10176792385E+02  0.25038721012E+02  0.00000000000E+00 0. -1.
         -5    1    5    5    0  502  0.41262911577E+02 -0.23612705192E+02  0.18271822846E+03  0.18886034186E+03  0.47000000000E+01 0.  1.
         13    1    6    6    0    0 -0.38648503889E+02  0.38533878694E+02  0.78886716896E+02  0.95925391647E+02  0.00000000000E+00 0. -1.
        -14    1    6    6    0    0 -0.18826694845E+02 -0.27063178663E+02  0.38922173663E+01  0.33196527441E+02  0.00000000000E+00 0.  1.
</event>
<event>
12    1  0.1623092E-001  0.1855130E+03  0.7818608E-02  0.1163372E+00
         21   -1    0    0  503  502  0.00000000000E+00  0.00000000000E+00  0.16406356664E+03  0.16406356664E+03  0.00000000000E+00 0. -1.
         21   -1    0    0  501  503 -0.00000000000E+00 -0.00000000000E+00 -0.23939675762E+03  0.23939675762E+03  0.00000000000E+00 0. -1.
          6    2    1    2  501    0 -0.55421382159E+02  0.21234181653E+02 -0.11278627187E+03  0.21420438215E+03  0.17216374224E+03 0.  0.
         24    2    3    3    0    0 -0.58740436858E+02 -0.10987778608E+02 -0.36998708976E+01  0.10031318968E+03  0.80485258139E+02 0.  0.
         -6    2    1    2    0  502  0.55421382159E+02 -0.21234181653E+02  0.37453080884E+02  0.18925594211E+03  0.17576307429E+03 0.  0.
        -24    2    5    5    0    0  0.10273255122E+03 -0.20999067382E+02  0.56368303409E+01  0.13204785007E+03  0.80061994351E+02 0.  0.
          5    1    3    3  501    0  0.33190546995E+01  0.32221960260E+02 -0.10908640097E+03  0.11389119248E+03  0.47000000000E+01 0. -1.
        -13    1    4    4    0    0  0.19538398522E+02 -0.33986459153E+01 -0.83768509821E+01  0.21528386916E+02  0.00000000000E+00 0.  1.
         14    1    4    4    0    0 -0.78278835380E+02 -0.75891326923E+01  0.46769800845E+01  0.78784802762E+02  0.00000000000E+00 0. -1.
         -5    1    5    5    0  502 -0.47311169061E+02 -0.23511427042E+00  0.31816250543E+02  0.57208092044E+02  0.47000000000E+01 0.  1.
         11    1    6    6    0    0  0.93351518041E+02 -0.31410328204E+02  0.30840696793E+02  0.10320980194E+03  0.00000000000E+00 0. -1.
        -12    1    6    6    0    0  0.93810331791E+01  0.10411260821E+02 -0.25203866452E+02  0.28838048123E+02  0.00000000000E+00 0.  1.
</event>
<event>
12    1  0.1623092E-001  0.4154223E+03  0.7818608E-02  0.1038670E+00
         21   -1    0    0  501  502  0.00000000000E+00  0.00000000000E+00  0.61672166549E+03  0.61672166549E+03  0.00000000000E+00 0.  1.
         21   -1    0    0  502  503 -0.00000000000E+00 -0.00000000000E+00 -0.35962410266E+03  0.35962410266E+03  0.00000000000E+00 0. -1.
         -6    2    1    2    0  503  0.86698269578E+01  0.37809948377E+03 -0.10276186753E+03  0.42673275955E+03  0.16883856531E+03 0.  0.
        -24    2    3    3    0    0 -0.21826093585E+02  0.54775972309E+02 -0.46723004423E+02  0.97141287563E+02  0.61454089397E+02 0.  0.
          6    2    1    2  501    0 -0.86698269578E+01 -0.37809948377E+03  0.35985943035E+03  0.54961300860E+03  0.17187572278E+03 0.  0.
         24    2    5    5    0    0 -0.69689690939E+02 -0.25211377429E+03  0.20902055312E+03  0.34377258575E+03  0.77922980416E+02 0.  0.
          5    1    5    5  501    0  0.61019863981E+02 -0.12598570948E+03  0.15083887723E+03  0.20584042284E+03  0.47000000000E+01 0. -1.
        -13    1    6    6    0    0 -0.17284134605E+01 -0.15051160619E+03  0.12137893645E+03  0.19336384674E+03  0.00000000000E+00 0.  1.
         14    1    6    6    0    0 -0.67961277479E+02 -0.10160216810E+03  0.87641616668E+02  0.15040873901E+03  0.00000000000E+00 0. -1.
         -5    1    3    3    0  503  0.30495920543E+02  0.32332351146E+03 -0.56038863106E+02  0.32959147199E+03  0.47000000000E+01 0.  1.
         13    1    4    4    0    0 -0.21255359359E+02  0.68175333404E+02 -0.42397627437E+02  0.83049534607E+02  0.00000000000E+00 0. -1.
        -14    1    4    4    0    0 -0.57073422614E+00 -0.13399361095E+02 -0.43253769859E+01  0.14091752956E+02  0.00000000000E+00 0.  1.
</event>
<event>
12    1  0.1623092E-001  0.2311970E+03  0.7818608E-02  0.1127438E+00
         21   -1    0    0  503  502  0.00000000000E+00  0.00000000000E+00  0.27299583705E+03  0.27299583705E+03  0.00000000000E+00 0.  1.
         21   -1    0    0  501  503 -0.00000000000E+00 -0.00000000000E+00 -0.22750926741E+03  0.22750926741E+03  0.00000000000E+00 0. -1.
          6    2    1    2  501    0 -0.13386567956E+03 -0.40313290915E+02 -0.81003128645E+02  0.24497669729E+03  0.18413824636E+03 0.  0.
         24    2    3    3    0    0 -0.21683137457E+02 -0.16742630083E+02  0.23347331026E+02  0.89890891233E+02  0.82369899530E+02 0.  0.
         -6    2    1    2    0  502  0.13386567956E+03  0.40313290915E+02  0.12648969829E+03  0.25552840718E+03  0.17248171356E+03 0.  0.
        -24    2    5    5    0    0  0.44217424978E+02  0.62886773524E+02  0.17929577747E+02  0.11286179777E+03  0.80662188677E+02 0.  0.
          5    1    3    3  501    0 -0.11218254211E+03 -0.23570660832E+02 -0.10435045967E+03  0.15508580605E+03  0.47000000000E+01 0. -1.
        -11    1    4    4    0    0 -0.11268422019E+02  0.32813242070E+02  0.14604604395E+01  0.34724906546E+02  0.00000000000E+00 0.  1.
         12    1    4    4    0    0 -0.10414715438E+02 -0.49555872153E+02  0.21886870586E+02  0.55165984687E+02  0.00000000000E+00 0. -1.
         -5    1    5    5    0  502  0.89648254586E+02 -0.22573482609E+02  0.10856012054E+03  0.14266660940E+03  0.47000000000E+01 0.  1.
         11    1    6    6    0    0  0.24893902193E+02 -0.10882564940E+02 -0.13551780382E+02  0.30360950868E+02  0.00000000000E+00 0. -1.
        -12    1    6    6    0    0  0.19323522785E+02  0.73769338463E+02  0.31481358129E+02  0.82500846903E+02  0.00000000000E+00 0.  1.
</event>
<event>
12    1  0.1623092E-001  0.2449330E+03  0.7818608E-02  0.1116672E+00
         21   -1    0    0  501  502  0.00000000000E+00  0.00000000000E+00  0.32572931968E+03  0.32572931968E+03  0.00000000000E+00 0. -1.
         21   -1    0    0  502  503 -0.00000000000E+00 -0.00000000000E+00 -0.19119168133E+03  0.19119168133E+03  0.00000000000E+00 0. -1.
         -6    2    1    2    0  503  0.15462552817E+02 -0.17308736980E+03  0.15912225420E+02  0.24544931068E+03  0.17260891364E+03 0.  0.
        -24    2    3    3    0    0 -0.56909815822E+02 -0.11987058098E+03  0.11913760256E+02  0.15540563195E+03  0.80008058575E+02 0.  0.
          6    2    1    2  501    0 -0.15462552817E+02  0.17308736980E+03  0.11862541293E+03  0.27147169034E+03  0.17154172069E+03 0.  0.
         24    2    5    5    0    0  0.24331693914E+02  0.41536833290E+02  0.92848661452E+02  0.13155865790E+03  0.79808938639E+02 0.  0.
          5    1    5    5  501    0 -0.39794246732E+02  0.13155053651E+03  0.25776751476E+02  0.13991303244E+03  0.47000000000E+01 0. -1.
        -13    1    6    6    0    0 -0.75105024101E+01 -0.20648653624E+02  0.13289753330E+02  0.25678630931E+02  0.00000000000E+00 0.  1.
         14    1    6    6    0    0  0.31842196325E+02  0.62185486914E+02  0.79558908123E+02  0.10588002697E+03  0.00000000000E+00 0. -1.
         -5    1    3    3    0  503  0.72372368639E+02 -0.53216788819E+02  0.39984651642E+01  0.90043678725E+02  0.47000000000E+01 0.  1.
         13    1    4    4    0    0  0.25621909019E+01 -0.78070496526E+02  0.23997947870E+02  0.81715780312E+02  0.00000000000E+00 0. -1.
        -14    1    4    4    0    0 -0.59472006724E+02 -0.41800084455E+02 -0.12084187614E+02  0.73689851639E+02  0.00000000000E+00 0.  1.
</event>
<event>
12    1  0.1623092E-001  0.1826708E+03  0.7818608E-02  0.1165262E+00
         21   -1    0    0  501  502  0.00000000000E+00  0.00000000000E+00  0.83475855804E+02  0.83475855804E+02  0.00000000000E+00 0. -1.
         21   -1    0    0  502  503 -0.00000000000E+00 -0.00000000000E+00 -0.57730523909E+03  0.57730523909E+03  0.00000000000E+00 0. -1.
         -6    2    1    2    0  503 -0.46624645899E+02 -0.45962655114E+02 -0.43027819636E+03  0.46744832384E+03  0.17053499911E+03 0.  0.
        -24    2    3    3    0    0 -0.83799414012E+02  0.84138592511E+01 -0.24432275483E+03  0.27011539467E+03  0.78584878269E+02 0.  0.
          6    2    1    2  501    0  0.46624645899E+02  0.45962655114E+02 -0.63551186924E+02  0.19333277106E+03  0.17044759821E+03 0.  0.
         24    2    5    5    0    0 -0.39008112069E+02  0.21794979833E+02 -0.50867584053E+01  0.86762488297E+02  0.74197037080E+02 0.  0.
          5    1    5    5  501    0  0.85632757968E+02  0.24167675282E+02 -0.58464428518E+02  0.10657028276E+03  0.47000000000E+01 0. -1.
        -13    1    6    6    0    0  0.30896299930E+00  0.46171222272E+01 -0.34457479395E+02  0.34766811215E+02  0.00000000000E+00 0.  1.
         14    1    6    6    0    0 -0.39317075068E+02  0.17177857605E+02  0.29370720990E+02  0.51995677083E+02  0.00000000000E+00 0. -1.
         -5    1    3    3    0  503  0.37174768113E+02 -0.54376514365E+02 -0.18595544153E+03  0.19733292917E+03  0.47000000000E+01 0.  1.
         11    1    4    4    0    0 -0.88425829473E+02 -0.67581693083E+01 -0.23618939176E+03  0.25228996998E+03  0.00000000000E+00 0. -1.
        -12    1    4    4    0    0  0.46264154606E+01  0.15172028559E+02 -0.81333630696E+01  0.17825424692E+02  0.00000000000E+00 0.  1.
</event>
<event>
12    1  0.1623092E-001  0.2062460E+03  0.7818608E-02  0.1144675E+00
         21   -1    0    0  501  502  0.00000000000E+00  0.00000000000E+00  0.98125595619E+02  0.98125595619E+02  0.00000000000E+00 0. -1.
         21   -1    0    0  502  503 -0.00000000000E+00 -0.00000000000E+00 -0.50710171834E+03  0.50710171834E+03  0.00000000000E+00 0. -1.
         -6    2    1    2    0  503 -0.11338640608E+03 -0.69471361416E+01 -0.88174951650E+02  0.22384716937E+03  0.17154589284E+03 0.  0.
        -24    2    3    3    0    0 -0.72585277428E+02 -0.60069178274E+02 -0.16857860883E+02  0.12589360437E+03  0.81780703537E+02 0.  0.
          6    2    1    2  501    0  0.11338640608E+03  0.69471361416E+01 -0.32080117107E+03  0.38138014459E+03  0.17214146375E+03 0.  0.
         24    2    5    5    0    0  0.79573499849E+01 -0.26261280931E+02 -0.79943634691E+02  0.11632821069E+03  0.79926801384E+02 0.  0.
          5    1    5    5  501    0  0.10542905610E+03  0.33208417072E+02 -0.24085753638E+03  0.26505193390E+03  0.47000000000E+01 0. -1.
        -11    1    6    6    0    0 -0.25110619374E+02 -0.24892315263E+02 -0.74931305733E+02  0.82854517942E+02  0.00000000000E+00 0.  1.
         12    1    6    6    0    0  0.33067969359E+02 -0.13689656676E+01 -0.50123289585E+01  0.33473692747E+02  0.00000000000E+00 0. -1.
         -5    1    3    3    0  503 -0.40801128653E+02  0.53122042133E+02 -0.71317090767E+02  0.97953564995E+02  0.47000000000E+01 0.  1.
         11    1    4    4    0    0 -0.86183858123E+02 -0.62369977846E+02 -0.25784899455E+02  0.10946475496E+03  0.00000000000E+00 0. -1.
        -12    1    4    4    0    0  0.13598580695E+02  0.23007995722E+01  0.89270385722E+01  0.16428849420E+02  0.00000000000E+00 0.  1.
</event>
<event>
12    1  0.1623092E-001  0.1863252E+03  0.7818608E-02  0.1161883E+00
         21   -1    0    0  501  502  0.00000000000E+00  0.00000000000E+00  0.44002863956E+03  0.44002863956E+03  0.00000000000E+00 0. -1.
         21   -1    0    0  502  503 -0.00000000000E+00 -0.00000000000E+00 -0.18180508586E+03  0.18180508586E+03  0.00000000000E+00 0.  1.
         -6    2    1    2    0  503 -0.70470545381E+01 -0.71129503286E+02 -0.10498478412E+03  0.21362129986E+03  0.17176491971E+03 0.  0.
        -24    2    3    3    0    0 -0.48209117741E+02 -0.95137530375E+02 -0.49789509089E+02  0.14055072304E+03  0.76813031520E+02 0.  0.
          6    2    1    2  501    0  0.70470545381E+01  0.71129503286E+02  0.36320833782E+03  0.40821242556E+03  0.17206981287E+03 0.  0.
         24    2    5    5    0    0  0.49708205894E+02  0.72326956966E+02  0.15212424418E+03  0.19280585110E+03  0.79562655276E+02 0.  0.
          5    1    5    5  501    0 -0.42661151356E+02 -0.11974536805E+01  0.21108409364E+03  0.21540657445E+03  0.47000000000E+01 0. -1.
        -11    1    6    6    0    0  0.47197910771E+02  0.33126162290E+01  0.80042288871E+02  0.92980558265E+02  0.00000000000E+00 0.  1.
         12    1    6    6    0    0  0.25102951229E+01  0.69014340737E+02  0.72081955312E+02  0.99825292840E+02  0.00000000000E+00 0. -1.
         -5    1    3    3    0  503  0.41162063203E+02  0.24008027089E+02 -0.55195275034E+02  0.73070576828E+02  0.47000000000E+01 0.  1.
         13    1    4    4    0    0 -0.51267998780E+01 -0.24562886025E+02  0.20206251473E+02  0.32216642367E+02  0.00000000000E+00 0. -1.
        -14    1    4    4    0    0 -0.43082317863E+02 -0.70574644350E+02 -0.69995760562E+02  0.10833408067E+03  0.00000000000E+00 0.  1.
</event>
<event>
12    1  0.1623092E-001  0.2033837E+03  0.7818608E-02  0.1149488E+00
         21   -1    0    0  503  502  0.00000000000E+00  0.00000000000E+00  0.13166278914E+03  0.13166278914E+03  0.00000000000E+00 0.  1.
         21   -1    0    0  501  503 -0.00000000000E+00 -0.00000000000E+00 -0.29826296970E+03  0.29826296970E+03  0.00000000000E+00 0.  1.
          6    2    1    2  501    0 -0.42957011715E+02 -0.71933182566E+02 -0.61304307642E+02  0.20090144856E+03  0.17199850664E+03 0.  0.
         24    2    3    3    0    0 -0.62524087227E+02 -0.44273943824E+02 -0.10032400495E+03  0.14901184738E+03  0.79184475155E+02 0.  0.
         -6    2    1    2    0  502  0.42957011715E+02  0.71933182566E+02 -0.10529587292E+03  0.22902431029E+03  0.18532465092E+03 0.  0.
        -24    2    5    5    0    0 -0.50768933639E+00 -0.33343320413E+02 -0.22690807157E+02  0.88247859108E+02  0.78490618185E+02 0.  0.
          5    1    3    3  501    0  0.19567075512E+02 -0.27659238742E+02  0.39019697309E+02  0.51889601173E+02  0.47000000000E+01 0. -1.
        -13    1    4    4    0    0  0.17391313734E+02 -0.17392687603E+02 -0.13812307080E+02  0.28208920616E+02  0.00000000000E+00 0.  1.
         14    1    4    4    0    0 -0.79915400961E+02 -0.26881256221E+02 -0.86511697871E+02  0.12080292677E+03  0.00000000000E+00 0. -1.
         -5    1    5    5    0  502  0.43464701052E+02  0.10527650298E+03 -0.82605065764E+02  0.14077645118E+03  0.47000000000E+01 0.  1.
         13    1    6    6    0    0  0.38760280988E+02 -0.21172168014E+02 -0.12179144867E+02  0.45814317090E+02  0.00000000000E+00 0. -1.
        -14    1    6    6    0    0 -0.39267970325E+02 -0.12171152399E+02 -0.10511662290E+02  0.42433542019E+02  0.00000000000E+00 0.  1.
</event>
<event>
12    1  0.1623092E-001  0.2484505E+03  0.7818608E-02  0.1114364E+00
         21   -1    0    0  503  502  0.00000000000E+00  0.00000000000E+00  0.32278383705E+03  0.32278383705E+03  0.00000000000E+00 0.  1.
         21   -1    0    0  501  503 -0.00000000000E+00 -0.00000000000E+00 -0.24052594835E+03  0.24052594835E+03  0.00000000000E+00 0. -1.
          6    2    1    2  501    0  0.81386252164E+02 -0.15742183524E+03 -0.86814143233E+02  0.26318119427E+03  0.17413296444E+03 0.  0.
         24    2    3    3    0    0  0.75952515359E+02 -0.79320762376E+02  0.13050657046E+02  0.13619941837E+03  0.79494616050E+02 0.  0.
         -6    2    1    2    0  502 -0.81386252164E+02  0.15742183524E+03  0.16907203194E+03  0.30012859113E+03  0.17345449830E+03 0.  0.
        -24    2    5    5    0    0 -0.94382021727E+02  0.14584603969E+03  0.76726593209E+02  0.20604002050E+03  0.79915496772E+02 0.  0.
          5    1    3    3  501    0  0.54337368050E+01 -0.78101072860E+02 -0.99864800280E+02  0.12698177591E+03  0.47000000000E+01 0. -1.
        -13    1    4    4    0    0  0.38367498288E+00 -0.48824369964E+02  0.23239792803E+02  0.54074525226E+02  0.00000000000E+00 0.  1.
         14    1    4    4    0    0  0.75568840376E+02 -0.30496392412E+02 -0.10189135757E+02  0.82124893141E+02  0.00000000000E+00 0. -1.
         -5    1    5    5    0  502  0.12995769563E+02  0.11575795543E+02  0.92345438727E+02  0.94088570627E+02  0.47000000000E+01 0.  1.
         13    1    6    6    0    0 -0.17124708485E+02  0.36337240290E+01 -0.12235845361E+02  0.21358265443E+02  0.00000000000E+00 0. -1.
        -14    1    6    6    0    0 -0.77257313242E+02  0.14221231566E+03  0.88962438570E+02  0.18468175506E+03  0.00000000000E+00 0.  1.
</event>
<event>
12    1  0.1623092E-001  0.2179765E+03  0.7818608E-02  0.1135647E+00
         21   -1    0    0  501  502  0.00000000000E+00  0.00000000000E+00  0.40706813909E+03  0.40706813909E+03  0.00000000000E+00 0.  1.
         21   -1    0    0  502  503 -0.00000000000E+00 -0.00000000000E+00 -0.14595747839E+03  0.14595747839E+03  0.00000000000E+00 0. -1.
         -6    2    1    2    0  503  0.12837191863E+03  0.22166508861E+02  0.50262789505E+01  0.21673262468E+03  0.17313885616E+03 0.  0.
        -24    2    3    3    0    0  0.10436701092E+03 -0.48183917799E+02  0.17870162735E+02  0.14115171786E+03  0.79939363493E+02 0.  0.
          6    2    1    2  501    0 -0.12837191863E+03 -0.22166508861E+02  0.25608438175E+03  0.33629299279E+03  0.17476573697E+03 0.  0.
         24    2    5    5    0    0 -0.52511420233E+02  0.55412902357E+02  0.12329163349E+03  0.16474304598E+03  0.78175477659E+02 0.  0.
          5    1    5    5  501    0 -0.75860498399E+02 -0.77579411218E+02  0.13279274826E+03  0.17154994682E+03  0.47000000000E+01 0. -1.
        -11    1    6    6    0    0 -0.18782481344E+01  0.50311620212E+02  0.92358439231E+02  0.10518967745E+03  0.00000000000E+00 0.  1.
         12    1    6    6    0    0 -0.50633172099E+02  0.51012821449E+01  0.30933194258E+02  0.59553368530E+02  0.00000000000E+00 0. -1.
         -5    1    3    3    0  503  0.24004907717E+02  0.70350426660E+02 -0.12843883784E+02  0.75580906825E+02  0.47000000000E+01 0.  1.
         13    1    4    4    0    0  0.10693568024E+03 -0.51208896763E+02  0.34956590226E+02  0.12361049315E+03  0.00000000000E+00 0. -1.
        -14    1    4    4    0    0 -0.25686693256E+01  0.30249789637E+01 -0.17086427491E+02  0.17541224707E+02  0.00000000000E+00 0.  1.
</event>
<event>
12    1  0.1623092E-001  0.1975539E+03  0.7818608E-02  0.1152718E+00
         21   -1    0    0  503  502  0.00000000000E+00  0.00000000000E+00  0.96596512780E+03  0.96596512780E+03  0.00000000000E+00 0.  1.
         21   -1    0    0  501  503 -0.00000000000E+00 -0.00000000000E+00 -0.40256526129E+02  0.40256526129E+02  0.00000000000E+00 0.  1.
          6    2    1    2  501    0  0.84500274787E+02 -0.22102284062E+02  0.39181281816E+03  0.43694822289E+03  0.17256203989E+03 0.  0.
         24    2    3    3    0    0  0.92348615495E+02  0.26442246058E+02  0.26294676631E+03  0.29893837840E+03  0.10486035002E+03 0.  0.
         -6    2    1    2    0  502 -0.84500274787E+02  0.22102284062E+02  0.53389578351E+03  0.56927343104E+03  0.17719685167E+03 0.  0.
        -24    2    5    5    0    0 -0.78553849403E+02  0.80278275751E+02  0.36137302172E+03  0.38704829743E+03  0.81244168428E+02 0.  0.
          5    1    3    3  501    0 -0.78483407078E+01 -0.48544530121E+02  0.12886605184E+03  0.13800984448E+03  0.47000000000E+01 0. -1.
        -11    1    4    4    0    0 -0.63989287626E+01  0.63745732552E+00  0.13553692200E+03  0.13568938745E+03  0.00000000000E+00 0.  1.
         12    1    4    4    0    0  0.98747544258E+02  0.25804788733E+02  0.12740984431E+03  0.16324899095E+03  0.00000000000E+00 0. -1.
         -5    1    5    5    0  502 -0.59464253846E+01 -0.58175991689E+02  0.17252276179E+03  0.18222513361E+03  0.47000000000E+01 0.  1.
         11    1    6    6    0    0 -0.52200111233E+02  0.17004846936E+02  0.25247474207E+03  0.25837475073E+03  0.00000000000E+00 0. -1.
        -12    1    6    6    0    0 -0.26353738170E+02  0.63273428815E+02  0.10889827965E+03  0.12867354670E+03  0.00000000000E+00 0.  1.
</event>
<event>
12    1  0.1623092E-001  0.2904456E+03  0.7818608E-02  0.1090146E+00
         21   -1    0    0  503  502  0.00000000000E+00  0.00000000000E+00  0.94871401775E+03  0.94871401775E+03  0.00000000000E+00 0.  1.
         21   -1    0    0  501  503 -0.00000000000E+00 -0.00000000000E+00 -0.14529815880E+03  0.14529815880E+03  0.00000000000E+00 0. -1.
          6    2    1    2  501    0  0.13884912758E+03 -0.18796796167E+03  0.60857012545E+02  0.29675283523E+03  0.17247502544E+03 0.  0.
         24    2    3    3    0    0  0.13753115542E+03 -0.85111926440E+02  0.85523123394E+01  0.18125836481E+03  0.81379321911E+02 0.  0.
         -6    2    1    2    0  502 -0.13884912758E+03  0.18796796167E+03  0.74255884641E+03  0.79725934132E+03  0.17209817577E+03 0.  0.
        -24    2    5    5    0    0 -0.14193677542E+02  0.30831141250E+02  0.17086934514E+03  0.19138646900E+03  0.79249149238E+02 0.  0.
          5    1    3    3  501    0  0.13179721554E+01 -0.10285603523E+03  0.52304700205E+02  0.11549447042E+03  0.47000000000E+01 0. -1.
        -13    1    4    4    0    0  0.33638950260E+02  0.13825507290E+02  0.10240328791E+02  0.37783434997E+02  0.00000000000E+00 0.  1.
         14    1    4    4    0    0  0.10389220516E+03 -0.98937433730E+02 -0.16880164518E+01  0.14347492982E+03  0.00000000000E+00 0. -1.
         -5    1    5    5    0  502 -0.12465545004E+03  0.15713682042E+03  0.57168950127E+03  0.60587287232E+03  0.47000000000E+01 0.  1.
         13    1    6    6    0    0 -0.12796080170E+02  0.18899564534E+02  0.17660539706E+03  0.17807414040E+03  0.00000000000E+00 0. -1.
        -14    1    6    6    0    0 -0.13975973716E+01  0.11931576716E+02 -0.57360519171E+01  0.13312328606E+02  0.00000000000E+00 0.  1.
</event>
<event>
12    1  0.1623092E-001  0.1781602E+03  0.7818608E-02  0.1171556E+00
         21   -1    0    0  503  502  0.00000000000E+00  0.00000000000E+00  0.64705813836E+02  0.64705813836E+02  0.00000000000E+00 0. -1.
         21   -1    0    0  501  503 -0.00000000000E+00 -0.00000000000E+00 -0.51976485335E+03  0.51976485335E+03  0.00000000000E+00 0. -1.
          6    2    1    2  501    0 -0.14792653051E+01 -0.46183186015E+02 -0.32318225915E+03  0.36903635099E+03  0.17206388589E+03 0.  0.
         24    2    3    3    0    0 -0.19306090538E+02 -0.71068357885E+02 -0.11680810518E+03  0.16035130384E+03  0.81516688990E+02 0.  0.
         -6    2    1    2    0  502  0.14792653051E+01  0.46183186015E+02 -0.13187678037E+03  0.21543431620E+03  0.16396763247E+03 0.  0.
        -24    2    5    5    0    0  0.33067333421E+02  0.74615712719E+02 -0.52958096121E+02  0.12567651238E+03  0.79555469305E+02 0.  0.
          5    1    3    3  501    0  0.17826825233E+02  0.24885171870E+02 -0.20637415397E+03  0.20868504715E+03  0.47000000000E+01 0. -1.
        -13    1    4    4    0    0 -0.26754048498E+02  0.87049987626E+01 -0.19153321849E+02  0.34035361792E+02  0.00000000000E+00 0.  1.
         14    1    4    4    0    0  0.74479579598E+01 -0.79773356648E+02 -0.97654783328E+02  0.12631594205E+03  0.00000000000E+00 0. -1.
         -5    1    5    5    0  502 -0.31588068116E+02 -0.28432526704E+02 -0.78918684247E+02  0.89757803813E+02  0.47000000000E+01 0.  1.
         13    1    6    6    0    0 -0.18196420134E+02  0.23202242857E+02  0.83545954721E+01  0.30647235516E+02  0.00000000000E+00 0. -1.
        -14    1    6    6    0    0  0.51263753555E+02  0.51413469862E+02 -0.61312691593E+02  0.95029276868E+02  0.00000000000E+00 0.  1.
</event>
<event>
12    1  0.1623092E-001  0.1749273E+03  0.7818608E-02  0.1173074E+00
         21   -1    0    0  501  502  0.00000000000E+00  0.00000000000E+00  0.30899234934E+03  0.30899234934E+03  0.00000000000E+00 0.  1.
         21   -1    0    0  502  503 -0.00000000000E+00 -0.00000000000E+00 -0.25071128272E+03  0.25071128272E+03  0.00000000000E+00 0.  1.
         -6    2    1    2    0  503 -0.30948272634E+02  0.39236666986E+01 -0.18900188024E+03  0.25680363633E+03  0.17103568680E+03 0.  0.
        -24    2    3    3    0    0 -0.65360680192E+02  0.45634377626E+02 -0.90794429454E+02  0.14459494420E+03  0.79432704418E+02 0.  0.
          6    2    1    2  501    0  0.30948272634E+02 -0.39236666986E+01  0.24728294686E+03  0.30289999573E+03  0.17212309800E+03 0.  0.
         24    2    5    5    0    0  0.58957550568E+02  0.45838697444E+02  0.20113039021E+03  0.22932716772E+03  0.80995907536E+02 0.  0.
          5    1    5    5  501    0 -0.28009277935E+02 -0.49762364143E+02  0.46152556649E+02  0.73572828006E+02  0.47000000000E+01 0. -1.
        -13    1    6    6    0    0  0.36429596463E+02 -0.19229466626E+02  0.70173003416E+02  0.81370377248E+02  0.00000000000E+00 0.  1.
         14    1    6    6    0    0  0.22527954105E+02  0.65068164070E+02  0.13095738679E+03  0.14795679047E+03  0.00000000000E+00 0. -1.
         -5    1    3    3    0  503  0.34412407559E+02 -0.41710710928E+02 -0.98207450791E+02  0.11220869214E+03  0.47000000000E+01 0.  1.
         11    1    4    4    0    0 -0.13816048742E+02  0.55886714095E+02 -0.32505722282E+02  0.66112252996E+02  0.00000000000E+00 0. -1.
        -12    1    4    4    0    0 -0.51544631450E+02 -0.10252336469E+02 -0.58288707172E+02  0.78482691201E+02  0.00000000000E+00 0.  1.
</event>
<event>
12    1  0.1623092E-001  0.2186386E+03  0.7818608E-02  0.1135464E+00
         21   -1    0    0  501  502  0.00000000000E+00  0.00000000000E+00  0.30796529660E+04  0.30796529660E+04  0.00000000000E+00 0. -1.
         21   -1    0    0  502  503 -0.00000000000E+00 -0.00000000000E+00 -0.15342562734E+02  0.15342562734E+02  0.00000000000E+00 0. -1.
         -6    2    1    2    0  503 -0.37206914503E+02 -0.12562116689E+03  0.15906179222E+04  0.16051725994E+04  0.17131452757E+03 0.  0.
        -24    2    3    3    0    0  0.19039148269E+02 -0.12447759926E+03  0.13452508817E+04  0.13533949159E+04  0.78234914667E+02 0.  0.
          6    2    1    2  501    0  0.37206914503E+02  0.12562116689E+03  0.14736924811E+04  0.14898229294E+04  0.17503656759E+03 0.  0.
         24    2    5    5    0    0 -0.73371665867E+01  0.87232220017E+02  0.13288259941E+04  0.13334059372E+04  0.67302127759E+02 0.  0.
          5    1    5    5  501    0  0.44544081089E+02  0.38388946870E+02  0.14486648696E+03  0.15641699219E+03  0.47000000000E+01 0. -1.
        -11    1    6    6    0    0  0.20344322442E+02  0.49903835708E+02  0.98236166051E+03  0.98383876540E+03  0.00000000000E+00 0.  1.
         12    1    6    6    0    0 -0.27681489029E+02  0.37328384309E+02  0.34646433364E+03  0.34956717179E+03  0.00000000000E+00 0. -1.
         -5    1    3    3    0  503 -0.56246062772E+02 -0.11435676248E+01  0.24536704054E+03  0.25177768350E+03  0.47000000000E+01 0.  1.
         13    1    4    4    0    0 -0.23135320392E+02 -0.17171464786E+02  0.42019395574E+03  0.42118055830E+03  0.00000000000E+00 0. -1.
        -14    1    4    4    0    0  0.42174468662E+02 -0.10730613448E+03  0.92505692593E+03  0.93221435760E+03  0.00000000000E+00 0.  1.
</event>
<event>
12    1  0.1623092E-001  0.3039650E+03  0.7818608E-02  0.1083311E+00
         21   -1    0    0  503  502  0.00000000000E+00  0.00000000000E+00  0.11955936176E+03  0.11955936176E+03  0.00000000000E+00 0. -1.
         21   -1    0    0  501  503 -0.00000000000E+00 -0.00000000000E+00 -0.97604257619E+03  0.97604257619E+03  0.00000000000E+00 0.  1.
          6    2    1    2  501    0  0.18897804364E+03  0.16398593538E+03 -0.67883847864E+03  0.74378516894E+03  0.17259956394E+03 0.  0.
         24    2    3    3    0    0  0.17447611828E+03  0.10869310580E+03 -0.63274402023E+03  0.67020261708E+03  0.80934823810E+02 0.  0.
         -6    2    1    2    0  502 -0.18897804364E+03 -0.16398593538E+03 -0.17764473579E+03  0.35181676901E+03  0.17208514992E+03 0.  0.
        -24    2    5    5    0    0 -0.49176931049E+02 -0.69413189469E+02 -0.14282170684E+02  0.11687470588E+03  0.78861619657E+02 0.  0.
          5    1    3    3  501    0  0.14501925363E+02  0.55292829581E+02 -0.46094458411E+02  0.73582551862E+02  0.47000000000E+01 0. -1.
        -11    1    4    4    0    0  0.16398450318E+03  0.11069907001E+03 -0.51060141874E+03  0.54759383690E+03  0.00000000000E+00 0.  1.
         12    1    4    4    0    0  0.10491615099E+02 -0.20059642133E+01 -0.12214260149E+03  0.12260878019E+03  0.00000000000E+00 0. -1.
         -5    1    5    5    0  502 -0.13980111259E+03 -0.94572745911E+02 -0.16336256511E+03  0.23494206313E+03  0.47000000000E+01 0.  1.
         13    1    6    6    0    0 -0.48051166485E+02 -0.78651412193E+01  0.11669742501E+02  0.50069531025E+02  0.00000000000E+00 0. -1.
        -14    1    6    6    0    0 -0.11257645636E+01 -0.61548048249E+02 -0.25951913185E+02  0.66805174853E+02  0.00000000000E+00 0.  1.
</event>
<event>
12    1  0.1623092E-001  0.2214814E+03  0.7818608E-02  0.1133071E+00
         21   -1    0    0  501  502  0.00000000000E+00  0.00000000000E+00  0.27960091319E+03  0.27960091319E+03  0.00000000000E+00 0.  1.
         21   -1    0    0  502  503 -0.00000000000E+00 -0.00000000000E+00 -0.24706557716E+03  0.24706557716E+03  0.00000000000E+00 0. -1.
         -6    2    1    2    0  503 -0.53591229118E+02 -0.12741009239E+03 -0.12676390890E+03  0.25384739733E+03  0.17106741669E+03 0.  0.
        -24    2    3    3    0    0 -0.40432138399E+02 -0.16032068614E+03 -0.11410751222E+03  0.21591926495E+03  0.79139904050E+02 0.  0.
          6    2    1    2  501    0  0.53591229118E+02  0.12741009239E+03  0.15929924493E+03  0.27281909302E+03  0.17305680166E+03 0.  0.
         24    2    5    5    0    0  0.66614788464E+02  0.15420178583E+03  0.11250571457E+03  0.21714924105E+03  0.79249834589E+02 0.  0.
          5    1    5    5  501    0 -0.13023559346E+02 -0.26791693434E+02  0.46793530358E+02  0.55669851971E+02  0.47000000000E+01 0. -1.
        -11    1    6    6    0    0  0.25267974557E+02  0.13759516910E+03  0.95843719349E+02  0.16957865324E+03  0.00000000000E+00 0.  1.
         12    1    6    6    0    0  0.41346813908E+02  0.16606616733E+02  0.16661995224E+02  0.47570587809E+02  0.00000000000E+00 0. -1.
         -5    1    3    3    0  503 -0.13159090719E+02  0.32910593744E+02 -0.12656396679E+02  0.37928132383E+02  0.47000000000E+01 0.  1.
         13    1    4    4    0    0 -0.11266958037E+02 -0.76832779289E+01 -0.42839072773E+02  0.44957349334E+02  0.00000000000E+00 0. -1.
        -14    1    4    4    0    0 -0.29165180362E+02 -0.15263740821E+03 -0.71268439447E+02  0.17096191562E+03  0.00000000000E+00 0.  1.
</event>
<event>
12    1  0.1623092E-001  0.2961283E+03  0.7818608E-02  0.1088590E+00
         21   -1    0    0  501  502  0.00000000000E+00  0.00000000000E+00  0.37792685915E+03  0.37792685915E+03  0.00000000000E+00 0.  1.
         21   -1    0    0  502  503 -0.00000000000E+00 -0.00000000000E+00 -0.42422380548E+03  0.42422380548E+03  0.00000000000E+00 0. -1.
         -6    2    1    2    0  503  0.21430594616E+03 -0.73072969346E+02 -0.29912435113E+03  0.42091253027E+03  0.19085408900E+03 0.  0.
        -24    2    3    3    0    0  0.22285420472E+03 -0.77361197709E+02 -0.31508687690E+03  0.40171998338E+03  0.80314715860E+02 0.  0.
          6    2    1    2  501    0 -0.21430594616E+03  0.73072969346E+02  0.25282740480E+03  0.38123813436E+03  0.17364941999E+03 0.  0.
         24    2    5    5    0    0 -0.20623281057E+02  0.11471530903E+02  0.75440399690E+02  0.11143088545E+03  0.78540897531E+02 0.  0.
          5    1    5    5  501    0 -0.19368266510E+03  0.61601438444E+02  0.17738700511E+03  0.26980724891E+03  0.47000000000E+01 0. -1.
        -11    1    6    6    0    0 -0.30407668063E+02 -0.37281979940E+01  0.85444541741E+02  0.90770564891E+02  0.00000000000E+00 0.  1.
         12    1    6    6    0    0  0.97843870053E+01  0.15199728897E+02 -0.10004142051E+02  0.20660320563E+02  0.00000000000E+00 0. -1.
         -5    1    3    3    0  503 -0.85482585612E+01  0.42882283625E+01  0.15962525770E+02  0.19192546884E+02  0.47000000000E+01 0.  1.
         11    1    4    4    0    0  0.60592511833E+02 -0.61209487684E+02 -0.11016388091E+03  0.13983609881E+03  0.00000000000E+00 0. -1.
        -12    1    4    4    0    0  0.16226169289E+03 -0.16151710025E+02 -0.20492299599E+03  0.26188388458E+03  0.00000000000E+00 0.  1.
</event>
<event>
12    1  0.1623092E-001  0.1877790E+03  0.7818608E-02  0.1161768E+00
         21   -1    0    0  503  502  0.00000000000E+00  0.00000000000E+00  0.98394090452E+02  0.98394090452E+02  0.00000000000E+00 0.  1.
         21   -1    0    0  501  503 -0.00000000000E+00 -0.00000000000E+00 -0.36034506829E+03  0.36034506829E+03  0.00000000000E+00 0.  1.
          6    2    1    2  501    0  0.72968841683E+02 -0.25328328918E+02 -0.17552129384E+03  0.25703827066E+03  0.17115773979E+03 0.  0.
         24    2    3    3    0    0  0.77691271875E+02 -0.61909533299E+01 -0.19742782321E+03  0.22719657969E+03  0.81032578740E+02 0.  0.
         -6    2    1    2    0  502 -0.72968841683E+02  0.25328328918E+02 -0.86429683995E+02  0.20170088808E+03  0.16506720412E+03 0.  0.
        -24    2    5    5    0    0 -0.87970578299E+01  0.20520792997E+01  0.12174524967E+02  0.81681382733E+02  0.80262257451E+02 0.  0.
          5    1    3    3  501    0 -0.47224301914E+01 -0.19137375588E+02  0.21906529364E+02  0.29841690972E+02  0.47000000000E+01 0. -1.
        -13    1    4    4    0    0  0.65301208401E+02 -0.22961904859E+02 -0.71363814530E+02  0.99419771262E+02  0.00000000000E+00 0.  1.
         14    1    4    4    0    0  0.12390063474E+02  0.16770951529E+02 -0.12606400868E+03  0.12777680843E+03  0.00000000000E+00 0. -1.
         -5    1    5    5    0  502 -0.64171783853E+02  0.23276249618E+02 -0.98604208962E+02  0.12001950535E+03  0.47000000000E+01 0.  1.
         13    1    6    6    0    0  0.33405947448E+02  0.42804515651E+01 -0.83508470872E+01  0.34698937124E+02  0.00000000000E+00 0. -1.
        -14    1    6    6    0    0 -0.42203005278E+02 -0.22283722655E+01  0.20525372054E+02  0.46982445609E+02  0.00000000000E+00 0.  1.
</event>
<event>
12    1  0.1623092E-001  0.2222628E+03  0.7818608E-02  0.1132501E+00
         21   -1    0    0  501  502  0.00000000000E+00  0.00000000000E+00  0.16510575944E+02  0.16510575944E+02  0.00000000000E+00 0.  1.
         21   -1    0    0  502  503 -0.00000000000E+00 -0.00000000000E+00 -0.29890312735E+04  0.29890312735E+04  0.00000000000E+00 0. -1.
         -6    2    1    2    0  503 -0.14399675845E+03  0.28571059884E+01 -0.13632457359E+04  0.13809906314E+04  0.16719138164E+03 0.  0.
        -24    2    3    3    0    0 -0.94705007705E+02  0.35888174261E+02 -0.12065567383E+04  0.12133772068E+04  0.79044819828E+02 0.  0.
          6    2    1    2  501    0  0.14399675845E+03 -0.28571059884E+01 -0.16092749617E+04  0.16245512181E+04  0.16928534582E+03 0.  0.
         24    2    5    5    0    0  0.84838123950E+02 -0.63410199787E+02 -0.11302679058E+04  0.11380984755E+04  0.80896478534E+02 0.  0.
          5    1    5    5  501    0  0.59158634496E+02  0.60553093798E+02 -0.47900705592E+03  0.48645274265E+03  0.47000000000E+01 0. -1.
        -13    1    6    6    0    0  0.30048580064E+02 -0.52609216489E+01 -0.95570377000E+02  0.10032094208E+03  0.00000000000E+00 0.  1.
         14    1    6    6    0    0  0.54789543885E+02 -0.58149278138E+02 -0.10346975288E+04  0.10377775334E+04  0.00000000000E+00 0. -1.
         -5    1    3    3    0  503 -0.49291750741E+02 -0.33031068272E+02 -0.15668899753E+03  0.16761342461E+03  0.47000000000E+01 0.  1.
         13    1    4    4    0    0 -0.83413440862E+02  0.26384515782E+02 -0.11778883935E+04  0.11811329359E+04  0.00000000000E+00 0. -1.
        -14    1    4    4    0    0 -0.11291566843E+02  0.95036584787E+01 -0.28668344818E+02  0.32244270822E+02  0.00000000000E+00 0.  1.
</event>
<event>
12    1  0.1623092E-001  0.2062327E+03  0.7818608E-02  0.1144605E+00
         21   -1    0    0  501  502  0.00000000000E+00  0.00000000000E+00  0.18663908515E+03  0.18663908515E+03  0.00000000000E+00 0. -1.
         21   -1    0    0  502  503 -0.00000000000E+00 -0.00000000000E+00 -0.27872494385E+03  0.27872494385E+03  0.00000000000E+00 0.  1.
         -6    2    1    2    0  503 -0.90986313023E+02  0.69303944263E+02 -0.14553669102E+03  0.25241401577E+03  0.17161107504E+03 0.  0.
        -24    2    3    3    0    0 -0.33978301662E+02  0.10355275324E+03 -0.11551696306E+03  0.17929651895E+03  0.83218839595E+02 0.  0.
          6    2    1    2  501    0  0.90986313023E+02 -0.69303944263E+02  0.53450832326E+02  0.21295001323E+03  0.17149102253E+03 0.  0.
         24    2    5    5    0    0  0.51610381929E+02 -0.78072536705E+02 -0.24507647735E+02  0.12504684618E+03  0.79228381481E+02 0.  0.
          5    1    5    5  501    0  0.39375931094E+02  0.87685924425E+01  0.77958480061E+02  0.87903167044E+02  0.47000000000E+01 0. -1.
        -11    1    6    6    0    0 -0.14885765676E+02  0.15276886034E+01 -0.14513266247E+02  0.20845976815E+02  0.00000000000E+00 0.  1.
         12    1    6    6    0    0  0.66496147605E+02 -0.79600225309E+02 -0.99943814883E+01  0.10420086937E+03  0.00000000000E+00 0. -1.
         -5    1    3    3    0  503 -0.57008011361E+02 -0.34248808974E+02 -0.30019727959E+02  0.73117496827E+02  0.47000000000E+01 0.  1.
         11    1    4    4    0    0 -0.58248397875E+02  0.48191788117E+02 -0.52944333388E+02  0.92295323472E+02  0.00000000000E+00 0. -1.
        -12    1    4    4    0    0  0.24270096213E+02  0.55360965120E+02 -0.62572629676E+02  0.87001195473E+02  0.00000000000E+00 0.  1.
</event>
<event>
12    1  0.1623092E-001  0.2182988E+03  0.7818608E-02  0.1135519E+00
         21   -1    0    0  501  502  0.00000000000E+00  0.00000000000E+00  0.10807608155E+03  0.10807608155E+03  0.00000000000E+00 0.  1.
         21   -1    0    0  502  503 -0.00000000000E+00 -0.00000000000E+00 -0.13890953026E+04  0.13890953026E+04  0.00000000000E+00 0. -1.
         -6    2    1    2    0  503  0.13740176888E+02 -0.13111804212E+03 -0.12593432918E+04  0.12777990971E+04  0.17159333439E+03 0.  0.
        -24    2    3    3    0    0 -0.13955882544E+02 -0.15401907390E+03 -0.11228633040E+04  0.11365885945E+04  0.84231774783E+02 0.  0.
          6    2    1    2  501    0 -0.13740176888E+02  0.13111804212E+03 -0.21675929213E+02  0.21937228706E+03  0.17399316363E+03 0.  0.
         24    2    5    5    0    0  0.97543867595E+01 -0.23043253497E+01 -0.20290654177E+02  0.83808532133E+02  0.80695114071E+02 0.  0.
          5    1    5    5  501    0 -0.23494563648E+02  0.13342236747E+03 -0.13852750362E+01  0.13556375493E+03  0.47000000000E+01 0. -1.
        -13    1    6    6    0    0 -0.28844761589E+02 -0.60790094589E+01  0.13450699916E+02  0.32402098009E+02  0.00000000000E+00 0.  1.
         14    1    6    6    0    0  0.38599148348E+02  0.37746841092E+01 -0.33741354093E+02  0.51406434124E+02  0.00000000000E+00 0. -1.
         -5    1    3    3    0  503  0.27696059432E+02  0.22901031774E+02 -0.13647998785E+03  0.14121050261E+03  0.47000000000E+01 0.  1.
         11    1    4    4    0    0  0.33392339690E+02 -0.36862546499E+02 -0.31614876994E+03  0.32003740472E+03  0.00000000000E+00 0. -1.
        -12    1    4    4    0    0 -0.47348222234E+02 -0.11715652740E+03 -0.80671453404E+03  0.81655118976E+03  0.00000000000E+00 0.  1.
</event>
<event>
12    1  0.1623092E-001  0.2678953E+03  0.7818608E-02  0.1102696E+00
         21   -1    0    0  503  502  0.00000000000E+00  0.00000000000E+00  0.55149618431E+03  0.55149618431E+03  0.00000000000E+00 0. -1.
         21   -1    0    0  501  503 -0.00000000000E+00 -0.00000000000E+00 -0.23088592459E+03  0.23088592459E+03  0.00000000000E+00 0. -1.
          6    2    1    2  501    0 -0.19536193744E+03  0.58474298676E+02  0.41936435930E+03  0.49686458619E+03  0.17152965038E+03 0.  0.
         24    2    3    3    0    0 -0.12820679838E+03  0.45809099849E+02  0.39305251222E+03  0.42348459396E+03  0.79457329303E+02 0.  0.
         -6    2    1    2    0  502  0.19536193744E+03 -0.58474298676E+02 -0.98754099575E+02  0.28551752271E+03  0.17373069212E+03 0.  0.
        -24    2    5    5    0    0  0.11700803211E+03 -0.80803725053E+02 -0.11832589301E+03  0.20159444566E+03  0.80119797826E+02 0.  0.
          5    1    3    3  501    0 -0.67155139062E+02  0.12665198827E+02  0.26311847080E+02  0.73379992236E+02  0.47000000000E+01 0. -1.
        -11    1    4    4    0    0 -0.75857630134E+02 -0.14598369193E+02  0.17717589695E+03  0.19328422309E+03  0.00000000000E+00 0.  1.
         12    1    4    4    0    0 -0.52349168246E+02  0.60407469042E+02  0.21587661526E+03  0.23020037087E+03  0.00000000000E+00 0. -1.
         -5    1    5    5    0  502  0.78353905333E+02  0.22329426377E+02  0.19571793436E+02  0.83923077050E+02  0.47000000000E+01 0.  1.
         13    1    6    6    0    0  0.12695820988E+03 -0.63358719450E+02 -0.11124263273E+03  0.18029874576E+03  0.00000000000E+00 0. -1.
        -14    1    6    6    0    0 -0.99501777660E+01 -0.17445005604E+02 -0.70832602763E+01  0.21295699900E+02  0.00000000000E+00 0.  1.
</event>
<event>
12    1  0.1623092E-001  0.3148973E+03  0.7818608E-02  0.1078562E+00
         21   -1    0    0  501  502  0.00000000000E+00  0.00000000000E+00  0.12023738790E+04  0.12023738790E+04  0.00000000000E+00 0. -1.
         21   -1    0    0  502  503 -0.00000000000E+00 -0.00000000000E+00 -0.13791556473E+03  0.13791556473E+03  0.00000000000E+00 0.  1.
         -6    2    1    2    0  503 -0.22903906959E+03 -0.11995078092E+03  0.10507912940E+03  0.33196672795E+03  0.17975872660E+03 0.  0.
        -24    2    3    3    0    0 -0.69104980602E+02 -0.11291993954E+03  0.43352536133E+02  0.16032580082E+03  0.79363145903E+02 0.  0.
          6    2    1    2  501    0  0.22903906959E+03  0.11995078092E+03  0.95937918487E+03  0.10083227158E+04  0.17163680714E+03 0.  0.
         24    2    5    5    0    0  0.83382625804E+02  0.83863053870E+02  0.30556968769E+03  0.33749705121E+03  0.80905818366E+02 0.  0.
          5    1    5    5  501    0  0.14565644379E+03  0.36087727046E+02  0.65380949718E+03  0.67082566459E+03  0.47000000000E+01 0. -1.
        -13    1    6    6    0    0  0.92304550541E+02  0.49879348345E+02  0.25664724236E+03  0.27726501123E+03  0.00000000000E+00 0.  1.
         14    1    6    6    0    0 -0.89219247369E+01  0.33983705525E+02  0.48922445336E+02  0.60232039978E+02  0.00000000000E+00 0. -1.
         -5    1    3    3    0  503 -0.15993408899E+03 -0.70308413720E+01  0.61726593268E+02  0.17164092714E+03  0.47000000000E+01 0.  1.
         11    1    4    4    0    0 -0.77477973985E+02 -0.92111679777E+02  0.57926399108E+02  0.13357719011E+03  0.00000000000E+00 0. -1.
        -12    1    4    4    0    0  0.83729933821E+01 -0.20808259768E+02 -0.14573862975E+02  0.26748610707E+02  0.00000000000E+00 0.  1.
</event>
<event>
12    1  0.1623092E-001  0.1952152E+03  0.7818608E-02  0.1154391E+00
         21   -1    0    0  501  502  0.00000000000E+00  0.00000000000E+00  0.20517612098E+03  0.20517612098E+03  0.00000000000E+00 0.  1.
         21   -1    0    0  502  503 -0.00000000000E+00 -0.00000000000E+00 -0.18568715072E+03  0.18568715072E+03  0.00000000000E+00 0.  1.
         -6    2    1    2    0  503  0.85736846604E+02  0.30464419330E+02  0.31706600288E+02  0.19777328652E+03  0.17271385772E+03 0.  0.
        -24    2    3    3    0    0 -0.35545684482E+01 -0.28071799312E+02 -0.48849522962E+01  0.84811003362E+02  0.79802146957E+02 0.  0.
          6    2    1    2  501    0 -0.85736846604E+02 -0.30464419330E+02 -0.12217630021E+02  0.19308998518E+03  0.16986931502E+03 0.  0.
         24    2    5    5    0    0 -0.78729480398E+02  0.12833610015E+02 -0.59658526953E+02  0.12830919152E+03  0.80876919823E+02 0.  0.
          5    1    5    5  501    0 -0.70073662067E+01 -0.43298029346E+02  0.47440896931E+02  0.64780793666E+02  0.47000000000E+01 0. -1.
        -11    1    6    6    0    0 -0.83955129734E+02 -0.14834874994E+02 -0.47944496208E+02  0.97812126249E+02  0.00000000000E+00 0.  1.
         12    1    6    6    0    0  0.52256493365E+01  0.27668485010E+02 -0.11714030744E+02  0.30497065269E+02  0.00000000000E+00 0. -1.
         -5    1    3    3    0  503  0.89291415053E+02  0.58536218642E+02  0.36591552584E+02  0.11296228315E+03  0.47000000000E+01 0.  1.
         11    1    4    4    0    0  0.10915015637E+02 -0.40890998415E+01 -0.38980400580E+02  0.40685746070E+02  0.00000000000E+00 0. -1.
        -12    1    4    4    0    0 -0.14469584086E+02 -0.23982699470E+02  0.34095448284E+02  0.44125257293E+02  0.00000000000E+00 0.  1.
</event>
<event>
12    1  0.1623092E-001  0.2396801E+03  0.7818608E-02  0.1120923E+00
         21   -1    0    0  501  502  0.00000000000E+00  0.00000000000E+00  0.47803630302E+03  0.47803630302E+03  0.00000000000E+00 0.  1.
         21   -1    0    0  502  503 -0.00000000000E+00 -0.00000000000E+00 -0.11870505341E+03  0.11870505341E+03  0.00000000000E+00 0.  1.
         -6    2    1    2    0  503 -0.79842817852E+02 -0.14696509007E+03  0.14712442197E+03  0.27661903729E+03  0.16400878936E+03 0.  0.
        -24    2    3    3    0    0 -0.37317049289E+02 -0.15733648724E+03  0.14648050691E+03  0.23259050679E+03  0.80588290448E+02 0.  0.
          6    2    1    2  501    0  0.79842817852E+02  0.14696509007E+03  0.21220682763E+03  0.32012231915E+03  0.17167687166E+03 0.  0.
         24    2    5    5    0    0  0.10767266956E+03  0.14675119582E+03  0.15737368678E+03  0.25845133948E+03  0.94346702894E+02 0.  0.
          5    1    5    5  501    0 -0.27829851705E+02  0.21389424835E+00  0.54833140855E+02  0.61670979664E+02  0.47000000000E+01 0. -1.
        -13    1    6    6    0    0  0.78038841555E+02  0.93785057175E+02  0.15560422421E+03  0.19773308356E+03  0.00000000000E+00 0.  1.
         14    1    6    6    0    0  0.29633828002E+02  0.52966138643E+02  0.17694625655E+01  0.60718255925E+02  0.00000000000E+00 0. -1.
         -5    1    3    3    0  503 -0.42525768563E+02  0.10371397176E+02  0.64391506580E+00  0.44028530499E+02  0.47000000000E+01 0.  1.
         11    1    4    4    0    0  0.13325012814E+02 -0.67632207830E+02  0.25027850269E+02  0.73335290219E+02  0.00000000000E+00 0. -1.
        -12    1    4    4    0    0 -0.50642062103E+02 -0.89704279414E+02  0.12145265664E+03  0.15925521657E+03  0.00000000000E+00 0.  1.
</event>
<event>
12    1  0.1623092E-001  0.2016455E+03  0.7818608E-02  0.1148508E+00
         21   -1    0    0  501  502  0.00000000000E+00  0.00000000000E+00  0.76279915039E+02  0.76279915039E+02  0.00000000000E+00 0.  1.
         21   -1    0    0  502  503 -0.00000000000E+00 -0.00000000000E+00 -0.15813841379E+04  0.15813841379E+04  0.00000000000E+00 0. -1.
         -6    2    1    2    0  503 -0.77027073830E+02  0.74475757035E+02 -0.14275465578E+04  0.14416175068E+04  0.16997662413E+03 0.  0.
        -24    2    3    3    0    0 -0.27350487722E+02  0.16855330056E+02 -0.11636274001E+04  0.11669116849E+04  0.81375688331E+02 0.  0.
          6    2    1    2  501    0  0.77027073830E+02 -0.74475757035E+02 -0.77557665046E+02  0.21604654612E+03  0.17082479385E+03 0.  0.
         24    2    5    5    0    0  0.26271984364E+02 -0.41390233794E+01 -0.95706466040E+02  0.12730645267E+03  0.79623216288E+02 0.  0.
          5    1    5    5  501    0  0.50755089466E+02 -0.70336733656E+02  0.18148800994E+02  0.88740093451E+02  0.47000000000E+01 0. -1.
        -11    1    6    6    0    0 -0.18727782983E+00  0.43983076693E+01  0.13717027163E+02  0.14406145131E+02  0.00000000000E+00 0.  1.
         12    1    6    6    0    0  0.26459262193E+02 -0.85373310487E+01 -0.10942349320E+03  0.11290030754E+03  0.00000000000E+00 0. -1.
         -5    1    3    3    0  503 -0.49676586109E+02  0.57620426979E+02 -0.26391915767E+03  0.27470582192E+03  0.47000000000E+01 0.  1.
         13    1    4    4    0    0 -0.53020549078E+02  0.21309619879E+02 -0.60970183574E+03  0.61237374783E+03  0.00000000000E+00 0. -1.
        -14    1    4    4    0    0  0.25670061356E+02 -0.44542898226E+01 -0.55392556439E+03  0.55453793705E+03  0.00000000000E+00 0.  1.
</event>
<event>
12    1  0.1623092E-001  0.1954209E+03  0.7818608E-02  0.1154212E+00
         21   -1    0    0  501  502  0.00000000000E+00  0.00000000000E+00  0.83359685263E+02  0.83359685263E+02  0.00000000000E+00 0.  1.
         21   -1    0    0  502  503 -0.00000000000E+00 -0.00000000000E+00 -0.49658849803E+03  0.49658849803E+03  0.00000000000E+00 0. -1.
         -6    2    1    2    0  503  0.40246927697E+02  0.82184653450E+02 -0.29448716513E+03  0.35342895816E+03  0.17267080121E+03 0.  0.
        -24    2    3    3    0    0 -0.38506961086E+01  0.17006738573E+02 -0.33841253390E+02  0.81121884587E+02  0.71634298422E+02 0.  0.
          6    2    1    2  501    0 -0.40246927697E+02 -0.82184653450E+02 -0.11874164764E+03  0.22651922513E+03  0.16981533505E+03 0.  0.
         24    2    5    5    0    0 -0.37903989762E+02 -0.78541766253E+02 -0.15207725617E+03  0.19257643825E+03  0.79703646351E+02 0.  0.
          5    1    5    5  501    0 -0.23429379356E+01 -0.36428871968E+01  0.33335608526E+02  0.33942786879E+02  0.47000000000E+01 0. -1.
        -11    1    6    6    0    0 -0.40322072617E+02 -0.45558171242E+02 -0.33456579001E+02  0.69431687187E+02  0.00000000000E+00 0.  1.
         12    1    6    6    0    0  0.24180828556E+01 -0.32983595011E+02 -0.11862067716E+03  0.12314475107E+03  0.00000000000E+00 0. -1.
         -5    1    3    3    0  503  0.44097623806E+02  0.65177914877E+02 -0.26064591174E+03  0.27230707358E+03  0.47000000000E+01 0.  1.
         13    1    4    4    0    0 -0.13510658134E+02  0.75522273589E+01 -0.54376967269E+02  0.56536966585E+02  0.00000000000E+00 0. -1.
        -14    1    4    4    0    0  0.96599620252E+01  0.94545112144E+01  0.20535713879E+02  0.24584918002E+02  0.00000000000E+00 0.  1.
</event>
<event>
12    1  0.1623092E-001  0.2123335E+03  0.7818608E-02  0.1139957E+00
         21   -1    0    0  501  502  0.00000000000E+00  0.00000000000E+00  0.21007814774E+03  0.21007814774E+03  0.00000000000E+00 0.  1.
         21   -1    0    0  502  503 -0.00000000000E+00 -0.00000000000E+00 -0.25586317132E+03  0.25586317132E+03  0.00000000000E+00 0.  1.
         -6    2    1    2    0  503  0.61067242998E+02  0.10713527787E+03 -0.11769081356E+03  0.24176289442E+03  0.17143801676E+03 0.  0.
        -24    2    3    3    0    0 -0.23665805911E+01  0.10704650614E+03 -0.11787937585E+03  0.17815484925E+03  0.79868941900E+02 0.  0.
          6    2    1    2  501    0 -0.61067242998E+02 -0.10713527787E+03  0.71905789993E+02  0.22417842464E+03  0.17285354352E+03 0.  0.
         24    2    5    5    0    0  0.12921003680E+02 -0.33986292772E+02 -0.14138904096E+02  0.89082850883E+02  0.80086361385E+02 0.  0.
          5    1    5    5  501    0 -0.73988246678E+02 -0.73148985095E+02  0.86044694090E+02  0.13509557375E+03  0.47000000000E+01 0. -1.
        -13    1    6    6    0    0  0.21402880892E+02  0.21137217082E+02  0.42002725637E+01  0.30372809321E+02  0.00000000000E+00 0.  1.
         14    1    6    6    0    0 -0.84818772119E+01 -0.55123509854E+02 -0.18339176660E+02  0.58710041562E+02  0.00000000000E+00 0. -1.
         -5    1    3    3    0  503  0.63433823589E+02  0.88771731423E-01  0.18856228266E+00  0.63608045177E+02  0.47000000000E+01 0.  1.
         11    1    4    4    0    0 -0.30752685856E+02  0.97559703131E+02 -0.10119553551E+03  0.14388940117E+03  0.00000000000E+00 0. -1.
        -12    1    4    4    0    0  0.28386105265E+02  0.94868030057E+01 -0.16683840335E+02  0.34265448074E+02  0.00000000000E+00 0.  1.
</event>
<event>
12    1  0.1623092E-001  0.2593783E+03  0.7818608E-02  0.1107542E+00
         21   -1    0    0  503  502  0.00000000000E+00  0.00000000000E+00  0.49889266107E+02  0.49889266107E+02  0.00000000000E+00 0. -1.
         21   -1    0    0  501  503 -0.00000000000E+00 -0.00000000000E+00 -0.16841162077E+04  0.16841162077E+04  0.00000000000E+00 0. -1.
          6    2    1    2  501    0 -0.15457954543E+03 -0.11748002549E+03 -0.12044171553E+04  0.12319959457E+04  0.17174671413E+03 0.  0.
         24    2    3    3    0    0 -0.10011065193E+02 -0.70358468944E+02 -0.51879917168E+03  0.52970355920E+03  0.79892080454E+02 0.  0.
         -6    2    1    2    0  502  0.15457954543E+03  0.11748002549E+03 -0.42980978625E+03  0.50200952813E+03  0.17199046987E+03 0.  0.
        -24    2    5    5    0    0  0.67258919130E+02  0.48678053498E+02 -0.90372683850E+02  0.14480057022E+03  0.76854850562E+02 0.  0.
          5    1    3    3  501    0 -0.14456848024E+03 -0.47121556548E+02 -0.68561798364E+03  0.70229238645E+03  0.47000000000E+01 0. -1.
        -11    1    4    4    0    0 -0.46729716457E+00 -0.20418195931E+01 -0.30592377408E+03  0.30593094473E+03  0.00000000000E+00 0.  1.
         12    1    4    4    0    0 -0.95437680279E+01 -0.68316649351E+02 -0.21287539760E+03  0.22377261447E+03  0.00000000000E+00 0. -1.
         -5    1    5    5    0  502  0.87320626302E+02  0.68801971994E+02 -0.33943710240E+03  0.35720895791E+03  0.47000000000E+01 0.  1.
         13    1    6    6    0    0  0.71428826589E+00  0.15502461432E+02 -0.64080728677E+02  0.65933119947E+02  0.00000000000E+00 0. -1.
        -14    1    6    6    0    0  0.66544630864E+02  0.33175592066E+02 -0.26291955173E+02  0.78867450274E+02  0.00000000000E+00 0.  1.
</event>
<event>
12    1  0.1623092E-001  0.3204793E+03  0.7818608E-02  0.1075461E+00
         21   -1    0    0  501  502  0.00000000000E+00  0.00000000000E+00  0.25289999646E+03  0.25289999646E+03  0.00000000000E+00 0. -1.
         21   -1    0    0  502  503 -0.00000000000E+00 -0.00000000000E+00 -0.42583474632E+03  0.42583474632E+03  0.00000000000E+00 0. -1.
         -6    2    1    2    0  503  0.50376093029E+02 -0.26582479702E+03 -0.16010753960E+03  0.35799879259E+03  0.17125459935E+03 0.  0.
        -24    2    3    3    0    0  0.95155862831E+02 -0.16391669654E+03 -0.79873672598E+02  0.22070330052E+03  0.80042623978E+02 0.  0.
          6    2    1    2  501    0 -0.50376093029E+02  0.26582479702E+03 -0.12827210260E+02  0.32073595020E+03  0.17177438390E+03 0.  0.
         24    2    5    5    0    0 -0.21872718697E+02  0.80273962910E+02 -0.56004646408E+02  0.12804984437E+03  0.79611037415E+02 0.  0.
          5    1    5    5  501    0 -0.28503374331E+02  0.18555083411E+03  0.43177436148E+02  0.19268610583E+03  0.47000000000E+01 0. -1.
        -13    1    6    6    0    0  0.25849436259E+02  0.25933772431E+02 -0.39517482239E+02  0.53873790566E+02  0.00000000000E+00 0.  1.
         14    1    6    6    0    0 -0.47722154956E+02  0.54340190479E+02 -0.16487164169E+02  0.74176053800E+02  0.00000000000E+00 0. -1.
         -5    1    3    3    0  503 -0.44779769802E+02 -0.10190810048E+03 -0.80233867002E+02  0.13729549207E+03  0.47000000000E+01 0.  1.
         13    1    4    4    0    0  0.11549593912E+02 -0.78659763486E+02 -0.47864052116E+01  0.79647104066E+02  0.00000000000E+00 0. -1.
        -14    1    4    4    0    0  0.83606268919E+02 -0.85256933051E+02 -0.75087267386E+02  0.14105619646E+03  0.00000000000E+00 0.  1.
</event>
<event>
12    1  0.1623092E-001  0.2074204E+03  0.7818608E-02  0.1144025E+00
         21   -1    0    0  501  502  0.00000000000E+00  0.00000000000E+00  0.10609478190E+03  0.10609478190E+03  0.00000000000E+00 0.  1.
         21   -1    0    0  502  503 -0.00000000000E+00 -0.00000000000E+00 -0.50091739331E+03  0.50091739331E+03  0.00000000000E+00 0. -1.
         -6    2    1    2    0  503 -0.11157507087E+03  0.31968094270E+02 -0.33175409719E+03  0.39021533325E+03  0.16951775661E+03 0.  0.
        -24    2    3    3    0    0 -0.63777017956E+02  0.45982260952E+02 -0.31980131979E+03  0.33877595516E+03  0.79463119197E+02 0.  0.
          6    2    1    2  501    0  0.11157507087E+03 -0.31968094270E+02 -0.63068514214E+02  0.21679684197E+03  0.17190775931E+03 0.  0.
         24    2    5    5    0    0  0.63833821086E+02 -0.72904253007E+02 -0.83728506472E+02  0.15043479480E+03  0.78932742703E+02 0.  0.
          5    1    5    5  501    0  0.47741249789E+02  0.40936158738E+02  0.20659992257E+02  0.66362047163E+02  0.47000000000E+01 0. -1.
        -13    1    6    6    0    0  0.14239917565E+02 -0.47967551229E+02 -0.72108280153E-01  0.50036650795E+02  0.00000000000E+00 0.  1.
         14    1    6    6    0    0  0.49593903521E+02 -0.24936701778E+02 -0.83656398191E+02  0.10039814401E+03  0.00000000000E+00 0. -1.
         -5    1    3    3    0  503 -0.47798052919E+02 -0.14014166682E+02 -0.11952777401E+02  0.51439378090E+02  0.47000000000E+01 0.  1.
         11    1    4    4    0    0 -0.45205799849E+01  0.42017039524E+02 -0.20727479458E+03  0.21153890357E+03  0.00000000000E+00 0. -1.
        -12    1    4    4    0    0 -0.59256437971E+02  0.39652214280E+01 -0.11252652520E+03  0.12723705159E+03  0.00000000000E+00 0.  1.
</event>
<event>
12    1  0.1623092E-001  0.1985688E+03  0.7818608E-02  0.1151194E+00
         21   -1    0    0  503  502  0.00000000000E+00  0.00000000000E+00  0.74661291861E+03  0.74661291861E+03  0.00000000000E+00 0. -1.
         21   -1    0    0  501  503 -0.00000000000E+00 -0.00000000000E+00 -0.81473166767E+02  0.81473166767E+02  0.00000000000E+00 0. -1.
          6    2    1    2  501    0  0.97623748710E+02  0.11679068662E+01  0.85094557383E+02  0.21499392971E+03  0.17160869966E+03 0.  0.
         24    2    3    3    0    0  0.70796039661E+02 -0.19264001148E+01  0.12172271254E+03  0.16924447662E+03  0.93869504464E+02 0.  0.
         -6    2    1    2    0  502 -0.97623748710E+02 -0.11679068662E+01  0.58004519446E+03  0.61309215567E+03  0.17290981291E+03 0.  0.
        -24    2    5    5    0    0 -0.74757179168E+02  0.57210310543E+02  0.26821781583E+03  0.29498949875E+03  0.78843846787E+02 0.  0.
          5    1    3    3  501    0  0.26827709050E+02  0.30943069810E+01 -0.36628155155E+02  0.45749453096E+02  0.47000000000E+01 0. -1.
        -11    1    4    4    0    0 -0.55286638527E+01  0.31174901828E+02  0.18501366906E+02  0.36670713183E+02  0.00000000000E+00 0.  1.
         12    1    4    4    0    0  0.76324703513E+02 -0.33101301942E+02  0.10322134563E+03  0.13257376343E+03  0.00000000000E+00 0. -1.
         -5    1    5    5    0  502 -0.22866569542E+02 -0.58378217410E+02  0.31182737864E+03  0.31810265692E+03  0.47000000000E+01 0.  1.
         13    1    6    6    0    0 -0.31678734253E+02  0.19827304258E+02  0.21069083308E+03  0.21397965170E+03  0.00000000000E+00 0. -1.
        -14    1    6    6    0    0 -0.43078444915E+02  0.37383006285E+02  0.57526982752E+02  0.81009847054E+02  0.00000000000E+00 0.  1.
</event>
<event>
12    1  0.1623092E-001  0.2700443E+03  0.7818608E-02  0.1101260E+00
         21   -1    0    0  503  502  0.00000000000E+00  0.00000000000E+00  0.81045636802E+02  0.81045636802E+02  0.00000000000E+00 0.  1.
         21   -1    0    0  501  503 -0.00000000000E+00 -0.00000000000E+00 -0.98336758055E+03  0.98336758055E+03  0.00000000000E+00 0. -1.
          6    2    1    2  501    0  0.39254363350E+01  0.20814391192E+03 -0.60648569864E+03  0.66388917445E+03  0.17200184933E+03 0.  0.
         24    2    3    3    0    0  0.10595838967E+02  0.12347985227E+03 -0.17572255737E+03  0.22480891852E+03  0.65582672694E+02 0.  0.
         -6    2    1    2    0  502 -0.39254363350E+01 -0.20814391192E+03 -0.29583624510E+03  0.40052404290E+03  0.17193349849E+03 0.  0.
        -24    2    5    5    0    0 -0.44539527191E+02 -0.14256557383E+03 -0.27157273533E+03  0.31952508791E+03  0.77690532911E+02 0.  0.
          5    1    3    3  501    0 -0.66704026321E+01  0.84664059652E+02 -0.43076314127E+03  0.43908025592E+03  0.47000000000E+01 0. -1.
        -13    1    4    4    0    0  0.35664088471E+02  0.76584842148E+02 -0.12796101693E+03  0.15333358115E+03  0.00000000000E+00 0.  1.
         14    1    4    4    0    0 -0.25068249504E+02  0.46895010123E+02 -0.47761540441E+02  0.71475337376E+02  0.00000000000E+00 0. -1.
         -5    1    5    5    0  502  0.40614090856E+02 -0.65578338091E+02 -0.24263509771E+02  0.80998954989E+02  0.47000000000E+01 0.  1.
         11    1    6    6    0    0 -0.28305376779E+02 -0.67815205174E+02 -0.20620066000E+03  0.21890365139E+03  0.00000000000E+00 0. -1.
        -12    1    6    6    0    0 -0.16234150412E+02 -0.74750368660E+02 -0.65372075332E+02  0.10062143652E+03  0.00000000000E+00 0.  1.
</event>
<event>
12    1  0.1623092E-001  0.1765354E+03  0.7818608E-02  0.1171462E+00
         21   -1    0    0  501  502  0.00000000000E+00  0.00000000000E+00  0.76523962911E+03  0.76523962911E+03  0.00000000000E+00 0.  1.
         21   -1    0    0  502  503 -0.00000000000E+00 -0.00000000000E+00 -0.43517897555E+02  0.43517897555E+02  0.00000000000E+00 0.  1.
         -6    2    1    2    0  503 -0.22680676448E+01 -0.33961259699E+02  0.25304465742E+03  0.30793524022E+03  0.17214529395E+03 0.  0.
        -24    2    3    3    0    0 -0.27535163928E+02  0.38208112547E+02  0.75542801291E+02  0.11460690972E+03  0.72180217594E+02 0.  0.
          6    2    1    2  501    0  0.22680676448E+01  0.33961259699E+02  0.46867707413E+03  0.50082228644E+03  0.17322312631E+03 0.  0.
         24    2    5    5    0    0  0.52771851249E+02  0.67013456869E+02  0.30425660834E+03  0.32561024499E+03  0.78576562930E+02 0.  0.
          5    1    5    5  501    0 -0.50503783604E+02 -0.33052197170E+02  0.16442046580E+03  0.17521204145E+03  0.47000000000E+01 0. -1.
        -11    1    6    6    0    0  0.45987040572E+02  0.59053624114E+02  0.12252252784E+03  0.14357544445E+03  0.00000000000E+00 0.  1.
         12    1    6    6    0    0  0.67848106769E+01  0.79598327551E+01  0.18173408050E+03  0.18203480054E+03  0.00000000000E+00 0. -1.
         -5    1    3    3    0  503  0.25267096283E+02 -0.72169372246E+02  0.17750185613E+03  0.19332833050E+03  0.47000000000E+01 0.  1.
         11    1    4    4    0    0  0.18052019038E+02 -0.54242875207E+01  0.34552180250E+02  0.39359261254E+02  0.00000000000E+00 0. -1.
        -12    1    4    4    0    0 -0.45587182966E+02  0.43632400067E+02  0.40990621041E+02  0.75247648467E+02  0.00000000000E+00 0.  1.
</event>
<event>
12    1  0.1623092E-001  0.1934249E+03  0.7818608E-02  0.1155649E+00
         21   -1    0    0  501  502  0.00000000000E+00  0.00000000000E+00  0.11954676720E+03  0.11954676720E+03  0.00000000000E+00 0. -1.
         21   -1    0    0  502  503 -0.00000000000E+00 -0.00000000000E+00 -0.31219108711E+03  0.31219108711E+03  0.00000000000E+00 0. -1.
         -6    2    1    2    0  503 -0.66044659508E+02  0.55048262565E+02 -0.10878605848E+03  0.22191801167E+03  0.17326566055E+03 0.  0.
        -24    2    3    3    0    0 -0.26599513195E+02  0.68304361790E+02 -0.13392222319E+03  0.17307581157E+03  0.81529471647E+02 0.  0.
          6    2    1    2  501    0  0.66044659508E+02 -0.55048262565E+02 -0.83858261434E+02  0.20981984264E+03  0.17204636031E+03 0.  0.
         24    2    5    5    0    0  0.25021597800E+02 -0.25541230754E+01  0.22162497131E+02  0.84516141502E+02  0.77583490474E+02 0.  0.
          5    1    5    5  501    0  0.41023061708E+02 -0.52494139490E+02 -0.10602075857E+03  0.12530370114E+03  0.47000000000E+01 0. -1.
        -11    1    6    6    0    0  0.45793306888E+00  0.35900801712E+02  0.87375822916E+01  0.36951625276E+02  0.00000000000E+00 0.  1.
         12    1    6    6    0    0  0.24563664731E+02 -0.38454924787E+02  0.13424914840E+02  0.47564516226E+02  0.00000000000E+00 0. -1.
         -5    1    3    3    0  503 -0.39445146312E+02 -0.13256099225E+02  0.25136164708E+02  0.48842200099E+02  0.47000000000E+01 0.  1.
         13    1    4    4    0    0 -0.40298825176E+02  0.20559709954E+01 -0.36116845605E+02  0.54153936734E+02  0.00000000000E+00 0. -1.
        -14    1    4    4    0    0  0.13699311981E+02  0.66248390795E+02 -0.97805377581E+02  0.11892187484E+03  0.00000000000E+00 0.  1.
</event>
<event>
12    1  0.1623092E-001  0.2489645E+03  0.7818608E-02  0.1114132E+00
         21   -1    0    0  503  502  0.00000000000E+00  0.00000000000E+00  0.55315197638E+03  0.55315197638E+03  0.00000000000E+00 0.  1.
         21   -1    0    0  501  503 -0.00000000000E+00 -0.00000000000E+00 -0.17163710209E+03  0.17163710209E+03  0.00000000000E+00 0. -1.
          6    2    1    2  501    0  0.15544518807E+03  0.89799290349E+02 -0.23355346803E+02  0.25005759703E+03  0.17249988570E+03 0.  0.
         24    2    3    3    0    0  0.62095869694E+02  0.99609394504E+02 -0.53106732277E+02  0.15147986972E+03  0.79673693340E+02 0.  0.
         -6    2    1    2    0  502 -0.15544518807E+03 -0.89799290349E+02  0.40487022109E+03  0.47473148144E+03  0.17094725649E+03 0.  0.
        -24    2    5    5    0    0 -0.38328022429E+01 -0.26011086831E+02  0.10962657715E+03  0.13672830138E+03  0.77365205159E+02 0.  0.
          5    1    3    3  501    0  0.93349318371E+02 -0.98101041551E+01  0.29751385473E+02  0.98577727309E+02  0.47000000000E+01 0. -1.
        -11    1    4    4    0    0  0.39554350583E+02  0.75513901881E+02  0.42037336898E+01  0.85349677236E+02  0.00000000000E+00 0.  1.
         12    1    4    4    0    0  0.22541519111E+02  0.24095492623E+02 -0.57310465967E+02  0.66130192483E+02  0.00000000000E+00 0. -1.
         -5    1    5    5    0  502 -0.15161238582E+03 -0.63788203518E+02  0.29524364394E+03  0.33800318006E+03  0.47000000000E+01 0.  1.
         11    1    6    6    0    0 -0.90762667184E+01  0.11751845052E+02  0.94584542255E+02  0.95742989891E+02  0.00000000000E+00 0. -1.
        -12    1    6    6    0    0  0.52434644755E+01 -0.37762931883E+02  0.15042034898E+02  0.40985311490E+02  0.00000000000E+00 0.  1.
</event>
<event>
12    1  0.1623092E-001  0.2764306E+03  0.7818608E-02  0.1097894E+00
         21   -1    0    0  503  502  0.00000000000E+00  0.00000000000E+00  0.17403818370E+03  0.17403818370E+03  0.00000000000E+00 0. -1.
         21   -1    0    0  501  503 -0.00000000000E+00 -0.00000000000E+00 -0.71183179217E+03  0.71183179217E+03  0.00000000000E+00 0. -1.
          6    2    1    2  501    0 -0.33268014554E+02 -0.21200234696E+03 -0.54393618540E+03  0.60937114500E+03  0.17150761694E+03 0.  0.
         24    2    3    3    0    0  0.43530006596E+02 -0.14644338616E+03 -0.37333735979E+03  0.41107348316E+03  0.79120778051E+02 0.  0.
         -6    2    1    2    0  502  0.33268014554E+02  0.21200234696E+03  0.61425769237E+01  0.27649883087E+03  0.17424728494E+03 0.  0.
        -24    2    5    5    0    0  0.52266970575E+02  0.23076399977E+03 -0.83484323088E+00  0.24850357523E+03  0.75957028223E+02 0.  0.
          5    1    3    3  501    0 -0.76798021149E+02 -0.65558960800E+02 -0.17059882561E+03  0.19829766184E+03  0.47000000000E+01 0. -1.
        -11    1    4    4    0    0  0.42617549728E+01  0.74938442911E+01 -0.50717730773E+01  0.10002156760E+02  0.00000000000E+00 0.  1.
         12    1    4    4    0    0  0.39268251623E+02 -0.15393723045E+03 -0.36826558671E+03  0.40107132640E+03  0.00000000000E+00 0. -1.
         -5    1    5    5    0  502 -0.18998956021E+02 -0.18761652810E+02  0.69774201546E+01  0.27995255635E+02  0.47000000000E+01 0.  1.
         11    1    6    6    0    0 -0.15433556729E+02  0.10058164319E+03 -0.14123421693E+01  0.10176864119E+03  0.00000000000E+00 0. -1.
        -12    1    6    6    0    0  0.67700527303E+02  0.13018235658E+03  0.57749893838E+00  0.14673493404E+03  0.00000000000E+00 0.  1.
</event>
<event>
12    1  0.1623092E-001  0.1761243E+03  0.7818608E-02  0.1171680E+00
         21   -1    0    0  503  502  0.00000000000E+00  0.00000000000E+00  0.17448093615E+04  0.17448093615E+04  0.00000000000E+00 0.  1.
         21   -1    0    0  501  503 -0.00000000000E+00 -0.00000000000E+00 -0.32134597379E+02  0.32134597379E+02  0.00000000000E+00 0.  1.
          6    2    1    2  501    0  0.12161227624E+02 -0.15897707557E+02  0.26149179520E+03  0.31511231125E+03  0.17469166317E+03 0.  0.
         24    2    3    3    0    0  0.72490484360E+02 -0.18500649365E-01  0.20086644422E+03  0.22799577085E+03  0.79874103726E+02 0.  0.
         -6    2    1    2    0  502 -0.12161227624E+02  0.15897707557E+02  0.14511829690E+04  0.14618316477E+04  0.17498321108E+03 0.  0.
        -24    2    5    5    0    0  0.23134401473E+02  0.50726564779E+02  0.12650415531E+04  0.12691413588E+04  0.85330373384E+02 0.  0.
          5    1    3    3  501    0 -0.60329256736E+02 -0.15879206908E+02  0.60625350983E+02  0.87116540405E+02  0.47000000000E+01 0. -1.
        -13    1    4    4    0    0  0.66387289807E+01  0.83484509869E+00 -0.71563474821E+01  0.97970913083E+01  0.00000000000E+00 0.  1.
         14    1    4    4    0    0  0.65851755379E+02 -0.85334574805E+00  0.20802279170E+03  0.21819867954E+03  0.00000000000E+00 0. -1.
         -5    1    5    5    0  502 -0.35295629097E+02 -0.34828857222E+02  0.18614141588E+03  0.19269028889E+03  0.47000000000E+01 0.  1.
         13    1    6    6    0    0  0.44703997131E+02  0.23948104147E+02  0.10618927925E+04  0.10631031285E+04  0.00000000000E+00 0. -1.
        -14    1    6    6    0    0 -0.21569595658E+02  0.26778460633E+02  0.20314876057E+03  0.20603823026E+03  0.00000000000E+00 0.  1.
</event>
<event>
12    1  0.1623092E-001  0.1714738E+03  0.7818608E-02  0.1176701E+00
         21   -1    0    0  503  502  0.00000000000E+00  0.00000000000E+00  0.12365306875E+03  0.12365306875E+03  0.00000000000E+00 0. -1.
         21   -1    0    0  501  503 -0.00000000000E+00 -0.00000000000E+00 -0.42911740294E+03  0.42911740294E+03  0.00000000000E+00 0. -1.
          6    2    1    2  501    0 -0.16009200267E+02 -0.78880528074E+01 -0.33790015426E+03  0.37825589701E+03  0.16906357830E+03 0.  0.
         24    2    3    3    0    0  0.34341827619E+02 -0.14548822188E+02 -0.86747270697E+02  0.12197586896E+03  0.77213951353E+02 0.  0.
         -6    2    1    2    0  502  0.16009200267E+02  0.78880528074E+01  0.32435820066E+02  0.17451457468E+03  0.17054248292E+03 0.  0.
        -24    2    5    5    0    0 -0.35349378379E+02  0.22295502849E+02 -0.28882436689E+02  0.93106363612E+02  0.78025199755E+02 0.  0.
          5    1    3    3  501    0 -0.50351027886E+02  0.66607693806E+01 -0.25115288356E+03  0.25628002805E+03  0.47000000000E+01 0. -1.
        -13    1    4    4    0    0  0.93599052063E+01  0.22337477973E+02 -0.70519303295E+02  0.74562342270E+02  0.00000000000E+00 0.  1.
         14    1    4    4    0    0  0.24981922413E+02 -0.36886300161E+02 -0.16227967402E+02  0.47413526688E+02  0.00000000000E+00 0. -1.
         -5    1    5    5    0  502  0.51358578646E+02 -0.14407450042E+02  0.61318256755E+02  0.81408211065E+02  0.47000000000E+01 0.  1.
         11    1    6    6    0    0  0.97927785214E+01 -0.88580811553E+01  0.17049805637E+02  0.21565249481E+02  0.00000000000E+00 0. -1.
        -12    1    6    6    0    0 -0.45142156901E+02  0.31153584005E+02 -0.45932242327E+02  0.71541114131E+02  0.00000000000E+00 0.  1.
</event>
<event>
12    1  0.1623092E-001  0.1913729E+03  0.7818608E-02  0.1157258E+00
         21   -1    0    0  503  502  0.00000000000E+00  0.00000000000E+00  0.13729972939E+04  0.13729972939E+04  0.00000000000E+00 0. -1.
         21   -1    0    0  501  503 -0.00000000000E+00 -0.00000000000E+00 -0.64596319292E+02  0.64596319292E+02  0.00000000000E+00 0. -1.
          6    2    1    2  501    0  0.79563400833E+02 -0.25419032825E+02  0.10323282799E+03  0.21732567643E+03  0.17203770191E+03 0.  0.
         24    2    3    3    0    0  0.21132951308E+01 -0.51767520352E+02  0.17569685828E+02  0.98780218513E+02  0.82246553300E+02 0.  0.
         -6    2    1    2    0  502 -0.79563400833E+02  0.25419032825E+02  0.12051681467E+04  0.12202679368E+04  0.17218337283E+03 0.  0.
        -24    2    5    5    0    0 -0.68397272015E+02  0.74371255571E+02  0.10257397825E+04  0.10338875987E+04  0.81069075396E+02 0.  0.
          5    1    3    3  501    0  0.77450105702E+02  0.26348487527E+02  0.85663142158E+02  0.11854545792E+03  0.47000000000E+01 0. -1.
        -13    1    4    4    0    0  0.34025774192E+02 -0.37716161405E+02  0.33079090452E+02  0.60617558229E+02  0.00000000000E+00 0.  1.
         14    1    4    4    0    0 -0.31912479062E+02 -0.14051358947E+02 -0.15509404625E+02  0.38162660284E+02  0.00000000000E+00 0. -1.
         -5    1    5    5    0  502 -0.11166128818E+02 -0.48952222745E+02  0.17942836418E+03  0.18638033806E+03  0.47000000000E+01 0.  1.
         11    1    6    6    0    0 -0.87119270095E+02  0.58274041086E+02  0.84009390011E+03  0.84660698797E+03  0.00000000000E+00 0. -1.
        -12    1    6    6    0    0  0.18721998081E+02  0.16097214485E+02  0.18564588238E+03  0.18728061078E+03  0.00000000000E+00 0.  1.
</event>
<event>
12    1  0.1623092E-001  0.1956056E+03  0.7818608E-02  0.1153554E+00
         21   -1    0    0  503  502  0.00000000000E+00  0.00000000000E+00  0.69368938286E+03  0.69368938286E+03  0.00000000000E+00 0.  1.
         21   -1    0    0  501  503 -0.00000000000E+00 -0.00000000000E+00 -0.58187343725E+02  0.58187343725E+02  0.00000000000E+00 0.  1.
          6    2    1    2  501    0  0.92129204064E+02  0.66097579344E+01  0.23116131021E+03  0.30281527715E+03  0.17242407488E+03 0.  0.
         24    2    3    3    0    0  0.34753311488E+02 -0.61161639418E+02  0.13051646379E+03  0.16851549883E+03  0.80089869702E+02 0.  0.
         -6    2    1    2    0  502 -0.92129204064E+02 -0.66097579344E+01  0.40434072893E+03  0.44906144943E+03  0.17214319956E+03 0.  0.
        -24    2    5    5    0    0 -0.31550378655E+02 -0.15064550504E+02  0.36660105245E+03  0.37703610122E+03  0.80854949673E+02 0.  0.
          5    1    3    3  501    0  0.57375892576E+02  0.67771397352E+02  0.10064484642E+03  0.13429977832E+03  0.47000000000E+01 0. -1.
        -11    1    4    4    0    0  0.58968167293E+02 -0.27581039332E+02  0.76254285047E+02  0.10026302645E+03  0.00000000000E+00 0.  1.
         12    1    4    4    0    0 -0.24214855805E+02 -0.33580600086E+02  0.54262178745E+02  0.68252472380E+02  0.00000000000E+00 0. -1.
         -5    1    5    5    0  502 -0.60578825408E+02  0.84547925695E+01  0.37739676477E+02  0.72025348217E+02  0.47000000000E+01 0.  1.
         11    1    6    6    0    0  0.18852349825E+02  0.16807452019E+02  0.16071582728E+03  0.16268828684E+03  0.00000000000E+00 0. -1.
        -12    1    6    6    0    0 -0.50402728480E+02 -0.31872002523E+02  0.20588522517E+03  0.21434781437E+03  0.00000000000E+00 0.  1.
</event>
<event>
12    1  0.1623092E-001  0.2285015E+03  0.7818608E-02  0.1127795E+00
         21   -1    0    0  501  502  0.00000000000E+00  0.00000000000E+00  0.51995159352E+03  0.51995159352E+03  0.00000000000E+00 0. -1.
         21   -1    0    0  502  503 -0.00000000000E+00 -0.00000000000E+00 -0.15698219797E+03  0.15698219797E+03  0.00000000000E+00 0. -1.
         -6    2    1    2    0  503  0.68666205092E+02 -0.13350144331E+03  0.38521863777E+03  0.44789096490E+03  0.17226501230E+03 0.  0.
        -24    2    3    3    0    0  0.51416853612E+02 -0.55701205902E+02  0.90927354336E+02  0.14296496310E+03  0.80155347498E+02 0.  0.
          6    2    1    2  501    0 -0.68666205092E+02  0.13350144331E+03 -0.22249242216E+02  0.22904282659E+03  0.17154563401E+03 0.  0.
         24    2    5    5    0    0 -0.42291068031E+02  0.64132631527E+02 -0.74677466675E+02  0.13805662641E+03  0.87071115798E+02 0.  0.
          5    1    5    5  501    0 -0.26375137061E+02  0.69368811783E+02  0.52428224459E+02  0.90986200179E+02  0.47000000000E+01 0. -1.
        -13    1    6    6    0    0  0.14949615506E+01  0.53914914052E+02 -0.37336611997E+01  0.54064712089E+02  0.00000000000E+00 0.  1.
         14    1    6    6    0    0 -0.43786029581E+02  0.10217717475E+02 -0.70943805475E+02  0.83991914326E+02  0.00000000000E+00 0. -1.
         -5    1    3    3    0  503  0.17249351479E+02 -0.77800237408E+02  0.29429128344E+03  0.30492600180E+03  0.47000000000E+01 0.  1.
         11    1    4    4    0    0  0.81233206627E+01 -0.13708791040E+02  0.80122242920E+02  0.81691450599E+02  0.00000000000E+00 0. -1.
        -12    1    4    4    0    0  0.43293532949E+02 -0.41992414862E+02  0.10805111416E+02  0.61273512498E+02  0.00000000000E+00 0.  1.
</event>
<event>
12    1  0.1623092E-001  0.2275039E+03  0.7818608E-02  0.1129360E+00
         21   -1    0    0  503  502  0.00000000000E+00  0.00000000000E+00  0.75049180054E+03  0.75049180054E+03  0.00000000000E+00 0. -1.
         21   -1    0    0  501  503 -0.00000000000E+00 -0.00000000000E+00 -0.83898915238E+02  0.83898915238E+02  0.00000000000E+00 0. -1.
          6    2    1    2  501    0 -0.11294212205E+03 -0.83543449420E+02  0.15131864325E+03  0.27323133383E+03  0.17894859351E+03 0.  0.
         24    2    3    3    0    0 -0.33714603593E+02 -0.34922770370E+02 -0.46468467833E+01  0.91604534615E+02  0.77546909618E+02 0.  0.
         -6    2    1    2    0  502  0.11294212205E+03  0.83543449420E+02  0.51527424205E+03  0.56115938195E+03  0.17221172013E+03 0.  0.
        -24    2    5    5    0    0  0.14047012444E+03  0.99220231880E+02  0.42887523730E+03  0.46901585018E+03  0.80407638192E+02 0.  0.
          5    1    3    3  501    0 -0.79227518458E+02 -0.48620679050E+02  0.15596549003E+03  0.18162679921E+03  0.47000000000E+01 0. -1.
        -13    1    4    4    0    0 -0.29733547344E+02  0.17041860475E+02  0.12891791019E+02  0.36615667709E+02  0.00000000000E+00 0.  1.
         14    1    4    4    0    0 -0.39810562487E+01 -0.51964630844E+02 -0.17538637802E+02  0.54988866906E+02  0.00000000000E+00 0. -1.
         -5    1    5    5    0  502 -0.27528002386E+02 -0.15676782460E+02  0.86399004757E+02  0.92143531768E+02  0.47000000000E+01 0.  1.
         13    1    6    6    0    0  0.38793355839E+02  0.64584746895E+02  0.11697302267E+03  0.13913591205E+03  0.00000000000E+00 0. -1.
        -14    1    6    6    0    0  0.10167676860E+03  0.34635484985E+02  0.31190221463E+03  0.32987993813E+03  0.00000000000E+00 0.  1.
</event>
<event>
12    1  0.1623092E-001  0.2330442E+03  0.7818608E-02  0.1124673E+00
         21   -1    0    0  501  502  0.00000000000E+00  0.00000000000E+00  0.52087308155E+02  0.52087308155E+02  0.00000000000E+00 0. -1.
         21   -1    0    0  502  503 -0.00000000000E+00 -0.00000000000E+00 -0.10491034000E+04  0.10491034000E+04  0.00000000000E+00 0.  1.
         -6    2    1    2    0  503 -0.66947312846E+02 -0.14191322665E+03 -0.44437748239E+03  0.50177776599E+03  0.17230285251E+03 0.  0.
        -24    2    3    3    0    0 -0.38774707895E+02 -0.16259543517E+03 -0.29579436740E+03  0.34906731618E+03  0.80080771287E+02 0.  0.
          6    2    1    2  501    0  0.66947312846E+02  0.14191322665E+03 -0.55263860942E+03  0.59941294214E+03  0.17107055850E+03 0.  0.
         24    2    5    5    0    0 -0.26665713303E+02  0.94695778849E+02 -0.31859206218E+03  0.34291194347E+03  0.80058404269E+02 0.  0.
          5    1    5    5  501    0  0.93613026149E+02  0.47217447801E+02 -0.23404654724E+03  0.25650099867E+03  0.47000000000E+01 0. -1.
        -13    1    6    6    0    0  0.12950738241E+02  0.77772020589E+02 -0.24781756435E+03  0.26005721295E+03  0.00000000000E+00 0.  1.
         14    1    6    6    0    0 -0.39616451544E+02  0.16923758260E+02 -0.70774497825E+02  0.82854730516E+02  0.00000000000E+00 0. -1.
         -5    1    3    3    0  503 -0.28172604950E+02  0.20682208518E+02 -0.14858311499E+03  0.15271044981E+03  0.47000000000E+01 0.  1.
         11    1    4    4    0    0 -0.40744216259E+02 -0.99545211661E+02 -0.11443245089E+03  0.15704816503E+03  0.00000000000E+00 0. -1.
        -12    1    4    4    0    0  0.19695083636E+01 -0.63050223506E+02 -0.18136191651E+03  0.19201915115E+03  0.00000000000E+00 0.  1.
</event>
<event>
12    1  0.1623092E-001  0.1852380E+03  0.7818608E-02  0.1162861E+00
         21   -1    0    0  503  502  0.00000000000E+00  0.00000000000E+00  0.11852895505E+03  0.11852895505E+03  0.00000000000E+00 0. -1.
         21   -1    0    0  501  503 -0.00000000000E+00 -0.00000000000E+00 -0.29439080530E+03  0.29439080530E+03  0.00000000000E+00 0.  1.
          6    2    1    2  501    0  0.39507726254E+02 -0.61238803222E+02 -0.11519491955E+03  0.21813521233E+03  0.17029988230E+03 0.  0.
         24    2    3    3    0    0 -0.27372674009E+02  0.17447413577E+02 -0.36614601247E+02  0.88283508145E+02  0.73482469086E+02 0.  0.
         -6    2    1    2    0  502 -0.39507726254E+02  0.61238803222E+02 -0.60666930698E+02  0.19478454802E+03  0.17014550306E+03 0.  0.
        -24    2    5    5    0    0 -0.86284638682E+02  0.13779466937E+02 -0.34476574833E+02  0.12303154894E+03  0.79455743906E+02 0.  0.
          5    1    3    3  501    0  0.66880400263E+02 -0.78686216799E+02 -0.78580318307E+02  0.12985170418E+03  0.47000000000E+01 0. -1.
        -13    1    4    4    0    0 -0.19981671007E+02 -0.20688928848E+02 -0.40025244097E+02  0.49288123500E+02  0.00000000000E+00 0.  1.
         14    1    4    4    0    0 -0.73910030021E+01  0.38136342425E+02  0.34106428503E+01  0.38995384645E+02  0.00000000000E+00 0. -1.
         -5    1    5    5    0  502  0.46776912428E+02  0.47459336286E+02 -0.26190355865E+02  0.71752999083E+02  0.47000000000E+01 0.  1.
         11    1    6    6    0    0  0.10154434883E+02 -0.12634338667E+02  0.25435210552E+01  0.16407576320E+02  0.00000000000E+00 0. -1.
        -12    1    6    6    0    0 -0.96439073565E+02  0.26413805604E+02 -0.37020095888E+02  0.10662397261E+03  0.00000000000E+00 0.  1.
</event>
<event>
12    1  0.1623092E-001  0.2657899E+03  0.7818608E-02  0.1103915E+00
         21   -1    0    0  501  502  0.00000000000E+00  0.00000000000E+00  0.30511647378E+03  0.30511647378E+03  0.00000000000E+00 0.  1.
         21   -1    0    0  502  503 -0.00000000000E+00 -0.00000000000E+00 -0.72600414204E+03  0.72600414204E+03  0.00000000000E+00 0. -1.
         -6    2    1    2    0  503 -0.19219519207E+03 -0.66495802355E+02 -0.63661321979E+03  0.68987001797E+03  0.17112441820E+03 0.  0.
        -24    2    3    3    0    0 -0.21751642864E+03 -0.63025864456E+02 -0.57853806919E+03  0.62624597685E+03  0.78689705209E+02 0.  0.
          6    2    1    2  501    0  0.19219519207E+03  0.66495802355E+02  0.21572555153E+03  0.34125059785E+03  0.16897861807E+03 0.  0.
         24    2    5    5    0    0  0.13803581694E+03 -0.21346013123E+02  0.13782672323E+03  0.21186845105E+03  0.79890524323E+02 0.  0.
          5    1    5    5  501    0  0.54159375123E+02  0.87841815478E+02  0.77898828300E+02  0.12938214680E+03  0.47000000000E+01 0. -1.
        -13    1    6    6    0    0  0.13777648696E+02 -0.29451452740E+02  0.49410484784E+02  0.59149029397E+02  0.00000000000E+00 0.  1.
         14    1    6    6    0    0  0.12425816825E+03  0.81054396166E+01  0.88416238446E+02  0.15271942165E+03  0.00000000000E+00 0. -1.
         -5    1    3    3    0  503  0.25321236578E+02 -0.34699378998E+01 -0.58075150603E+02  0.63624041120E+02  0.47000000000E+01 0.  1.
         13    1    4    4    0    0 -0.41165361213E+01 -0.10366841292E+02 -0.88130844801E+02  0.88833907227E+02  0.00000000000E+00 0. -1.
        -14    1    4    4    0    0 -0.21339989252E+03 -0.52659023164E+02 -0.49040722438E+03  0.53741206962E+03  0.00000000000E+00 0.  1.
</event>
<event>
12    1  0.1623092E-001  0.2650796E+03  0.7818608E-02  0.1104136E+00
         21   -1    0    0  501  502  0.00000000000E+00  0.00000000000E+00  0.21316336438E+03  0.21316336438E+03  0.00000000000E+00 0. -1.
         21   -1    0    0  502  503 -0.00000000000E+00 -0.00000000000E+00 -0.39192366220E+03  0.39192366220E+03  0.00000000000E+00 0. -1.
         -6    2    1    2    0  503  0.13788788913E+03 -0.14686078705E+03 -0.21003510125E+03  0.33816886280E+03  0.17222739406E+03 0.  0.
        -24    2    3    3    0    0  0.38523393692E+02 -0.11073856220E+03 -0.17504708187E+03  0.22670420659E+03  0.83703257976E+02 0.  0.
          6    2    1    2  501    0 -0.13788788913E+03  0.14686078705E+03  0.31274803432E+02  0.26691816378E+03  0.17229634959E+03 0.  0.
         24    2    5    5    0    0 -0.85244186450E+02  0.14705370467E+03 -0.25545664497E+02  0.18931628091E+03  0.79351810698E+02 0.  0.
          5    1    5    5  501    0 -0.52643702681E+02 -0.19291761592E+00  0.56820467928E+02  0.77601882869E+02  0.47000000000E+01 0. -1.
        -11    1    6    6    0    0 -0.77401188595E+02  0.69180408213E+02 -0.37014535778E+02  0.11021319674E+03  0.00000000000E+00 0.  1.
         12    1    6    6    0    0 -0.78429978549E+01  0.77873296457E+02  0.11468871282E+02  0.79103084169E+02  0.00000000000E+00 0. -1.
         -5    1    3    3    0  503  0.99364495439E+02 -0.36122224855E+02 -0.34988019379E+02  0.11146465620E+03  0.47000000000E+01 0.  1.
         11    1    4    4    0    0 -0.17355217666E+02 -0.52378692035E+02 -0.35993335397E+02  0.65880582515E+02  0.00000000000E+00 0. -1.
        -12    1    4    4    0    0  0.55878611358E+02 -0.58359870164E+02 -0.13905374648E+03  0.16082362408E+03  0.00000000000E+00 0.  1.
</event>
<event>
12    1  0.1623092E-001  0.1713682E+03  0.7818608E-02  0.1176790E+00
         21   -1    0    0  503  502  0.00000000000E+00  0.00000000000E+00  0.15814698253E+03  0.15814698253E+03  0.00000000000E+00 0. -1.
         21   -1    0    0  501  503 -0.00000000000E+00 -0.00000000000E+00 -0.30027724188E+03  0.30027724188E+03  0.00000000000E+00 0. -1.
          6    2    1    2  501    0 -0.74758785250E+01 -0.26754323488E+00 -0.21376307166E+03  0.27397394651E+03  0.17120488374E+03 0.  0.
         24    2    3    3    0    0 -0.63029973413E+02 -0.38792536876E+01 -0.85354838876E+02  0.13393800055E+03  0.81646269449E+02 0.  0.
         -6    2    1    2    0  502  0.74758785250E+01  0.26754323488E+00  0.71632812310E+02  0.18445027791E+03  0.16980778805E+03 0.  0.
        -24    2    5    5    0    0 -0.20846954290E+02  0.60601063625E+02  0.55437789945E+02  0.11569938489E+03  0.78777628131E+02 0.  0.
          5    1    3    3  501    0  0.55554094888E+02  0.36117104527E+01 -0.12840823279E+03  0.14003594595E+03  0.47000000000E+01 0. -1.
        -11    1    4    4    0    0 -0.16406809562E+02  0.13235342719E+02  0.12280976772E+02  0.24396312987E+02  0.00000000000E+00 0.  1.
         12    1    4    4    0    0 -0.46623163851E+02 -0.17114596407E+02 -0.97635815648E+02  0.10954168757E+03  0.00000000000E+00 0. -1.
         -5    1    5    5    0  502  0.28322832815E+02 -0.60333520390E+02  0.16195022365E+02  0.68750893018E+02  0.47000000000E+01 0.  1.
         11    1    6    6    0    0 -0.44184687528E+01  0.88568066150E+01 -0.20258664668E+02  0.22547269982E+02  0.00000000000E+00 0. -1.
        -12    1    6    6    0    0 -0.16428485537E+02  0.51744257010E+02  0.75696454613E+02  0.93152114907E+02  0.00000000000E+00 0.  1.
</event>
<event>
12    1  0.1623092E-001  0.2408413E+03  0.7818608E-02  0.1119777E+00
         21   -1    0    0  503  502  0.00000000000E+00  0.00000000000E+00  0.10665464719E+04  0.10665464719E+04  0.00000000000E+00 0.  1.
         21   -1    0    0  501  503 -0.00000000000E+00 -0.00000000000E+00 -0.76465836188E+02  0.76465836188E+02  0.00000000000E+00 0. -1.
          6    2    1    2  501    0  0.69691451866E+02 -0.15414672111E+03  0.18052503351E+03  0.29839121203E+03  0.16682301280E+03 0.  0.
         24    2    3    3    0    0  0.99905533421E+02 -0.12311683322E+03  0.18356716947E+03  0.25472097894E+03  0.77762466373E+02 0.  0.
         -6    2    1    2    0  502 -0.69691451866E+02  0.15414672111E+03  0.80955560223E+03  0.84462109609E+03  0.17142465623E+03 0.  0.
        -24    2    5    5    0    0 -0.48960382793E+02  0.16974261718E+03  0.78464785825E+03  0.80835134410E+03  0.80931816231E+02 0.  0.
          5    1    3    3  501    0 -0.30214081555E+02 -0.31029887895E+02 -0.30421359526E+01  0.43670233090E+02  0.47000000000E+01 0. -1.
        -13    1    4    4    0    0 -0.35814009451E+01 -0.39641892337E+02  0.66844903002E+02  0.77798117703E+02  0.00000000000E+00 0.  1.
         14    1    4    4    0    0  0.10348693437E+03 -0.83474940882E+02  0.11672226646E+03  0.17692286124E+03  0.00000000000E+00 0. -1.
         -5    1    5    5    0  502 -0.20731069073E+02 -0.15595896071E+02  0.24907743978E+02  0.36269751987E+02  0.47000000000E+01 0.  1.
         11    1    6    6    0    0  0.12140374206E+01  0.56665927894E+02  0.12564204860E+03  0.13783477663E+03  0.00000000000E+00 0. -1.
        -12    1    6    6    0    0 -0.50174420213E+02  0.11307668929E+03  0.65900580965E+03  0.67051656747E+03  0.00000000000E+00 0.  1.
</event>
<event>
12    1  0.1623092E-001  0.3100262E+03  0.7818608E-02  0.1080352E+00
         21   -1    0    0  501  502  0.00000000000E+00  0.00000000000E+00  0.71014030989E+03  0.71014030989E+03  0.00000000000E+00 0.  1.
         21   -1    0    0  502  503 -0.00000000000E+00 -0.00000000000E+00 -0.13531200274E+03  0.13531200274E+03  0.00000000000E+00 0.  1.
         -6    2    1    2    0  503  0.14579630071E+03 -0.21358930168E+03  0.28102711781E+03  0.41832773677E+03  0.17071878429E+03 0.  0.
        -24    2    3    3    0    0  0.65822822127E+02 -0.11911932102E+03  0.66761050945E+02  0.17083557137E+03  0.78776252564E+02 0.  0.
          6    2    1    2  501    0 -0.14579630071E+03  0.21358930168E+03  0.29380118933E+03  0.42712457586E+03  0.17099506823E+03 0.  0.
         24    2    5    5    0    0 -0.16609229217E+03  0.20935237177E+03  0.24650839045E+03  0.37527307954E+03  0.92996949327E+02 0.  0.
          5    1    5    5  501    0  0.20295991460E+02  0.42369299182E+01  0.47292798890E+02  0.51851496327E+02  0.47000000000E+01 0. -1.
        -11    1    6    6    0    0 -0.43973980199E+02  0.57142448930E+01  0.27059364868E+02  0.51947788752E+02  0.00000000000E+00 0.  1.
         12    1    6    6    0    0 -0.12211831197E+03  0.20363812687E+03  0.21944902558E+03  0.32332529079E+03  0.00000000000E+00 0. -1.
         -5    1    3    3    0  503  0.79973478582E+02 -0.94469980663E+02  0.21426606687E+03  0.24749216540E+03  0.47000000000E+01 0.  1.
         11    1    4    4    0    0 -0.16161782233E+02 -0.99504032857E+01  0.27500027505E+00  0.18981289620E+02  0.00000000000E+00 0. -1.
        -12    1    4    4    0    0  0.81984604360E+02 -0.10916891773E+03  0.66486050670E+02  0.15185428175E+03  0.00000000000E+00 0.  1.
</event>
<event>
12    1  0.1623092E-001  0.2010722E+03  0.7818608E-02  0.1149271E+00
         21   -1    0    0  503  502  0.00000000000E+00  0.00000000000E+00  0.31908477474E+03  0.31908477474E+03  0.00000000000E+00 0. -1.
         21   -1    0    0  501  503 -0.00000000000E+00 -0.00000000000E+00 -0.21763435059E+03  0.21763435059E+03  0.00000000000E+00 0. -1.
          6    2    1    2  501    0 -0.10011295999E+03  0.19868044575E+02 -0.12411451700E+03  0.23454441353E+03  0.17084883562E+03 0.  0.
         24    2    3    3    0    0 -0.12704181398E+03  0.42467018361E+02 -0.72264576342E+02  0.17172416886E+03  0.79523273508E+02 0.  0.
         -6    2    1    2    0  502  0.10011295999E+03 -0.19868044575E+02  0.22556494115E+03  0.30217471179E+03  0.17324165151E+03 0.  0.
        -24    2    5    5    0    0  0.10775961720E+03 -0.58219513312E+02  0.19412717397E+03  0.25177898056E+03  0.10346810403E+03 0.  0.
          5    1    3    3  501    0  0.26928853993E+02 -0.22598973786E+02 -0.51849940658E+02  0.62820244665E+02  0.47000000000E+01 0. -1.
        -11    1    4    4    0    0  0.52124273181E+01  0.15095348625E+02 -0.22920287319E+02  0.27935255851E+02  0.00000000000E+00 0.  1.
         12    1    4    4    0    0 -0.13225424130E+03  0.27371669736E+02 -0.49344289023E+02  0.14378891301E+03  0.00000000000E+00 0. -1.
         -5    1    5    5    0  502 -0.76466572062E+01  0.38351468737E+02  0.31437767185E+02  0.50395731231E+02  0.47000000000E+01 0.  1.
         11    1    6    6    0    0  0.11766329398E+03 -0.18273117808E+02  0.14819189552E+03  0.19010364405E+03  0.00000000000E+00 0. -1.
        -12    1    6    6    0    0 -0.99036767824E+01 -0.39946395504E+02  0.45935278451E+02  0.61675336513E+02  0.00000000000E+00 0.  1.
</event>
<event>
12    1  0.1623092E-001  0.2045249E+03  0.7818608E-02  0.1147077E+00
         21   -1    0    0  503  502  0.00000000000E+00  0.00000000000E+00  0.44807326817E+03  0.44807326817E+03  0.00000000000E+00 0.  1.
         21   -1    0    0  501  503 -0.00000000000E+00 -0.00000000000E+00 -0.93331528113E+02  0.93331528113E+02  0.00000000000E+00 0. -1.
          6    2    1    2  501    0  0.10911057144E+03  0.12561681346E+02  0.13643499577E+03  0.24585551691E+03  0.17253264761E+03 0.  0.
         24    2    3    3    0    0  0.77958072073E+02  0.46899829124E+02  0.15429015576E+03  0.19595077418E+03  0.79461932795E+02 0.  0.
         -6    2    1    2    0  502 -0.10911057144E+03 -0.12561681346E+02  0.21830674429E+03  0.29554927937E+03  0.16621861897E+03 0.  0.
        -24    2    5    5    0    0 -0.71492501628E+02 -0.64115155899E+02  0.18606715788E+03  0.22389482489E+03  0.79284136907E+02 0.  0.
          5    1    3    3  501    0  0.31152499366E+02 -0.34338147778E+02 -0.17855159990E+02  0.49904742739E+02  0.47000000000E+01 0. -1.
        -11    1    4    4    0    0  0.18624723050E+02 -0.22473531504E+02  0.31474907035E+02  0.42925629870E+02  0.00000000000E+00 0.  1.
         12    1    4    4    0    0  0.59333349023E+02  0.69373360628E+02  0.12281524872E+03  0.15302514431E+03  0.00000000000E+00 0. -1.
         -5    1    5    5    0  502 -0.37618069811E+02  0.51553474553E+02  0.32239586411E+02  0.71654454479E+02  0.47000000000E+01 0.  1.
         13    1    6    6    0    0 -0.37409106775E+02 -0.65941256092E+02  0.70987492489E+02  0.10386007228E+03  0.00000000000E+00 0. -1.
        -14    1    6    6    0    0 -0.34083394852E+02  0.18261001921E+01  0.11507966539E+03  0.12003475260E+03  0.00000000000E+00 0.  1.
</event>
<event>
12    1  0.1623092E-001  0.1962866E+03  0.7818608E-02  0.1153389E+00
         21   -1    0    0  501  502  0.00000000000E+00  0.00000000000E+00  0.22484862541E+03  0.22484862541E+03  0.00000000000E+00 0. -1.
         21   -1    0    0  502  503 -0.00000000000E+00 -0.00000000000E+00 -0.18674850556E+03  0.18674850556E+03  0.00000000000E+00 0.  1.
         -6    2    1    2    0  503 -0.81750444756E+02  0.48052339155E+02 -0.43704210816E+02  0.19894630964E+03  0.16934406857E+03 0.  0.
        -24    2    3    3    0    0 -0.10155494276E+03 -0.10029191430E+02 -0.12610551774E+02  0.12999278928E+03  0.79530548653E+02 0.  0.
          6    2    1    2  501    0  0.81750444756E+02 -0.48052339155E+02  0.81804330664E+02  0.21265082133E+03  0.17186116717E+03 0.  0.
         24    2    5    5    0    0  0.11732131731E+03 -0.62664047944E+02  0.77229708696E+02  0.17364048713E+03  0.80594766969E+02 0.  0.
          5    1    5    5  501    0 -0.35570872558E+02  0.14611708790E+02  0.45746219680E+01  0.39010334201E+02  0.47000000000E+01 0. -1.
        -13    1    6    6    0    0 -0.17455648840E+01 -0.19112177619E+02 -0.80857612109E+01  0.20825509945E+02  0.00000000000E+00 0.  1.
         14    1    6    6    0    0  0.11906688220E+03 -0.43551870325E+02  0.85315469906E+02  0.15281497718E+03  0.00000000000E+00 0. -1.
         -5    1    3    3    0  503  0.19804498008E+02  0.58081530585E+02 -0.31093659042E+02  0.68953520352E+02  0.47000000000E+01 0.  1.
         13    1    4    4    0    0 -0.40415806635E+02  0.71787493233E+01  0.32276103634E+02  0.52217992432E+02  0.00000000000E+00 0. -1.
        -14    1    4    4    0    0 -0.61139136129E+02 -0.17207940753E+02 -0.44886655408E+02  0.77774796852E+02  0.00000000000E+00 0.  1.
</event>
<event>
12    1  0.1623092E-001  0.2422152E+03  0.7818608E-02  0.1118340E+00
         21   -1    0    0  503  502  0.00000000000E+00  0.00000000000E+00  0.83568522493E+03  0.83568522493E+03  0.00000000000E+00 0.  1.
         21   -1    0    0  501  503 -0.00000000000E+00 -0.00000000000E+00 -0.11452449597E+03  0.11452449597E+03  0.00000000000E+00 0.  1.
          6    2    1    2  501    0  0.12176439685E+03  0.11916892419E+03  0.64901400158E+02  0.25067807834E+03  0.17204507080E+03 0.  0.
         24    2    3    3    0    0  0.15305281951E+03  0.80396186488E+02  0.60695016264E+02  0.20045782100E+03  0.81306461252E+02 0.  0.
         -6    2    1    2    0  502 -0.12176439685E+03 -0.11916892419E+03  0.65625932881E+03  0.69953164256E+03  0.17216390870E+03 0.  0.
        -24    2    5    5    0    0 -0.13688645317E+03 -0.12637071554E+03  0.45604020416E+03  0.49855818595E+03  0.76682058919E+02 0.  0.
          5    1    3    3  501    0 -0.31288422658E+02  0.38772737706E+02  0.42063838940E+01  0.50220257338E+02  0.47000000000E+01 0. -1.
        -13    1    4    4    0    0  0.54028913964E+02  0.64910010205E+02  0.23530029100E+01  0.84486505381E+02  0.00000000000E+00 0.  1.
         14    1    4    4    0    0  0.99023905545E+02  0.15486176283E+02  0.58342013354E+02  0.11597131562E+03  0.00000000000E+00 0. -1.
         -5    1    5    5    0  502  0.15122056318E+02  0.72017913496E+01  0.20021912465E+03  0.20097345661E+03  0.47000000000E+01 0.  1.
         13    1    6    6    0    0 -0.16260447293E+02 -0.32205728210E+02  0.33778038174E+02  0.49422332388E+02  0.00000000000E+00 0. -1.
        -14    1    6    6    0    0 -0.12062600587E+03 -0.94164987333E+02  0.42226216598E+03  0.44913585356E+03  0.00000000000E+00 0.  1.
</event>
<event>
12    1  0.1623092E-001  0.2254512E+03  0.7818608E-02  0.1129912E+00
         21   -1    0    0  503  502  0.00000000000E+00  0.00000000000E+00  0.51352127229E+02  0.51352127229E+02  0.00000000000E+00 0.  1.
         21   -1    0    0  501  503 -0.00000000000E+00 -0.00000000000E+00 -0.19894306789E+04  0.19894306789E+04  0.00000000000E+00 0.  1.
          6    2    1    2  501    0 -0.16636051607E+02  0.14377151891E+03 -0.16927774044E+04  0.17077246866E+04  0.17286195830E+03 0.  0.
         24    2    3    3    0    0 -0.50301222406E+02  0.16178820225E+03 -0.14302365707E+04  0.14423801484E+04  0.78601583972E+02 0.  0.
         -6    2    1    2    0  502  0.16636051607E+02 -0.14377151891E+03 -0.24530114736E+03  0.33305811958E+03  0.17265008040E+03 0.  0.
        -24    2    5    5    0    0  0.27105406131E+02 -0.54614202937E+01 -0.81047769814E+02  0.11802195333E+03  0.81215209921E+02 0.  0.
          5    1    3    3  501    0  0.33665170799E+02 -0.18016683343E+02 -0.26254083366E+03  0.26534453818E+03  0.47000000000E+01 0. -1.
        -11    1    4    4    0    0  0.97887315430E+01  0.86946170729E+02 -0.81797392924E+03  0.82264014294E+03  0.00000000000E+00 0.  1.
         12    1    4    4    0    0 -0.60089953949E+02  0.74842031521E+02 -0.61226264146E+03  0.61974000547E+03  0.00000000000E+00 0. -1.
         -5    1    5    5    0  502 -0.10469354524E+02 -0.13831009861E+03 -0.16425337754E+03  0.21503616625E+03  0.47000000000E+01 0.  1.
         11    1    6    6    0    0 -0.11811483798E+02 -0.30100814952E+02 -0.10938139325E+02  0.34135217916E+02  0.00000000000E+00 0. -1.
        -12    1    6    6    0    0  0.38916889929E+02  0.24639394658E+02 -0.70109630488E+02  0.83886735412E+02  0.00000000000E+00 0.  1.
</event>
<event>
12    1  0.1623092E-001  0.2044639E+03  0.7818608E-02  0.1146070E+00
         21   -1    0    0  501  502  0.00000000000E+00  0.00000000000E+00  0.60839346971E+02  0.60839346971E+02  0.00000000000E+00 0. -1.
         21   -1    0    0  502  503 -0.00000000000E+00 -0.00000000000E+00 -0.78859392636E+03  0.78859392636E+03  0.00000000000E+00 0. -1.
         -6    2    1    2    0  503 -0.99334502074E+02 -0.45493319360E+02 -0.21084197465E+03  0.29355188138E+03  0.17257283500E+03 0.  0.
        -24    2    3    3    0    0 -0.49400997251E+01 -0.18463247395E+02 -0.16654516237E+03  0.18573154209E+03  0.79960105874E+02 0.  0.
          6    2    1    2  501    0  0.99334502074E+02  0.45493319360E+02 -0.51691260474E+03  0.55588139195E+03  0.17282504324E+03 0.  0.
         24    2    5    5    0    0  0.27216203337E+02  0.75954505023E+02 -0.29974954977E+03  0.32499004242E+03  0.96223315921E+02 0.  0.
          5    1    5    5  501    0  0.72118298737E+02 -0.30461185663E+02 -0.21716305497E+03  0.23089134953E+03  0.47000000000E+01 0. -1.
        -11    1    6    6    0    0 -0.56716696818E+01  0.48106510288E+02 -0.43383361655E+02  0.65027073112E+02  0.00000000000E+00 0.  1.
         12    1    6    6    0    0  0.32887873019E+02  0.27847994735E+02 -0.25636618811E+03  0.25996296931E+03  0.00000000000E+00 0. -1.
         -5    1    3    3    0  503 -0.94394402349E+02 -0.27030071966E+02 -0.44296812282E+02  0.10782033928E+03  0.47000000000E+01 0.  1.
         13    1    4    4    0    0 -0.24679595882E+02 -0.41024075351E+02 -0.12956463279E+03  0.13812693902E+03  0.00000000000E+00 0. -1.
        -14    1    4    4    0    0  0.19739496157E+02  0.22560827956E+02 -0.36980529572E+02  0.47604603076E+02  0.00000000000E+00 0.  1.
</event>
<event>
12    1  0.1623092E-001  0.1912803E+03  0.7818608E-02  0.1157516E+00
         21   -1    0    0  503  502  0.00000000000E+00  0.00000000000E+00  0.50700796075E+03  0.50700796075E+03  0.00000000000E+00 0. -1.
         21   -1    0    0  501  503 -0.00000000000E+00 -0.00000000000E+00 -0.71871223499E+02  0.71871223499E+02  0.00000000000E+00 0. -1.
          6    2    1    2  501    0 -0.22076113979E+02 -0.79009363115E+02  0.22574639515E+03  0.29588781147E+03  0.17279562433E+03 0.  0.
         24    2    3    3    0    0 -0.77946312361E+02 -0.51794846574E+02  0.19419997186E+03  0.22603528253E+03  0.67970479875E+02 0.  0.
         -6    2    1    2    0  502  0.22076113979E+02  0.79009363115E+02  0.20939034211E+03  0.28299137278E+03  0.17178465424E+03 0.  0.
        -24    2    5    5    0    0  0.57088675632E+02  0.97498979286E+02  0.10909854131E+03  0.17506417191E+03  0.77329197103E+02 0.  0.
          5    1    3    3  501    0  0.55870198382E+02 -0.27214516541E+02  0.31546423290E+02  0.69852528946E+02  0.47000000000E+01 0. -1.
        -11    1    4    4    0    0 -0.64085215332E+02 -0.27300942917E+01  0.11889477443E+03  0.13509380306E+03  0.00000000000E+00 0.  1.
         12    1    4    4    0    0 -0.13861097030E+02 -0.49064752282E+02  0.75305197426E+02  0.90941479462E+02  0.00000000000E+00 0. -1.
         -5    1    5    5    0  502 -0.35012561653E+02 -0.18489616171E+02  0.10029180080E+03  0.10792720087E+03  0.47000000000E+01 0.  1.
         11    1    6    6    0    0  0.28520833073E+02  0.80498709607E+02  0.32169930181E+02  0.91259983429E+02  0.00000000000E+00 0. -1.
        -12    1    6    6    0    0  0.28567842559E+02  0.17000269679E+02  0.76928611124E+02  0.83804188482E+02  0.00000000000E+00 0.  1.
</event>
<event>
12    1  0.1623092E-001  0.2061418E+03  0.7818608E-02  0.1144907E+00
         21   -1    0    0  501  502  0.00000000000E+00  0.00000000000E+00  0.27644279881E+02  0.27644279881E+02  0.00000000000E+00 0.  1.
         21   -1    0    0  502  503 -0.00000000000E+00 -0.00000000000E+00 -0.16584605638E+04  0.16584605638E+04  0.00000000000E+00 0.  1.
         -6    2    1    2    0  503  0.93478620421E+01  0.11274137130E+03 -0.57679346313E+03  0.61211296688E+03  0.17086130569E+03 0.  0.
        -24    2    3    3    0    0  0.64941252981E+02  0.10839396381E+03 -0.43159406016E+03  0.45650293606E+03  0.78453044153E+02 0.  0.
          6    2    1    2  501    0 -0.93478620421E+01 -0.11274137130E+03 -0.10540228208E+04  0.10739918768E+04  0.17232656605E+03 0.  0.
         24    2    5    5    0    0 -0.55466517382E+02 -0.14986193824E+02 -0.44897845847E+03  0.45935070061E+03  0.78232278681E+02 0.  0.
          5    1    5    5  501    0  0.46118655340E+02 -0.97755177479E+02 -0.60504436229E+03  0.61464117617E+03  0.47000000000E+01 0. -1.
        -11    1    6    6    0    0 -0.64409014251E+01  0.84484890353E+01 -0.30918824322E+03  0.30937070307E+03  0.00000000000E+00 0.  1.
         12    1    6    6    0    0 -0.49025615957E+02 -0.23434682859E+02 -0.13979021525E+03  0.14997999754E+03  0.00000000000E+00 0. -1.
         -5    1    3    3    0  503 -0.55593390939E+02  0.43474074888E+01 -0.14519940298E+03  0.15561003082E+03  0.47000000000E+01 0.  1.
         11    1    4    4    0    0 -0.61109296196E+01  0.11080041811E+02 -0.14578703562E+03  0.14633513092E+03  0.00000000000E+00 0. -1.
        -12    1    4    4    0    0  0.71052182600E+02  0.97313922003E+02 -0.28580702454E+03  0.31016780514E+03  0.00000000000E+00 0.  1.
</event>
<event>
12    1  0.1623092E-001  0.1859328E+03  0.7818608E-02  0.1162403E+00
         21   -1    0    0  503  502  0.00000000000E+00  0.00000000000E+00  0.16010608049E+02  0.16010608049E+02  0.00000000000E+00 0.  1.
         21   -1    0    0  501  503 -0.00000000000E+00 -0.00000000000E+00 -0.24297474962E+04  0.24297474962E+04  0.00000000000E+00 0.  1.
          6    2    1    2  501    0  0.51527215564E+02  0.43873588819E+02 -0.16203842844E+04  0.16309088083E+04  0.17215796857E+03 0.  0.
         24    2    3    3    0    0  0.82224837058E+02  0.40142281163E+02 -0.69115768285E+03  0.70115591982E+03  0.74487279244E+02 0.  0.
         -6    2    1    2    0  502 -0.51527215564E+02 -0.43873588819E+02 -0.79335260381E+03  0.81484929600E+03  0.17317931597E+03 0.  0.
        -24    2    5    5    0    0  0.68240201842E+01 -0.27835632586E+02 -0.20459280092E+03  0.22296900552E+03  0.83878325828E+02 0.  0.
          5    1    3    3  501    0 -0.30697621494E+02  0.37313076566E+01 -0.92922660151E+03  0.92975288845E+03  0.47000000000E+01 0. -1.
        -11    1    4    4    0    0 -0.39331917404E+01 -0.22465624628E+01 -0.13916793962E+01  0.47385453156E+01  0.00000000000E+00 0.  1.
         12    1    4    4    0    0  0.86158028799E+02  0.42388843625E+02 -0.68976600346E+03  0.69641737451E+03  0.00000000000E+00 0. -1.
         -5    1    5    5    0  502 -0.58351235749E+02 -0.16037956234E+02 -0.58875980289E+03  0.59188029048E+03  0.47000000000E+01 0.  1.
         11    1    6    6    0    0  0.44781188051E+02 -0.85424382430E+01 -0.94270668314E+02  0.10471526612E+03  0.00000000000E+00 0. -1.
        -12    1    6    6    0    0 -0.37957167867E+02 -0.19293194343E+02 -0.11032213260E+03  0.11825373940E+03  0.00000000000E+00 0.  1.
</event>
<event>
12    1  0.1623092E-001  0.1757958E+03  0.7818608E-02  0.1172053E+00
         21   -1    0    0  501  502  0.00000000000E+00  0.00000000000E+00  0.19191511314E+03  0.19191511314E+03  0.00000000000E+00 0. -1.
         21   -1    0    0  502  503 -0.00000000000E+00 -0.00000000000E+00 -0.26156428327E+03  0.26156428327E+03  0.00000000000E+00 0. -1.
         -6    2    1    2    0  503  0.85350401214E+01 -0.34308673502E+02 -0.17572660630E+03  0.24856386941E+03  0.17220402151E+03 0.  0.
        -24    2    3    3    0    0  0.27126043571E+02  0.82849167722E+01 -0.18157974462E+03  0.20148745737E+03  0.82592552563E+02 0.  0.
          6    2    1    2  501    0 -0.85350401214E+01  0.34308673502E+02  0.10607743617E+03  0.20491552701E+03  0.17172075808E+03 0.  0.
         24    2    5    5    0    0  0.23262267360E+02  0.14464915979E+02 -0.69326973474E+01  0.85759227327E+02  0.80970463146E+02 0.  0.
          5    1    5    5  501    0 -0.31797307482E+02  0.19843757523E+02  0.11301013352E+03  0.11915629968E+03  0.47000000000E+01 0. -1.
        -13    1    6    6    0    0  0.70959382994E+00  0.20901794044E+02 -0.40047966387E+02  0.45179952738E+02  0.00000000000E+00 0.  1.
         14    1    6    6    0    0  0.22552673530E+02 -0.64368780654E+01  0.33115269040E+02  0.40579274589E+02  0.00000000000E+00 0. -1.
         -5    1    3    3    0  503 -0.18591003450E+02 -0.42593590274E+02  0.58531383141E+01  0.47076412032E+02  0.47000000000E+01 0.  1.
         13    1    4    4    0    0  0.55710206662E+02  0.54308527443E+01 -0.94969314954E+02  0.11023743498E+03  0.00000000000E+00 0. -1.
        -14    1    4    4    0    0 -0.28584163091E+02  0.28540640279E+01 -0.86610429662E+02  0.91250022396E+02  0.00000000000E+00 0.  1.
</event>
<event>
12    1  0.1623092E-001  0.2108711E+03  0.7818608E-02  0.1143629E+00
         21   -1    0    0  503  502  0.00000000000E+00  0.00000000000E+00  0.92767081203E+03  0.92767081203E+03  0.00000000000E+00 0.  1.
         21   -1    0    0  501  503 -0.00000000000E+00 -0.00000000000E+00 -0.61323761685E+02  0.61323761685E+02  0.00000000000E+00 0.  1.
          6    2    1    2  501    0  0.91212916471E+02  0.27976417386E+02  0.16701535002E+03  0.25856219343E+03  0.17279411063E+03 0.  0.
         24    2    3    3    0    0  0.21820808053E+02  0.24121980495E+02  0.85990599196E+01  0.85507484265E+02  0.78610231056E+02 0.  0.
         -6    2    1    2    0  502 -0.91212916471E+02 -0.27976417386E+02  0.69933170032E+03  0.73043238028E+03  0.18805360680E+03 0.  0.
        -24    2    5    5    0    0  0.14197037414E+02 -0.53242053471E+02  0.27298750403E+03  0.29049934622E+03  0.82652408739E+02 0.  0.
          5    1    3    3  501    0  0.69392108418E+02  0.38544368909E+01  0.15841629010E+03  0.17305470916E+03  0.47000000000E+01 0. -1.
        -13    1    4    4    0    0  0.17575177039E+02  0.18690369103E+02  0.43190468378E+02  0.50235777130E+02  0.00000000000E+00 0.  1.
         14    1    4    4    0    0  0.42456310145E+01  0.54316113925E+01 -0.34591408459E+02  0.35271707135E+02  0.00000000000E+00 0. -1.
         -5    1    5    5    0  502 -0.10540995389E+03  0.25265636085E+02  0.42634419629E+03  0.43993303406E+03  0.47000000000E+01 0.  1.
         11    1    6    6    0    0  0.48597628945E+02 -0.36016806465E+02  0.15433848662E+03  0.16576884008E+03  0.00000000000E+00 0. -1.
        -12    1    6    6    0    0 -0.34400591531E+02 -0.17225247006E+02  0.11864901741E+03  0.12473050615E+03  0.00000000000E+00 0.  1.
</event>
<event>
12    1  0.1623092E-001  0.2391536E+03  0.7818608E-02  0.1121387E+00
         21   -1    0    0  501  502  0.00000000000E+00  0.00000000000E+00  0.38632505653E+03  0.38632505653E+03  0.00000000000E+00 0. -1.
         21   -1    0    0  502  503 -0.00000000000E+00 -0.00000000000E+00 -0.15210297567E+03  0.15210297567E+03  0.00000000000E+00 0. -1.
         -6    2    1    2    0  503  0.12734081325E+03 -0.10668942293E+03  0.54772846733E+02  0.23943563431E+03  0.16349630746E+03 0.  0.
        -24    2    3    3    0    0  0.13999999613E+03 -0.85467302907E+02  0.83721786875E+02  0.20108508770E+03  0.80754047054E+02 0.  0.
          6    2    1    2  501    0 -0.12734081325E+03  0.10668942293E+03  0.17944923412E+03  0.29899239789E+03  0.17203520187E+03 0.  0.
         24    2    5    5    0    0 -0.10463195919E+03  0.26407098721E+02  0.16892791786E+03  0.21476810372E+03  0.77094196891E+02 0.  0.
          5    1    5    5  501    0 -0.22708854058E+02  0.80282324206E+02  0.10521316263E+02  0.84224294170E+02  0.47000000000E+01 0. -1.
        -11    1    6    6    0    0  0.30762557745E+01 -0.14943562596E+02  0.33822285576E+02  0.37104183244E+02  0.00000000000E+00 0.  1.
         12    1    6    6    0    0 -0.10770821497E+03  0.41350661317E+02  0.13510563229E+03  0.17766392047E+03  0.00000000000E+00 0. -1.
         -5    1    3    3    0  503 -0.12659182884E+02 -0.21222120020E+02 -0.28948940142E+02  0.38350546604E+02  0.47000000000E+01 0.  1.
         13    1    4    4    0    0  0.74604778982E+02 -0.26508594259E+02 -0.59322332699E+00  0.79176578168E+02  0.00000000000E+00 0. -1.
        -14    1    4    4    0    0  0.65395217152E+02 -0.58958708649E+02  0.84315010202E+02  0.12190850954E+03  0.00000000000E+00 0.  1.
</event>
<event>
12    1  0.1623092E-001  0.2162314E+03  0.7818608E-02  0.1136760E+00
         21   -1    0    0  501  502  0.00000000000E+00  0.00000000000E+00  0.92667975263E+02  0.92667975263E+02  0.00000000000E+00 0.  1.
         21   -1    0    0  502  503 -0.00000000000E+00 -0.00000000000E+00 -0.98358139679E+03  0.98358139679E+03  0.00000000000E+00 0. -1.
         -6    2    1    2    0  503  0.93604284377E+02  0.90898814473E+02 -0.82126558084E+03  0.84925449189E+03  0.17242877137E+03 0.  0.
        -24    2    3    3    0    0  0.37208737569E+02  0.11887898447E+03 -0.47889456523E+03  0.50111177698E+03  0.79096809811E+02 0.  0.
          6    2    1    2  501    0 -0.93604284377E+02 -0.90898814473E+02 -0.69647840682E+02  0.22699488016E+03  0.17219610153E+03 0.  0.
         24    2    5    5    0    0 -0.59815276093E+02 -0.36865893716E+01 -0.84942239757E+02  0.13210716794E+03  0.81520926944E+02 0.  0.
          5    1    5    5  501    0 -0.33789008283E+02 -0.87212225101E+02  0.15294399075E+02  0.94887712223E+02  0.47000000000E+01 0. -1.
        -13    1    6    6    0    0 -0.14182495359E+02  0.34833007667E+02 -0.51161176039E+02  0.63497618313E+02  0.00000000000E+00 0.  1.
         14    1    6    6    0    0 -0.45632780734E+02 -0.38519597038E+02 -0.33781063718E+02  0.68609549623E+02  0.00000000000E+00 0. -1.
         -5    1    3    3    0  503  0.56395546808E+02 -0.27980170002E+02 -0.34237101561E+03  0.34814271491E+03  0.47000000000E+01 0.  1.
         11    1    4    4    0    0  0.10399129565E+02  0.74422039538E+02 -0.39771323216E+03  0.40475004249E+03  0.00000000000E+00 0. -1.
        -12    1    4    4    0    0  0.26809608004E+02  0.44456944937E+02 -0.81181333073E+02  0.96361734490E+02  0.00000000000E+00 0.  1.
</event>
<event>
12    1  0.1623092E-001  0.1767777E+03  0.7818608E-02  0.1171603E+00
         21   -1    0    0  501  502  0.00000000000E+00  0.00000000000E+00  0.18195542570E+03  0.18195542570E+03  0.00000000000E+00 0.  1.
         21   -1    0    0  502  503 -0.00000000000E+00 -0.00000000000E+00 -0.17598403899E+03  0.17598403899E+03  0.00000000000E+00 0.  1.
         -6    2    1    2    0  503  0.21174072660E+02  0.22643396417E+02  0.37979820725E+02  0.17828727720E+03  0.17141418166E+03 0.  0.
        -24    2    3    3    0    0 -0.45421340476E+02 -0.48181179554E+00 -0.12504492914E+02  0.91451338614E+02  0.78381468971E+02 0.  0.
          6    2    1    2  501    0 -0.21174072660E+02 -0.22643396417E+02 -0.32008434020E+02  0.17965218749E+03  0.17403822531E+03 0.  0.
         24    2    5    5    0    0  0.37225517097E+02  0.13121132597E+02  0.23459981765E+02  0.91399999026E+02  0.79029651611E+02 0.  0.
          5    1    5    5  501    0 -0.58399589757E+02 -0.35764529013E+02 -0.55468415785E+02  0.88252188466E+02  0.47000000000E+01 0. -1.
        -11    1    6    6    0    0  0.27561344224E+02 -0.27031172746E+02  0.30885107508E+02  0.49438869943E+02  0.00000000000E+00 0.  1.
         12    1    6    6    0    0  0.96641728733E+01  0.40152305343E+02 -0.74251257425E+01  0.41961129084E+02  0.00000000000E+00 0. -1.
         -5    1    3    3    0  503  0.66595413136E+02  0.23125208212E+02  0.50484313639E+02  0.86835938581E+02  0.47000000000E+01 0.  1.
         13    1    4    4    0    0  0.81313729945E+01  0.71029378862E+01  0.23919254510E+02  0.26243126523E+02  0.00000000000E+00 0. -1.
        -14    1    4    4    0    0 -0.53552713471E+02 -0.75847496817E+01 -0.36423747424E+02  0.65208212092E+02  0.00000000000E+00 0.  1.
</event>
<event>
12    1  0.1623092E-001  0.1858103E+03  0.7818608E-02  0.1162696E+00
         21   -1    0    0  501  502  0.00000000000E+00  0.00000000000E+00  0.39781918271E+03  0.39781918271E+03  0.00000000000E+00 0. -1.
         21   -1    0    0  502  503 -0.00000000000E+00 -0.00000000000E+00 -0.12334492252E+03  0.12334492252E+03  0.00000000000E+00 0. -1.
         -6    2    1    2    0  503  0.65285320668E+02 -0.46094441901E+01 -0.57261887245E+01  0.18589854524E+03  0.17390244339E+03 0.  0.
        -24    2    3    3    0    0 -0.30042935439E+02 -0.15571409548E+01  0.20366059137E+02  0.86905169881E+02  0.78947637897E+02 0.  0.
          6    2    1    2  501    0 -0.65285320668E+02  0.46094441901E+01  0.28020044891E+03  0.33526555999E+03  0.17206767294E+03 0.  0.
         24    2    5    5    0    0  0.14824340751E+02  0.39064009706E+02  0.87913319480E+02  0.12407582282E+03  0.76943486628E+02 0.  0.
          5    1    5    5  501    0 -0.80109661419E+02 -0.34454565516E+02  0.19228712943E+03  0.21118973716E+03  0.47000000000E+01 0. -1.
        -13    1    6    6    0    0  0.21818478967E+02 -0.16565515745E+02  0.12520176965E+02  0.30120045942E+02  0.00000000000E+00 0.  1.
         14    1    6    6    0    0 -0.69941382160E+01  0.55629525450E+02  0.75393142515E+02  0.93955776882E+02  0.00000000000E+00 0. -1.
         -5    1    3    3    0  503  0.95328256107E+02 -0.30523032353E+01 -0.26092247861E+02  0.98993375364E+02  0.47000000000E+01 0.  1.
         11    1    4    4    0    0  0.18418232735E+02 -0.84599716852E+01 -0.16083890735E+02  0.25874581333E+02  0.00000000000E+00 0. -1.
        -12    1    4    4    0    0 -0.48461168174E+02  0.69028307304E+01  0.36449949871E+02  0.61030588548E+02  0.00000000000E+00 0.  1.
</event>
<event>
12    1  0.1623092E-001  0.2023047E+03  0.7818608E-02  0.1148163E+00
         21   -1    0    0  503  502  0.00000000000E+00  0.00000000000E+00  0.82773185500E+03  0.82773185500E+03  0.00000000000E+00 0.  1.
         21   -1    0    0  501  503 -0.00000000000E+00 -0.00000000000E+00 -0.77722286729E+02  0.77722286729E+02  0.00000000000E+00 0.  1.
          6    2    1    2  501    0  0.10593617925E+03 -0.37948666942E+01  0.98945237529E+02  0.22368294107E+03  0.17031448267E+03 0.  0.
         24    2    3    3    0    0  0.98659822322E+02 -0.22768443376E+02  0.81618861796E+01  0.13053440987E+03  0.81978370437E+02 0.  0.
         -6    2    1    2    0  502 -0.10593617925E+03  0.37948666942E+01  0.65106433074E+03  0.68177120066E+03  0.17230882798E+03 0.  0.
        -24    2    5    5    0    0 -0.46751766285E+02 -0.46469252757E+02  0.20881255769E+03  0.23273000299E+03  0.78838131245E+02 0.  0.
          5    1    3    3  501    0  0.72763569320E+01  0.18973576682E+02  0.90783351349E+02  0.93148531199E+02  0.47000000000E+01 0. -1.
        -13    1    4    4    0    0  0.25754876896E+02  0.30180240422E+02 -0.27573969751E+01  0.39771394670E+02  0.00000000000E+00 0.  1.
         14    1    4    4    0    0  0.72904945426E+02 -0.52948683799E+02  0.10919283155E+02  0.90763015200E+02  0.00000000000E+00 0. -1.
         -5    1    5    5    0  502 -0.59184412969E+02  0.50264119451E+02  0.44225177305E+03  0.44904119767E+03  0.47000000000E+01 0.  1.
         13    1    6    6    0    0  0.21791602894E+02 -0.18881158299E+02  0.61714860712E+02  0.68118251065E+02  0.00000000000E+00 0. -1.
        -14    1    6    6    0    0 -0.68543369179E+02 -0.27588094458E+02  0.14709769698E+03  0.16461175192E+03  0.00000000000E+00 0.  1.
</event>
<event>
12    1  0.1623092E-001  0.1987988E+03  0.7818608E-02  0.1151160E+00
         21   -1    0    0  503  502  0.00000000000E+00  0.00000000000E+00  0.97793487135E+02  0.97793487135E+02  0.00000000000E+00 0.  1.
         21   -1    0    0  501  503 -0.00000000000E+00 -0.00000000000E+00 -0.77538256752E+03  0.77538256752E+03  0.00000000000E+00 0.  1.
          6    2    1    2  501    0 -0.59355273620E+02 -0.73725556058E+02 -0.64161288598E+03  0.67114817610E+03  0.17266809984E+03 0.  0.
         24    2    3    3    0    0 -0.60820737670E+02 -0.55668578996E+02 -0.20960116578E+03  0.23873122639E+03  0.79131516719E+02 0.  0.
         -6    2    1    2    0  502  0.59355273620E+02  0.73725556058E+02 -0.35976194402E+02  0.20202787855E+03  0.17482125451E+03 0.  0.
        -24    2    5    5    0    0  0.67254397543E+02 -0.10688729378E+02 -0.73645513833E+00  0.11009259171E+03  0.86501060444E+02 0.  0.
          5    1    3    3  501    0  0.14654640502E+01 -0.18056977062E+02 -0.43201172020E+03  0.43241694971E+03  0.47000000000E+01 0. -1.
        -13    1    4    4    0    0 -0.16172896554E+02 -0.51326423185E+02 -0.17192320745E+03  0.18014869847E+03  0.00000000000E+00 0.  1.
         14    1    4    4    0    0 -0.44647841116E+02 -0.43421558104E+01 -0.37677958326E+02  0.58582527916E+02  0.00000000000E+00 0. -1.
         -5    1    5    5    0  502 -0.78991239233E+01  0.84414285436E+02 -0.35239739263E+02  0.91935286848E+02  0.47000000000E+01 0.  1.
         11    1    6    6    0    0 -0.18306886106E+02 -0.12797462026E+02 -0.90548810772E+01  0.24102032788E+02  0.00000000000E+00 0. -1.
        -12    1    6    6    0    0  0.85561283649E+02  0.21087326480E+01  0.83184259389E+01  0.85990558918E+02  0.00000000000E+00 0.  1.
</event>
<event>
12    1  0.1623092E-001  0.2391644E+03  0.7818608E-02  0.1121078E+00
         21   -1    0    0  503  502  0.00000000000E+00  0.00000000000E+00  0.65403593377E+03  0.65403593377E+03  0.00000000000E+00 0. -1.
         21   -1    0    0  501  503 -0.00000000000E+00 -0.00000000000E+00 -0.91761308611E+02  0.91761308611E+02  0.00000000000E+00 0.  1.
          6    2    1    2  501    0 -0.36951764208E+02  0.16250798483E+03  0.18441517414E+03  0.29860891667E+03  0.16548126978E+03 0.  0.
         24    2    3    3    0    0  0.35804829514E+02  0.86695423801E+02  0.59268195800E+02  0.13513132637E+03  0.77134129989E+02 0.  0.
         -6    2    1    2    0  502  0.36951764208E+02 -0.16250798483E+03  0.37785945102E+03  0.44718832571E+03  0.17153820542E+03 0.  0.
        -24    2    5    5    0    0  0.19739758038E+01 -0.83949395274E+02  0.32673399626E+03  0.34703444511E+03  0.81402728683E+02 0.  0.
          5    1    3    3  501    0 -0.72756593722E+02  0.75812561031E+02  0.12514697834E+03  0.16347759029E+03  0.47000000000E+01 0. -1.
        -13    1    4    4    0    0  0.17873085044E+02 -0.11615682980E+02  0.13369154819E+02  0.25161588993E+02  0.00000000000E+00 0.  1.
         14    1    4    4    0    0  0.17931744470E+02  0.98311106781E+02  0.45899040981E+02  0.10996973738E+03  0.00000000000E+00 0. -1.
         -5    1    5    5    0  502  0.34977788404E+02 -0.78558589559E+02  0.51125454760E+02  0.10015388060E+03  0.47000000000E+01 0.  1.
         11    1    6    6    0    0  0.28970640861E+02 -0.58720580800E+02  0.11705049398E+03  0.13412018037E+03  0.00000000000E+00 0. -1.
        -12    1    6    6    0    0 -0.26996665057E+02 -0.25228814474E+02  0.20968350228E+03  0.21291426474E+03  0.00000000000E+00 0.  1.
</event>
<event>
12    1  0.1623092E-001  0.1811905E+03  0.7818608E-02  0.1166893E+00
         21   -1    0    0  501  502  0.00000000000E+00  0.00000000000E+00  0.59632870105E+02  0.59632870105E+02  0.00000000000E+00 0. -1.
         21   -1    0    0  502  503 -0.00000000000E+00 -0.00000000000E+00 -0.81904570021E+03  0.81904570021E+03  0.00000000000E+00 0. -1.
         -6    2    1    2    0  503 -0.14184221038E+02  0.51951511531E+02 -0.63196322272E+03  0.65715336700E+03  0.17196767490E+03 0.  0.
        -24    2    3    3    0    0 -0.69840990559E+02  0.20859009932E+02 -0.48122806501E+03  0.49342310890E+03  0.81074358331E+02 0.  0.
          6    2    1    2  501    0  0.14184221038E+02 -0.51951511531E+02 -0.12744960738E+03  0.22152520332E+03  0.17300249017E+03 0.  0.
         24    2    5    5    0    0 -0.23596064373E+02 -0.92725676456E+02 -0.99052014368E+02  0.15892811249E+03  0.79322241903E+02 0.  0.
          5    1    5    5  501    0  0.37780285411E+02  0.40774164925E+02 -0.28397593016E+02  0.62597090828E+02  0.47000000000E+01 0. -1.
        -11    1    6    6    0    0 -0.26067007783E+01 -0.73608129431E+02 -0.22088483444E+02  0.76895075968E+02  0.00000000000E+00 0.  1.
         12    1    6    6    0    0 -0.20989363594E+02 -0.19117547025E+02 -0.76963530924E+02  0.82033036520E+02  0.00000000000E+00 0. -1.
         -5    1    3    3    0  503  0.55656769521E+02  0.31092501599E+02 -0.15073515771E+03  0.16373025810E+03  0.47000000000E+01 0.  1.
         13    1    4    4    0    0 -0.57726338795E+02 -0.23875589397E+02 -0.26108010422E+03  0.26844961311E+03  0.00000000000E+00 0. -1.
        -14    1    4    4    0    0 -0.12114651764E+02  0.44734599330E+02 -0.22014796080E+03  0.22497349579E+03  0.00000000000E+00 0.  1.
</event>
<event>
12    1  0.1623092E-001  0.2089411E+03  0.7818608E-02  0.1142416E+00
         21   -1    0    0  501  502  0.00000000000E+00  0.00000000000E+00  0.34737537309E+03  0.34737537309E+03  0.00000000000E+00 0. -1.
         21   -1    0    0  502  503 -0.00000000000E+00 -0.00000000000E+00 -0.24127120915E+03  0.24127120915E+03  0.00000000000E+00 0. -1.
         -6    2    1    2    0  503  0.11905860567E+03 -0.99247823595E+01 -0.15069278521E+03  0.25761350572E+03  0.17141455576E+03 0.  0.
        -24    2    3    3    0    0  0.10113388458E+03  0.37834380126E+02 -0.15370939407E+03  0.20629661614E+03  0.85277271729E+02 0.  0.
          6    2    1    2  501    0 -0.11905860567E+03  0.99247823595E+01  0.25679694915E+03  0.33103307651E+03  0.17136152359E+03 0.  0.
         24    2    5    5    0    0 -0.15103768866E+03 -0.29248689695E+01  0.18819198723E+03  0.25411424859E+03  0.79604579188E+02 0.  0.
          5    1    5    5  501    0  0.31979082993E+02  0.12849651329E+02  0.68604961921E+02  0.76918827920E+02  0.47000000000E+01 0. -1.
        -11    1    6    6    0    0 -0.77889740531E+01  0.51442053771E+01 -0.71393406058E+01  0.11751644568E+02  0.00000000000E+00 0.  1.
         12    1    6    6    0    0 -0.14324871461E+03 -0.80690743466E+01  0.19533132783E+03  0.24236260403E+03  0.00000000000E+00 0. -1.
         -5    1    3    3    0  503  0.17924721087E+02 -0.47759162485E+02  0.30166088605E+01  0.51316889582E+02  0.47000000000E+01 0.  1.
         11    1    4    4    0    0  0.45000877312E+02 -0.21057076097E+02 -0.90608443286E+02  0.10333619602E+03  0.00000000000E+00 0. -1.
        -12    1    4    4    0    0  0.56133007266E+02  0.58891456223E+02 -0.63100950787E+02  0.10296042012E+03  0.00000000000E+00 0.  1.
</event>
<event>
12    1  0.1623092E-001  0.1720073E+03  0.7818608E-02  0.1176036E+00
         21   -1    0    0  503  502  0.00000000000E+00  0.00000000000E+00  0.84050890322E+02  0.84050890322E+02  0.00000000000E+00 0.  1.
         21   -1    0    0  501  503 -0.00000000000E+00 -0.00000000000E+00 -0.41400200260E+03  0.41400200260E+03  0.00000000000E+00 0.  1.
          6    2    1    2  501    0 -0.19894862657E+02  0.60552911951E+01 -0.26254674602E+03  0.31331019193E+03  0.16970565815E+03 0.  0.
         24    2    3    3    0    0  0.21037171665E+02  0.60397890508E+02 -0.14559212594E+03  0.17792547088E+03  0.79811893121E+02 0.  0.
         -6    2    1    2    0  502  0.19894862657E+02 -0.60552911951E+01 -0.67404366256E+02  0.18474270099E+03  0.17074555593E+03 0.  0.
        -24    2    5    5    0    0 -0.86254458569E+01 -0.60877802962E+02 -0.54938781521E+02  0.12152564161E+03  0.89273213477E+02 0.  0.
          5    1    3    3  501    0 -0.40932034323E+02 -0.54342599313E+02 -0.11695462009E+03  0.13538472105E+03  0.47000000000E+01 0. -1.
        -11    1    4    4    0    0 -0.14493397187E+02 -0.13497433879E+02 -0.21922214448E+02  0.29543574084E+02  0.00000000000E+00 0.  1.
         12    1    4    4    0    0  0.35530568852E+02  0.73895324387E+02 -0.12366991149E+03  0.14838189680E+03  0.00000000000E+00 0. -1.
         -5    1    5    5    0  502  0.28520308514E+02  0.54822511766E+02 -0.12465584735E+02  0.63217059382E+02  0.47000000000E+01 0.  1.
         13    1    6    6    0    0  0.40275256057E+02 -0.23404293270E+02 -0.27401171000E+02  0.54043328599E+02  0.00000000000E+00 0. -1.
        -14    1    6    6    0    0 -0.48900701914E+02 -0.37473509691E+02 -0.27537610521E+02  0.67482313012E+02  0.00000000000E+00 0.  1.
</event>
<event>
12    1  0.1623092E-001  0.3400392E+03  0.7818608E-02  0.1066809E+00
         21   -1    0    0  501  502  0.00000000000E+00  0.00000000000E+00  0.11727819988E+03  0.11727819988E+03  0.00000000000E+00 0. -1.
         21   -1    0    0  502  503 -0.00000000000E+00 -0.00000000000E+00 -0.98726316498E+03  0.98726316498E+03  0.00000000000E+00 0.  1.
         -6    2    1    2    0  503  0.28842084536E+03  0.53137479512E+02 -0.46089258054E+03  0.57275528940E+03  0.17209437810E+03 0.  0.
        -24    2    3    3    0    0  0.20435987244E+03  0.56920346956E+02 -0.21253874181E+03  0.31049153578E+03  0.78926507951E+02 0.  0.
          6    2    1    2  501    0 -0.28842084536E+03 -0.53137479512E+02 -0.40909238456E+03  0.53178607547E+03  0.17155079478E+03 0.  0.
         24    2    5    5    0    0 -0.14556265333E+03 -0.60171846344E+02 -0.31339754204E+03  0.35963051142E+03  0.79416297136E+02 0.  0.
          5    1    5    5  501    0 -0.14285819203E+03  0.70343668322E+01 -0.95694842517E+02  0.17215556404E+03  0.47000000000E+01 0. -1.
        -11    1    6    6    0    0 -0.13669007060E+03 -0.23675888731E+02 -0.24123403479E+03  0.27827788746E+03  0.00000000000E+00 0.  1.
         12    1    6    6    0    0 -0.88725827232E+01 -0.36495957612E+02 -0.72163507248E+02  0.81352623956E+02  0.00000000000E+00 0. -1.
         -5    1    3    3    0  503  0.84060972919E+02 -0.37828674439E+01 -0.24835383872E+03  0.26226375362E+03  0.47000000000E+01 0.  1.
         11    1    4    4    0    0  0.20820632108E+03  0.52079405350E+02 -0.21504503152E+03  0.30381985152E+03  0.00000000000E+00 0. -1.
        -12    1    4    4    0    0 -0.38464486372E+01  0.48409416055E+01  0.25062897043E+01  0.66716842572E+01  0.00000000000E+00 0.  1.
</event>
<event>
12    1  0.1623092E-001  0.2344405E+03  0.7818608E-02  0.1123619E+00
         21   -1    0    0  501  502  0.00000000000E+00  0.00000000000E+00  0.78944430261E+03  0.78944430261E+03  0.00000000000E+00 0. -1.
         21   -1    0    0  502  503 -0.00000000000E+00 -0.00000000000E+00 -0.11085667084E+03  0.11085667084E+03  0.00000000000E+00 0. -1.
         -6    2    1    2    0  503 -0.14397197649E+03 -0.64797940720E+02  0.64546116707E+02  0.24316362062E+03  0.17330794002E+03 0.  0.
        -24    2    3    3    0    0 -0.14580990727E+03 -0.83644957950E+02  0.93315356253E+02  0.20840233192E+03  0.80416218458E+02 0.  0.
          6    2    1    2  501    0  0.14397197649E+03  0.64797940720E+02  0.61404151507E+03  0.65713735282E+03  0.17278835353E+03 0.  0.
         24    2    5    5    0    0  0.82487683711E+01  0.10396286277E+02  0.29933929272E+03  0.31009281969E+03  0.79858748483E+02 0.  0.
          5    1    5    5  501    0  0.13572320812E+03  0.54401654444E+02  0.31470222235E+03  0.34704453314E+03  0.47000000000E+01 0. -1.
        -13    1    6    6    0    0 -0.20360004700E+02  0.34387239482E+02  0.10826973374E+03  0.11540947654E+03  0.00000000000E+00 0.  1.
         14    1    6    6    0    0  0.28608773071E+02 -0.23990953205E+02  0.19106955898E+03  0.19468334315E+03  0.00000000000E+00 0. -1.
         -5    1    3    3    0  503  0.18379307716E+01  0.18847017230E+02 -0.28769239546E+02  0.34761288699E+02  0.47000000000E+01 0.  1.
         13    1    4    4    0    0 -0.11323300550E+03 -0.64925198089E+02  0.28679424862E+02  0.13363945635E+03  0.00000000000E+00 0. -1.
        -14    1    4    4    0    0 -0.32576901762E+02 -0.18719759861E+02  0.64635931391E+02  0.74762875577E+02  0.00000000000E+00 0.  1.
</event>
<event>
12    1  0.1623092E-001  0.2088535E+03  0.7818608E-02  0.1143502E+00
         21   -1    0    0  503  502  0.00000000000E+00  0.00000000000E+00  0.65635443609E+02  0.65635443609E+02  0.00000000000E+00 0.  1.
         21   -1    0    0  501  503 -0.00000000000E+00 -0.00000000000E+00 -0.11700500946E+04  0.11700500946E+04  0.00000000000E+00 0.  1.
          6    2    1    2  501    0  0.49934351719E+02  0.10848464076E+03 -0.14350106982E+03  0.25340157879E+03  0.17134014804E+03 0.  0.
         24    2    3    3    0    0  0.29264669864E+02  0.11349711585E+03 -0.16835029335E+03  0.22035714560E+03  0.80482508281E+02 0.  0.
         -6    2    1    2    0  502 -0.49934351719E+02 -0.10848464076E+03 -0.96091358117E+03  0.98228395942E+03  0.16511968295E+03 0.  0.
        -24    2    5    5    0    0 -0.12155530870E+02 -0.85026246267E+02 -0.34315460898E+03  0.36290865050E+03  0.81057901902E+02 0.  0.
          5    1    3    3  501    0  0.20669681856E+02 -0.50124750849E+01  0.24849223530E+02  0.33044433185E+02  0.47000000000E+01 0. -1.
        -13    1    4    4    0    0  0.55391428555E+02  0.74844956320E+02 -0.92104796525E+02  0.13097049815E+03  0.00000000000E+00 0.  1.
         14    1    4    4    0    0 -0.26126758692E+02  0.38652159526E+02 -0.76245496824E+02  0.89386647446E+02  0.00000000000E+00 0. -1.
         -5    1    5    5    0  502 -0.37778820849E+02 -0.23458394494E+02 -0.61775897220E+03  0.61937530892E+03  0.47000000000E+01 0.  1.
         11    1    6    6    0    0  0.31614514336E+02 -0.42808898786E+02 -0.20805466366E+03  0.21475293340E+03  0.00000000000E+00 0. -1.
        -12    1    6    6    0    0 -0.43770045206E+02 -0.42217347481E+02 -0.13509994531E+03  0.14815571710E+03  0.00000000000E+00 0.  1.
</event>
<event>
12    1  0.1623092E-001  0.3743372E+03  0.7818608E-02  0.1053423E+00
         21   -1    0    0  503  502  0.00000000000E+00  0.00000000000E+00  0.94811195692E+03  0.94811195692E+03  0.00000000000E+00 0. -1.
         21   -1    0    0  501  503 -0.00000000000E+00 -0.00000000000E+00 -0.21142958307E+03  0.21142958307E+03  0.00000000000E+00 0. -1.
          6    2    1    2  501    0  0.32895998286E+03 -0.22127656550E+01  0.47754964312E+02  0.37737096910E+03  0.17863019074E+03 0.  0.
         24    2    3    3    0    0  0.18558030734E+03 -0.24070425308E+02  0.94217821852E+02  0.22500176037E+03  0.82032666461E+02 0.  0.
         -6    2    1    2    0  502 -0.32895998286E+03  0.22127656550E+01  0.68892740954E+03  0.78217057089E+03  0.17014775840E+03 0.  0.
        -24    2    5    5    0    0 -0.11762620312E+03 -0.60255078710E+01  0.39689955232E+03  0.42157079966E+03  0.79501283592E+02 0.  0.
          5    1    3    3  501    0  0.14337967552E+03  0.21857659653E+02 -0.46462857541E+02  0.15236920873E+03  0.47000000000E+01 0. -1.
        -13    1    4    4    0    0  0.70668957350E+02 -0.15698909017E+02  0.81621803514E+02  0.10909938628E+03  0.00000000000E+00 0.  1.
         14    1    4    4    0    0  0.11491134999E+03 -0.83715162910E+01  0.12596018338E+02  0.11590237409E+03  0.00000000000E+00 0. -1.
         -5    1    5    5    0  502 -0.21133377975E+03  0.82382735260E+01  0.29202785722E+03  0.36059977122E+03  0.47000000000E+01 0.  1.
         11    1    6    6    0    0 -0.12865303229E+03 -0.71634794515E+01  0.33990831940E+03  0.36351146302E+03  0.00000000000E+00 0. -1.
        -12    1    6    6    0    0  0.11026829172E+02  0.11379715804E+01  0.56991232925E+02  0.58059336641E+02  0.00000000000E+00 0.  1.
</event>
<event>
12    1  0.1623092E-001  0.2507224E+03  0.7818608E-02  0.1112886E+00
         21   -1    0    0  503  502  0.00000000000E+00  0.00000000000E+00  0.41754162380E+03  0.41754162380E+03  0.00000000000E+00 0.  1.
         21   -1    0    0  501  503 -0.00000000000E+00 -0.00000000000E+00 -0.15555162758E+03  0.15555162758E+03  0.00000000000E+00 0. -1.
          6    2    1    2  501    0  0.97204597445E+02 -0.15462597508E+03  0.78848389635E+02  0.26260557909E+03  0.17142548144E+03 0.  0.
         24    2    3    3    0    0  0.39346868373E+02 -0.45210082517E+01  0.22593600778E+02  0.92118895887E+02  0.80042517558E+02 0.  0.
         -6    2    1    2    0  502 -0.97204597445E+02  0.15462597508E+03  0.18314160658E+03  0.31048767229E+03  0.17176676235E+03 0.  0.
        -24    2    5    5    0    0 -0.39706087484E+02  0.16414449982E+03  0.10854907553E+03  0.21570994996E+03  0.78916984921E+02 0.  0.
          5    1    3    3  501    0  0.57857729072E+02 -0.15010496683E+03  0.56254788857E+02  0.17048668320E+03  0.47000000000E+01 0. -1.
        -13    1    4    4    0    0  0.63772732510E+02 -0.91648577035E+01  0.17029428294E+02  0.66640509126E+02  0.00000000000E+00 0.  1.
         14    1    4    4    0    0 -0.24425864137E+02  0.46438494518E+01  0.55641724834E+01  0.25478386762E+02  0.00000000000E+00 0. -1.
         -5    1    5    5    0  502 -0.57498509961E+02 -0.95185247375E+01  0.74592531054E+02  0.94777722329E+02  0.47000000000E+01 0.  1.
         13    1    6    6    0    0  0.72801684503E+00  0.25133485575E+02 -0.11490234246E+02  0.27645028282E+02  0.00000000000E+00 0. -1.
        -14    1    6    6    0    0 -0.40434104330E+02  0.13901101424E+03  0.12003930978E+03  0.18806492168E+03  0.00000000000E+00 0.  1.
</event>
<event>
12    1  0.1623092E-001  0.1946025E+03  0.7818608E-02  0.1154829E+00
         21   -1    0    0  503  502  0.00000000000E+00  0.00000000000E+00  0.63875321483E+03  0.63875321483E+03  0.00000000000E+00 0. -1.
         21   -1    0    0  501  503 -0.00000000000E+00 -0.00000000000E+00 -0.10417855642E+03  0.10417855642E+03  0.00000000000E+00 0. -1.
          6    2    1    2  501    0 -0.79742151637E+01 -0.89039771609E+02  0.22550656338E+02  0.19590473314E+03  0.17285387855E+03 0.  0.
         24    2    3    3    0    0  0.13653017921E+02  0.18780263613E+02  0.32914949757E+02  0.85349743271E+02  0.75246804312E+02 0.  0.
         -6    2    1    2    0  502  0.79742151637E+01  0.89039771609E+02  0.51202400207E+03  0.54702703811E+03  0.17052370126E+03 0.  0.
        -24    2    5    5    0    0 -0.45705454216E+02  0.69679895912E+02  0.42817598890E+03  0.44549432908E+03  0.90477860979E+02 0.  0.
          5    1    3    3  501    0 -0.21627233085E+02 -0.10782003522E+03 -0.10364293419E+02  0.11055498987E+03  0.47000000000E+01 0. -1.
        -11    1    4    4    0    0  0.14229695504E+02 -0.23700660450E+02  0.32759275117E+02  0.42864619981E+02  0.00000000000E+00 0.  1.
         12    1    4    4    0    0 -0.57667758359E+00  0.42480924063E+02  0.15567463983E+00  0.42485123289E+02  0.00000000000E+00 0. -1.
         -5    1    5    5    0  502  0.53679669380E+02  0.19359875697E+02  0.83848013173E+02  0.10153270904E+03  0.47000000000E+01 0.  1.
         13    1    6    6    0    0 -0.33393274545E+02 -0.15186154303E+02  0.10947951701E+03  0.11546209210E+03  0.00000000000E+00 0. -1.
        -14    1    6    6    0    0 -0.12312179671E+02  0.84866050214E+02  0.31869647189E+03  0.33003223697E+03  0.00000000000E+00 0.  1.
</event>
<event>
12    1  0.1623092E-001  0.2030301E+03  0.7818608E-02  0.1147327E+00
         21   -1    0    0  503  502  0.00000000000E+00  0.00000000000E+00  0.34185938181E+03  0.34185938181E+03  0.00000000000E+00 0. -1.
         21   -1    0    0  501  503 -0.00000000000E+00 -0.00000000000E+00 -0.22187439980E+03  0.22187439980E+03  0.00000000000E+00 0. -1.
          6    2    1    2  501    0  0.10414835658E+03  0.26126044218E+02 -0.13073525021E+03  0.24148069160E+03  0.17231299546E+03 0.  0.
         24    2    3    3    0    0  0.29343487925E+02  0.24217189747E+02 -0.14020460298E+03  0.16590840342E+03  0.80129614168E+02 0.  0.
         -6    2    1    2    0  502 -0.10414835658E+03 -0.26126044218E+02  0.25072023223E+03  0.32225309001E+03  0.17163032601E+03 0.  0.
        -24    2    5    5    0    0 -0.10195542554E+03  0.13058232218E+01  0.26184230935E+03  0.29220135300E+03  0.80147500012E+02 0.  0.
          5    1    3    3  501    0  0.74804868654E+02  0.19088544709E+01  0.94693527652E+01  0.75572288185E+02  0.47000000000E+01 0. -1.
        -11    1    4    4    0    0 -0.41347950147E+01  0.19768696045E+02  0.14835244474E+01  0.20250894250E+02  0.00000000000E+00 0.  1.
         12    1    4    4    0    0  0.33478282939E+02  0.44484937023E+01 -0.14168812742E+03  0.14565750917E+03  0.00000000000E+00 0. -1.
         -5    1    5    5    0  502 -0.21929310351E+01 -0.27431867440E+02 -0.11122077120E+02  0.30051737009E+02  0.47000000000E+01 0.  1.
         11    1    6    6    0    0 -0.10359931478E+03 -0.22225491220E+02  0.21935769197E+03  0.24360744551E+03  0.00000000000E+00 0. -1.
        -12    1    6    6    0    0  0.16438892351E+01  0.23531314441E+02  0.42484617380E+02  0.48593907489E+02  0.00000000000E+00 0.  1.
</event>
<event>
12    1  0.1623092E-001  0.1871974E+03  0.7818608E-02  0.1161348E+00
         21   -1    0    0  503  502  0.00000000000E+00  0.00000000000E+00  0.42900467830E+03  0.42900467830E+03  0.00000000000E+00 0. -1.
         21   -1    0    0  501  503 -0.00000000000E+00 -0.00000000000E+00 -0.81105476182E+02  0.81105476182E+02  0.00000000000E+00 0. -1.
          6    2    1    2  501    0  0.11411409000E+01  0.71794285204E+02  0.16818828967E+03  0.25165484526E+03  0.17287897145E+03 0.  0.
         24    2    3    3    0    0  0.16219944797E+02 -0.22833891474E+02  0.47750480188E+02  0.97676865985E+02  0.80474769844E+02 0.  0.
         -6    2    1    2    0  502 -0.11411409000E+01 -0.71794285204E+02  0.17971091245E+03  0.25845530923E+03  0.17131086721E+03 0.  0.
        -24    2    5    5    0    0  0.63606552415E+02 -0.45499594784E+02  0.85847389633E+02  0.14133944587E+03  0.80567102570E+02 0.  0.
          5    1    3    3  501    0 -0.15078803897E+02  0.94628176678E+02  0.12043780948E+03  0.15397797927E+03  0.47000000000E+01 0. -1.
        -11    1    4    4    0    0  0.18080845126E+02 -0.40764861270E+02  0.60815084281E+02  0.75413296910E+02  0.00000000000E+00 0.  1.
         12    1    4    4    0    0 -0.18609003297E+01  0.17930969796E+02 -0.13064604092E+02  0.22263569075E+02  0.00000000000E+00 0. -1.
         -5    1    5    5    0  502 -0.64747693315E+02 -0.26294690420E+02  0.93863522818E+02  0.11711586336E+03  0.47000000000E+01 0.  1.
         11    1    6    6    0    0  0.36683057892E+02 -0.16537763087E+02  0.92837928616E+02  0.10118312771E+03  0.00000000000E+00 0. -1.
        -12    1    6    6    0    0  0.26923494523E+02 -0.28961831697E+02 -0.69905389832E+01  0.40156318156E+02  0.00000000000E+00 0.  1.
</event>
<event>
12    1  0.1623092E-001  0.2038839E+03  0.7818608E-02  0.1146774E+00
         21   -1    0    0  501  502  0.00000000000E+00  0.00000000000E+00  0.32336294668E+03  0.32336294668E+03  0.00000000000E+00 0. -1.
         21   -1    0    0  502  503 -0.00000000000E+00 -0.00000000000E+00 -0.12872525122E+03  0.12872525122E+03  0.00000000000E+00 0. -1.
         -6    2    1    2    0  503  0.74628903268E+02  0.75690432639E+02  0.77707965256E+02  0.21819066721E+03  0.17398311584E+03 0.  0.
        -24    2    3    3    0    0  0.40532074290E+02  0.23288119543E+02 -0.29710721954E+02  0.93814381180E+02  0.75718066266E+02 0.  0.
          6    2    1    2  501    0 -0.74628903268E+02 -0.75690432639E+02  0.11692973020E+03  0.23389753069E+03  0.17244413085E+03 0.  0.
         24    2    5    5    0    0  0.33080088157E+02 -0.54841349013E+02  0.26020971311E+02  0.91340862788E+02  0.59700891725E+02 0.  0.
          5    1    5    5  501    0 -0.10770899143E+03 -0.20849083626E+02  0.90908758887E+02  0.14255666791E+03  0.47000000000E+01 0. -1.
        -13    1    6    6    0    0  0.36680031030E+02 -0.52738687762E+01  0.17247411769E+02  0.40874338905E+02  0.00000000000E+00 0.  1.
         14    1    6    6    0    0 -0.35999428726E+01 -0.49567480237E+02  0.87735595420E+01  0.50466523882E+02  0.00000000000E+00 0. -1.
         -5    1    3    3    0  503  0.34096828978E+02  0.52402313096E+02  0.10741868721E+03  0.12437628603E+03  0.47000000000E+01 0.  1.
         11    1    4    4    0    0  0.41081784872E+01 -0.18008374022E+01  0.23898283667E+02  0.24315593927E+02  0.00000000000E+00 0. -1.
        -12    1    4    4    0    0  0.36423895803E+02  0.25088956945E+02 -0.53609005620E+02  0.69498787253E+02  0.00000000000E+00 0.  1.
</event>
<event>
12    1  0.1623092E-001  0.1826955E+03  0.7818608E-02  0.1167122E+00
         21   -1    0    0  503  502  0.00000000000E+00  0.00000000000E+00  0.73777610496E+02  0.73777610496E+02  0.00000000000E+00 0. -1.
         21   -1    0    0  501  503 -0.00000000000E+00 -0.00000000000E+00 -0.60221358341E+03  0.60221358341E+03  0.00000000000E+00 0. -1.
          6    2    1    2  501    0  0.51938441467E+02  0.31800653157E+02 -0.89365048240E+02  0.20338081505E+03  0.17224622156E+03 0.  0.
         24    2    3    3    0    0 -0.66787499561E-02  0.79086815058E+02 -0.64537961540E+02  0.12872995534E+03  0.78431680850E+02 0.  0.
         -6    2    1    2    0  502 -0.51938441467E+02 -0.31800653157E+02 -0.43907092468E+03  0.47261037886E+03  0.16391586276E+03 0.  0.
        -24    2    5    5    0    0 -0.49713525258E+02 -0.56660505843E+02 -0.17372069029E+03  0.20604744180E+03  0.81208512603E+02 0.  0.
          5    1    3    3  501    0  0.51945120217E+02 -0.47286161901E+02 -0.24827086701E+02  0.74650859712E+02  0.47000000000E+01 0. -1.
        -13    1    4    4    0    0  0.18463570053E+02  0.88147273507E+02 -0.46435763156E+02  0.10132682441E+03  0.00000000000E+00 0.  1.
         14    1    4    4    0    0 -0.18470248803E+02 -0.90604584491E+01 -0.18102198384E+02  0.27403130925E+02  0.00000000000E+00 0. -1.
         -5    1    5    5    0  502 -0.22249162088E+01  0.24859852686E+02 -0.26535023438E+03  0.26656293706E+03  0.47000000000E+01 0.  1.
         11    1    6    6    0    0 -0.14835377190E+01  0.49405454012E+01 -0.94729937594E+02  0.94870284861E+02  0.00000000000E+00 0. -1.
        -12    1    6    6    0    0 -0.48229987539E+02 -0.61601051244E+02 -0.78990752700E+02  0.11117715694E+03  0.00000000000E+00 0.  1.
</event>
<event>
12    1  0.1623092E-001  0.2226351E+03  0.7818608E-02  0.1131996E+00
         21   -1    0    0  501  502  0.00000000000E+00  0.00000000000E+00  0.27331973153E+02  0.27331973153E+02  0.00000000000E+00 0. -1.
         21   -1    0    0  502  503 -0.00000000000E+00 -0.00000000000E+00 -0.19616771967E+04  0.19616771967E+04  0.00000000000E+00 0. -1.
         -6    2    1    2    0  503 -0.93270299967E+02  0.10705803625E+03 -0.12423572375E+04  0.12620884440E+04  0.17104082270E+03 0.  0.
        -24    2    3    3    0    0 -0.10772893739E+03  0.78890213938E+02 -0.11945454173E+04  0.12045511643E+04  0.78584754137E+02 0.  0.
          6    2    1    2  501    0  0.93270299967E+02 -0.10705803625E+03 -0.69198798603E+03  0.72692072580E+03  0.17148060181E+03 0.  0.
         24    2    5    5    0    0  0.16196360057E+02 -0.83378267213E+01 -0.15552259607E+03  0.17600941115E+03  0.80375328864E+02 0.  0.
          5    1    5    5  501    0  0.77073939911E+02 -0.98720209529E+02 -0.53646538996E+03  0.55091131465E+03  0.47000000000E+01 0. -1.
        -11    1    6    6    0    0 -0.23719089012E+02  0.86102586206E+01 -0.11110191704E+03  0.11393141669E+03  0.00000000000E+00 0.  1.
         12    1    6    6    0    0  0.39915449069E+02 -0.16948085342E+02 -0.44420679026E+02  0.62077994460E+02  0.00000000000E+00 0. -1.
         -5    1    3    3    0  503  0.14458637423E+02  0.28167822312E+02 -0.47811820153E+02  0.57537279709E+02  0.47000000000E+01 0.  1.
         13    1    4    4    0    0 -0.81567154700E+02  0.89329723309E+02 -0.81089576969E+03  0.81986886115E+03  0.00000000000E+00 0. -1.
        -14    1    4    4    0    0 -0.26161782691E+02 -0.10439509371E+02 -0.38364964766E+03  0.38468230318E+03  0.00000000000E+00 0.  1.
</event>
<event>
12    1  0.1623092E-001  0.2023789E+03  0.7818608E-02  0.1147821E+00
         21   -1    0    0  501  502  0.00000000000E+00  0.00000000000E+00  0.16505736973E+04  0.16505736973E+04  0.00000000000E+00 0.  1.
         21   -1    0    0  502  503 -0.00000000000E+00 -0.00000000000E+00 -0.25211668330E+02  0.25211668330E+02  0.00000000000E+00 0. -1.
         -6    2    1    2    0  503 -0.95170074681E+02 -0.45869601612E+02  0.70254974274E+03  0.73111789211E+03  0.17261479563E+03 0.  0.
        -24    2    3    3    0    0  0.14228178082E+02  0.66273241807E+01  0.33029135313E+03  0.33955397196E+03  0.77189114809E+02 0.  0.
          6    2    1    2  501    0  0.95170074681E+02  0.45869601612E+02  0.92281228619E+03  0.94466747348E+03  0.17219975739E+03 0.  0.
         24    2    5    5    0    0  0.99489148231E+02  0.69719388975E+02  0.89804076196E+03  0.90969340929E+03  0.79410357900E+02 0.  0.
          5    1    5    5  501    0 -0.43190735501E+01 -0.23849787363E+02  0.24771524220E+02  0.34974064187E+02  0.47000000000E+01 0. -1.
        -13    1    6    6    0    0  0.34225202445E+01  0.17591056874E+02  0.37131145967E+03  0.37174367380E+03  0.00000000000E+00 0.  1.
         14    1    6    6    0    0  0.96066627986E+02  0.52128332101E+02  0.52672930229E+03  0.53794973549E+03  0.00000000000E+00 0. -1.
         -5    1    3    3    0  503 -0.10939825276E+03 -0.52496925793E+02  0.37225838961E+03  0.39156392014E+03  0.47000000000E+01 0.  1.
         13    1    4    4    0    0  0.28085873518E+02 -0.14712393189E+02  0.58204431322E+02  0.66279911210E+02  0.00000000000E+00 0. -1.
        -14    1    4    4    0    0 -0.13857695436E+02  0.21339717369E+02  0.27208692181E+03  0.27327406075E+03  0.00000000000E+00 0.  1.
</event>
<event>
12    1  0.1623092E-001  0.1783890E+03  0.7818608E-02  0.1169595E+00
         21   -1    0    0  501  502  0.00000000000E+00  0.00000000000E+00  0.12230956382E+04  0.12230956382E+04  0.00000000000E+00 0.  1.
         21   -1    0    0  502  503 -0.00000000000E+00 -0.00000000000E+00 -0.29911852952E+02  0.29911852952E+02  0.00000000000E+00 0.  1.
         -6    2    1    2    0  503 -0.42956503988E+02  0.18670636019E+02  0.36805947514E+03  0.40901151668E+03  0.17213015324E+03 0.  0.
        -24    2    3    3    0    0 -0.80133188161E+02 -0.26211241900E+02  0.24967764056E+03  0.27697804528E+03  0.85261693182E+02 0.  0.
          6    2    1    2  501    0  0.42956503988E+02 -0.18670636019E+02  0.82512431014E+03  0.84399597451E+03  0.17118768621E+03 0.  0.
         24    2    5    5    0    0  0.82218846928E+02 -0.44865545284E+02  0.48806653084E+03  0.50361715403E+03  0.81537987202E+02 0.  0.
          5    1    5    5  501    0 -0.39262342940E+02  0.26194909265E+02  0.33705777930E+03  0.34037882048E+03  0.47000000000E+01 0. -1.
        -13    1    6    6    0    0  0.29607346448E+02  0.21378781889E+02  0.20318735030E+03  0.20644308320E+03  0.00000000000E+00 0.  1.
         14    1    6    6    0    0  0.52611500480E+02 -0.66244327173E+02  0.28487918054E+03  0.29717407082E+03  0.00000000000E+00 0. -1.
         -5    1    3    3    0  503  0.37176684174E+02  0.44881877919E+02  0.11838183459E+03  0.13203347141E+03  0.47000000000E+01 0.  1.
         11    1    4    4    0    0 -0.65694203755E+02  0.16491305888E+02  0.19312391591E+03  0.20465712417E+03  0.00000000000E+00 0. -1.
        -12    1    4    4    0    0 -0.14438984406E+02 -0.42702547789E+02  0.56553724647E+02  0.72320921107E+02  0.00000000000E+00 0.  1.
</event>
<event>
12    1  0.1623092E-001  0.4092945E+03  0.7818608E-02  0.1040685E+00
         21   -1    0    0  501  502  0.00000000000E+00  0.00000000000E+00  0.16213291061E+03  0.16213291061E+03  0.00000000000E+00 0. -1.
         21   -1    0    0  502  503 -0.00000000000E+00 -0.00000000000E+00 -0.11274664400E+04  0.11274664400E+04  0.00000000000E+00 0.  1.
         -6    2    1    2    0  503  0.36934909855E+03 -0.27918469518E+02 -0.67085499499E+03  0.78537753910E+03  0.17196876774E+03 0.  0.
        -24    2    3    3    0    0  0.65656363695E+02 -0.93016664278E+01 -0.17812906439E+03  0.20626028392E+03  0.80100324909E+02 0.  0.
          6    2    1    2  501    0 -0.36934909855E+03  0.27918469518E+02 -0.29447853442E+03  0.50422181153E+03  0.17413738957E+03 0.  0.
         24    2    5    5    0    0 -0.79990209080E+02 -0.21342069199E+02 -0.93820842230E+02  0.14863670635E+03  0.80228439916E+02 0.  0.
          5    1    5    5  501    0 -0.28935888947E+03  0.49260538717E+02 -0.20065769219E+03  0.35558510518E+03  0.47000000000E+01 0. -1.
        -11    1    6    6    0    0 -0.22582652994E+02 -0.13833922630E+02  0.11168616607E+02  0.28741809763E+02  0.00000000000E+00 0.  1.
         12    1    6    6    0    0 -0.57407556086E+02 -0.75081465686E+01 -0.10498945884E+03  0.11989489659E+03  0.00000000000E+00 0. -1.
         -5    1    3    3    0  503  0.30369273485E+03 -0.18616803090E+02 -0.49272593060E+03  0.57911725517E+03  0.47000000000E+01 0.  1.
         11    1    4    4    0    0  0.81497967948E+02 -0.94994342502E+01 -0.11562116428E+03  0.14177592059E+03  0.00000000000E+00 0. -1.
        -12    1    4    4    0    0 -0.15841604253E+02  0.19776782240E+00 -0.62507900115E+02  0.64484363331E+02  0.00000000000E+00 0.  1.
</event>
<event>
12    1  0.1623092E-001  0.2089477E+03  0.7818608E-02  0.1142677E+00
         21   -1    0    0  503  502  0.00000000000E+00  0.00000000000E+00  0.26250053047E+02  0.26250053047E+02  0.00000000000E+00 0.  1.
         21   -1    0    0  501  503 -0.00000000000E+00 -0.00000000000E+00 -0.17228433689E+04  0.17228433689E+04  0.00000000000E+00 0.  1.
          6    2    1    2  501    0 -0.45406977909E+02 -0.10912181317E+03 -0.66860746895E+03  0.70008721022E+03  0.17063642818E+03 0.  0.
         24    2    3    3    0    0 -0.72770259090E+02 -0.21626166038E+02 -0.43791232319E+03  0.45179992158E+03  0.81195841453E+02 0.  0.
         -6    2    1    2    0  502  0.45406977909E+02  0.10912181317E+03 -0.10279858469E+04  0.10490062117E+04  0.17230718808E+03 0.  0.
        -24    2    5    5    0    0  0.48082125131E+02  0.34227727411E+01 -0.66441574300E+03  0.67034441802E+03  0.74764651407E+02 0.  0.
          5    1    3    3  501    0  0.27363281181E+02 -0.87495647131E+02 -0.23069514576E+03  0.24828728864E+03  0.47000000000E+01 0. -1.
        -13    1    4    4    0    0 -0.35388640788E+02 -0.45882825012E+02 -0.33000154898E+03  0.33505016320E+03  0.00000000000E+00 0.  1.
         14    1    4    4    0    0 -0.37381618302E+02  0.24256658974E+02 -0.10791077421E+03  0.11674975838E+03  0.00000000000E+00 0. -1.
         -5    1    5    5    0  502 -0.26751472219E+01  0.10569904043E+03 -0.36357010390E+03  0.37866179370E+03  0.47000000000E+01 0.  1.
         11    1    6    6    0    0  0.16342492512E+02  0.30445091624E+02 -0.48153448664E+03  0.48277266129E+03  0.00000000000E+00 0. -1.
        -12    1    6    6    0    0  0.31739632619E+02 -0.27022318883E+02 -0.18288125636E+03  0.18757175673E+03  0.00000000000E+00 0.  1.
</event>
<event>
12    1  0.1623092E-001  0.2674041E+03  0.7818608E-02  0.1103029E+00
         21   -1    0    0  503  502  0.00000000000E+00  0.00000000000E+00  0.14850813447E+03  0.14850813447E+03  0.00000000000E+00 0.  1.
         21   -1    0    0  501  503 -0.00000000000E+00 -0.00000000000E+00 -0.13813527644E+04  0.13813527644E+04  0.00000000000E+00 0.  1.
          6    2    1    2  501    0  0.97207633679E+01  0.20378983129E+03 -0.12355870766E+04  0.12641915934E+04  0.17285882235E+03 0.  0.
         24    2    3    3    0    0 -0.59233785075E+02  0.12600816484E+03 -0.80253384608E+03  0.81881320616E+03  0.83712565203E+02 0.  0.
         -6    2    1    2    0  502 -0.97207633679E+01 -0.20378983129E+03  0.27424466325E+01  0.26566930548E+03  0.17014073669E+03 0.  0.
        -24    2    5    5    0    0 -0.25324972420E+02 -0.22080564104E+03  0.18001826796E+02  0.23759854125E+03  0.82051908508E+02 0.  0.
          5    1    3    3  501    0  0.68954548443E+02  0.77781666451E+02 -0.43305323050E+03  0.44537838726E+03  0.47000000000E+01 0. -1.
        -11    1    4    4    0    0  0.11651650393E+02 -0.30066799171E+01 -0.11905854454E+03  0.11966510815E+03  0.00000000000E+00 0.  1.
         12    1    4    4    0    0 -0.70885435468E+02  0.12901484476E+03 -0.68347530154E+03  0.69914809801E+03  0.00000000000E+00 0. -1.
         -5    1    5    5    0  502  0.15604209052E+02  0.17015809750E+02 -0.15259380164E+02  0.28070764232E+02  0.47000000000E+01 0.  1.
         11    1    6    6    0    0 -0.29620035068E+02 -0.92502533853E+02  0.43978667072E+02  0.10662170700E+03  0.00000000000E+00 0. -1.
        -12    1    6    6    0    0  0.42950626485E+01 -0.12830310719E+03 -0.25976840276E+02  0.13097683424E+03  0.00000000000E+00 0.  1.
</event>
<event>
12    1  0.1623092E-001  0.2061337E+03  0.7818608E-02  0.1144982E+00
         21   -1    0    0  501  502  0.00000000000E+00  0.00000000000E+00  0.12179425088E+03  0.12179425088E+03  0.00000000000E+00 0.  1.
         21   -1    0    0  502  503 -0.00000000000E+00 -0.00000000000E+00 -0.41550785173E+03  0.41550785173E+03  0.00000000000E+00 0.  1.
         -6    2    1    2    0  503 -0.38771335225E+02 -0.11185256085E+03 -0.25607887740E+03  0.32776097200E+03  0.16684319440E+03 0.  0.
        -24    2    3    3    0    0 -0.81865425738E+01  0.67986095067E+01 -0.86957142229E+02  0.11886439215E+03  0.80336533197E+02 0.  0.
          6    2    1    2  501    0  0.38771335225E+02  0.11185256085E+03 -0.37634723460E+02  0.20954113061E+03  0.16875100356E+03 0.  0.
         24    2    5    5    0    0  0.52879794130E+02  0.46420452850E+02 -0.77204613768E+02  0.13164199333E+03  0.80111990056E+02 0.  0.
          5    1    5    5  501    0 -0.14108458906E+02  0.65432107996E+02  0.39569890308E+02  0.77899137277E+02  0.47000000000E+01 0. -1.
        -11    1    6    6    0    0  0.70033313292E+02  0.42161901005E+02 -0.41217011652E+02  0.91548527659E+02  0.00000000000E+00 0.  1.
         12    1    6    6    0    0 -0.17153519162E+02  0.42585518453E+01 -0.35987602115E+02  0.40093465670E+02  0.00000000000E+00 0. -1.
         -5    1    3    3    0  503 -0.30584792651E+02 -0.11865117035E+03 -0.16912173517E+03  0.20889657985E+03  0.47000000000E+01 0.  1.
         11    1    4    4    0    0 -0.89591696967E+01  0.46854278489E+01  0.14338047155E+02  0.17544217053E+02  0.00000000000E+00 0. -1.
        -12    1    4    4    0    0  0.77262712286E+00  0.21131816579E+01 -0.10129518938E+03  0.10132017510E+03  0.00000000000E+00 0.  1.
</event>
<event>
12    1  0.1623092E-001  0.2110773E+03  0.7818608E-02  0.1141409E+00
         21   -1    0    0  501  502  0.00000000000E+00  0.00000000000E+00  0.42821243109E+03  0.42821243109E+03  0.00000000000E+00 0.  1.
         21   -1    0    0  502  503 -0.00000000000E+00 -0.00000000000E+00 -0.16377028092E+03  0.16377028092E+03  0.00000000000E+00 0.  1.
         -6    2    1    2    0  503 -0.73553164719E+02 -0.98786082994E+02 -0.48381091576E+02  0.21655102396E+03  0.17142012053E+03 0.  0.
        -24    2    3    3    0    0 -0.98059528488E+02 -0.20044231400E+02 -0.37224312604E+02  0.13319993054E+03  0.79618651757E+02 0.  0.
          6    2    1    2  501    0  0.73553164719E+02  0.98786082994E+02  0.31282324174E+03  0.37543168805E+03  0.16709821538E+03 0.  0.
         24    2    5    5    0    0  0.80831539495E+01 -0.38511180745E+01  0.11331477446E+03  0.14166591667E+03  0.84550726464E+02 0.  0.
          5    1    5    5  501    0  0.65470010770E+02  0.10263720107E+03  0.19950846727E+03  0.23376577138E+03  0.47000000000E+01 0. -1.
        -11    1    6    6    0    0  0.13211655139E+02  0.39066394870E+02  0.47225410111E+02  0.62697451302E+02  0.00000000000E+00 0.  1.
         12    1    6    6    0    0 -0.51285011900E+01 -0.42917512944E+02  0.66089364354E+02  0.78968465367E+02  0.00000000000E+00 0. -1.
         -5    1    3    3    0  503  0.24506363768E+02 -0.78741851595E+02 -0.11156778972E+02  0.83351093423E+02  0.47000000000E+01 0.  1.
         13    1    4    4    0    0 -0.37216239287E+02  0.27115313256E+02 -0.31937968546E+02  0.56038580589E+02  0.00000000000E+00 0. -1.
        -14    1    4    4    0    0 -0.60843289200E+02 -0.47159544655E+02 -0.52863440578E+01  0.77161349951E+02  0.00000000000E+00 0.  1.
</event>
<event>
12    1  0.1623092E-001  0.1806332E+03  0.7818608E-02  0.1167630E+00
         21   -1    0    0  501  502  0.00000000000E+00  0.00000000000E+00  0.28860798190E+04  0.28860798190E+04  0.00000000000E+00 0.  1.
         21   -1    0    0  502  503 -0.00000000000E+00 -0.00000000000E+00 -0.31335229967E+02  0.31335229967E+02  0.00000000000E+00 0.  1.
         -6    2    1    2    0  503 -0.51216325809E+02  0.11794023902E+02  0.25527974269E+03  0.31168178641E+03  0.17092565028E+03 0.  0.
        -24    2    3    3    0    0 -0.91046997885E+01 -0.30174171500E+02  0.53608438891E+02  0.10137695231E+03  0.80062760100E+02 0.  0.
          6    2    1    2  501    0  0.51216325809E+02 -0.11794023902E+02  0.25994648464E+04  0.26057332626E+04  0.17281822008E+03 0.  0.
         24    2    5    5    0    0  0.13964943037E+02  0.51332597085E+02  0.99129409303E+03  0.99588609664E+03  0.79341561927E+02 0.  0.
          5    1    5    5  501    0  0.37251382772E+02 -0.63126620987E+02  0.16081707534E+04  0.16098471660E+04  0.47000000000E+01 0. -1.
        -11    1    6    6    0    0  0.40245525498E+02  0.40788423706E+01  0.49698624433E+03  0.49862978885E+03  0.00000000000E+00 0.  1.
         12    1    6    6    0    0 -0.26280582461E+02  0.47253754715E+02  0.49430784870E+03  0.49725630779E+03  0.00000000000E+00 0. -1.
         -5    1    3    3    0  503 -0.42111626021E+02  0.41968195402E+02  0.20167130380E+03  0.21030483410E+03  0.47000000000E+01 0.  1.
         11    1    4    4    0    0  0.22500777414E+02 -0.34149819150E+02  0.56101150981E+02  0.69425026277E+02  0.00000000000E+00 0. -1.
        -12    1    4    4    0    0 -0.31605477203E+02  0.39756476499E+01 -0.24927120897E+01  0.31951926030E+02  0.00000000000E+00 0.  1.
</event>
<event>
12    1  0.1623092E-001  0.2369656E+03  0.7818608E-02  0.1122358E+00
         21   -1    0    0  501  502  0.00000000000E+00  0.00000000000E+00  0.20273930691E+04  0.20273930691E+04  0.00000000000E+00 0.  1.
         21   -1    0    0  502  503 -0.00000000000E+00 -0.00000000000E+00 -0.27502759788E+02  0.27502759788E+02  0.00000000000E+00 0. -1.
         -6    2    1    2    0  503 -0.15522585389E+03  0.34362860692E+02  0.91356485773E+03  0.94302548258E+03  0.17152387470E+03 0.  0.
        -24    2    3    3    0    0 -0.75705713820E+02  0.69817787793E+02  0.70000057614E+03  0.71234757530E+03  0.82658229133E+02 0.  0.
          6    2    1    2  501    0  0.15522585389E+03 -0.34362860692E+02  0.10863254516E+04  0.11118703463E+04  0.17571797960E+03 0.  0.
         24    2    5    5    0    0  0.16312396921E+03 -0.52592128498E+02  0.10674667041E+04  0.10840777432E+04  0.79774856323E+02 0.  0.
          5    1    5    5  501    0 -0.78981153257E+01  0.18229267807E+02  0.18858747537E+02  0.27792603137E+02  0.47000000000E+01 0. -1.
        -11    1    6    6    0    0  0.15239681944E+03 -0.65877448054E+02  0.85796518944E+03  0.87388151086E+03  0.00000000000E+00 0.  1.
         12    1    6    6    0    0  0.10727149768E+02  0.13285319556E+02  0.20950151464E+03  0.21019623235E+03  0.00000000000E+00 0. -1.
         -5    1    3    3    0  503 -0.79520140067E+02 -0.35454927101E+02  0.21356428159E+03  0.23067790727E+03  0.47000000000E+01 0.  1.
         11    1    4    4    0    0 -0.55608430875E+02  0.87081893671E+02  0.60327530663E+03  0.61205935119E+03  0.00000000000E+00 0. -1.
        -12    1    4    4    0    0 -0.20097282945E+02 -0.17264105877E+02  0.96725269508E+02  0.10028822411E+03  0.00000000000E+00 0.  1.
</event>
<event>
12    1  0.1623092E-001  0.2905219E+03  0.7818608E-02  0.1090132E+00
         21   -1    0    0  503  502  0.00000000000E+00  0.00000000000E+00  0.37536108752E+03  0.37536108752E+03  0.00000000000E+00 0.  1.
         21   -1    0    0  501  503 -0.00000000000E+00 -0.00000000000E+00 -0.79554801882E+03  0.79554801882E+03  0.00000000000E+00 0. -1.
          6    2    1    2  501    0  0.16707498896E+03  0.16468128994E+03 -0.70605370637E+03  0.76332749512E+03  0.17065476655E+03 0.  0.
         24    2    3    3    0    0  0.35976334870E+02  0.81238899015E+02 -0.43610125120E+03  0.45180557333E+03  0.77781227884E+02 0.  0.
         -6    2    1    2    0  502 -0.16707498896E+03 -0.16468128994E+03  0.28586677506E+03  0.40758161121E+03  0.17137379473E+03 0.  0.
        -24    2    5    5    0    0 -0.17193225478E+03 -0.15877607924E+03  0.30128692416E+03  0.38973965103E+03  0.79703458795E+02 0.  0.
          5    1    3    3  501    0  0.13109865409E+03  0.83442390929E+02 -0.26995245516E+03  0.31152192179E+03  0.47000000000E+01 0. -1.
        -11    1    4    4    0    0  0.38220347877E+02  0.36263703337E+02 -0.35631120272E+03  0.36018540275E+03  0.00000000000E+00 0.  1.
         12    1    4    4    0    0 -0.22440130079E+01  0.44975195679E+02 -0.79790048485E+02  0.91620170585E+02  0.00000000000E+00 0. -1.
         -5    1    5    5    0  502  0.48572658213E+01 -0.59052107091E+01 -0.15420149102E+02  0.17841960181E+02  0.47000000000E+01 0.  1.
         11    1    6    6    0    0 -0.75835552331E+02 -0.32112707748E+02  0.64873981328E+02  0.10483744774E+03  0.00000000000E+00 0. -1.
        -12    1    6    6    0    0 -0.96096702448E+02 -0.12666337149E+03  0.23641294284E+03  0.28490220329E+03  0.00000000000E+00 0.  1.
</event>
<event>
12    1  0.1623092E-001  0.2319988E+03  0.7818608E-02  0.1125268E+00
         21   -1    0    0  503  502  0.00000000000E+00  0.00000000000E+00  0.70877257114E+02  0.70877257114E+02  0.00000000000E+00 0.  1.
         21   -1    0    0  501  503 -0.00000000000E+00 -0.00000000000E+00 -0.80099413473E+03  0.80099413473E+03  0.00000000000E+00 0. -1.
          6    2    1    2  501    0 -0.10731581863E+03  0.11180600183E+03 -0.46491092003E+03  0.51951131530E+03  0.17243136662E+03 0.  0.
         24    2    3    3    0    0  0.12212759569E+02  0.68461829636E+02 -0.23032180640E+03  0.25264067155E+03  0.77090860676E+02 0.  0.
         -6    2    1    2    0  502  0.10731581863E+03 -0.11180600183E+03 -0.26520595759E+03  0.35236007654E+03  0.17264459628E+03 0.  0.
        -24    2    5    5    0    0  0.40376071593E+02  0.75416022490E+00 -0.16445938160E+03  0.18706433435E+03  0.79469371913E+02 0.  0.
          5    1    3    3  501    0 -0.11952857820E+03  0.43344172191E+02 -0.23458911362E+03  0.26687064376E+03  0.47000000000E+01 0. -1.
        -11    1    4    4    0    0 -0.58017858304E+01 -0.13050882857E+02 -0.11182454433E+02  0.18139281940E+02  0.00000000000E+00 0.  1.
         12    1    4    4    0    0  0.18014545399E+02  0.81512712493E+02 -0.21913935197E+03  0.23450138960E+03  0.00000000000E+00 0. -1.
         -5    1    5    5    0  502  0.66939747037E+02 -0.11256016205E+03 -0.10074657598E+03  0.16529574219E+03  0.47000000000E+01 0.  1.
         11    1    6    6    0    0  0.61724262735E+02  0.67011175059E-01 -0.86717171221E+02  0.10644133072E+03  0.00000000000E+00 0. -1.
        -12    1    6    6    0    0 -0.21348191141E+02  0.68714904984E+00 -0.77742210382E+02  0.80623003628E+02  0.00000000000E+00 0.  1.
</event>
<event>
12    1  0.1623092E-001  0.2401382E+03  0.7818608E-02  0.1119905E+00
         21   -1    0    0  503  502  0.00000000000E+00  0.00000000000E+00  0.15295010188E+03  0.15295010188E+03  0.00000000000E+00 0. -1.
         21   -1    0    0  501  503 -0.00000000000E+00 -0.00000000000E+00 -0.90887366143E+03  0.90887366143E+03  0.00000000000E+00 0.  1.
          6    2    1    2  501    0 -0.93346813653E+02  0.13894078120E+03 -0.78442346485E+03  0.82000030334E+03  0.17047626509E+03 0.  0.
         24    2    3    3    0    0 -0.17665370197E+02  0.90372005988E+02 -0.61948638665E+03  0.63208293699E+03  0.85359775165E+02 0.  0.
         -6    2    1    2    0  502  0.93346813653E+02 -0.13894078120E+03  0.28499905308E+02  0.24182345998E+03  0.17218644805E+03 0.  0.
        -24    2    5    5    0    0  0.52893921840E+02 -0.60106698356E+02 -0.49151642488E+02  0.12391204429E+03  0.80794359990E+02 0.  0.
          5    1    3    3  501    0 -0.75681443455E+02  0.48568775212E+02 -0.16493707821E+03  0.18791736635E+03  0.47000000000E+01 0. -1.
        -13    1    4    4    0    0 -0.27108959160E+02 -0.66809669475E+01 -0.15017441625E+03  0.15274778651E+03  0.00000000000E+00 0.  1.
         14    1    4    4    0    0  0.94435889622E+01  0.97052972936E+02 -0.46931197040E+03  0.47933515048E+03  0.00000000000E+00 0. -1.
         -5    1    5    5    0  502  0.40452891813E+02 -0.78834082845E+02  0.77651547796E+02  0.11791141569E+03  0.47000000000E+01 0.  1.
         13    1    6    6    0    0  0.66909537285E+02 -0.64620432510E+02 -0.26192890665E+02  0.96637228845E+02  0.00000000000E+00 0. -1.
        -14    1    6    6    0    0 -0.14015615445E+02  0.45137341544E+01 -0.22958751823E+02  0.27274815446E+02  0.00000000000E+00 0.  1.
</event>
<event>
12    1  0.1623092E-001  0.2271351E+03  0.7818608E-02  0.1128791E+00
         21   -1    0    0  501  502  0.00000000000E+00  0.00000000000E+00  0.67605908118E+02  0.67605908118E+02  0.00000000000E+00 0. -1.
         21   -1    0    0  502  503 -0.00000000000E+00 -0.00000000000E+00 -0.97957582590E+03  0.97957582590E+03  0.00000000000E+00 0. -1.
         -6    2    1    2    0  503 -0.14497980901E+03 -0.23384786302E+02 -0.70286303549E+03  0.73844878270E+03  0.17240697424E+03 0.  0.
        -24    2    3    3    0    0 -0.16243559082E+02  0.28557511297E+02 -0.28413489712E+03  0.29728399695E+03  0.81029318264E+02 0.  0.
          6    2    1    2  501    0  0.14497980901E+03  0.23384786302E+02 -0.20910688229E+03  0.30873295132E+03  0.17327536974E+03 0.  0.
         24    2    5    5    0    0  0.26875321814E+02  0.25434716524E+02 -0.15978554520E+03  0.18064096717E+03  0.75700269753E+02 0.  0.
          5    1    5    5  501    0  0.11810448719E+03 -0.20499302228E+01 -0.49321337098E+02  0.12809198414E+03  0.47000000000E+01 0. -1.
        -11    1    6    6    0    0  0.31557439688E+02  0.15529168082E+02 -0.16485750923E+03  0.16856756927E+03  0.00000000000E+00 0.  1.
         12    1    6    6    0    0 -0.46821178744E+01  0.99055484427E+01  0.50719640334E+01  0.12073397902E+02  0.00000000000E+00 0. -1.
         -5    1    3    3    0  503 -0.12873624992E+03 -0.51942297599E+02 -0.41872813837E+03  0.44116478576E+03  0.47000000000E+01 0.  1.
         11    1    4    4    0    0 -0.47593812773E+02  0.44682027926E+01 -0.16244853589E+03  0.16933594616E+03  0.00000000000E+00 0. -1.
        -12    1    4    4    0    0  0.31350253691E+02  0.24089308505E+02 -0.12168636123E+03  0.12794805079E+03  0.00000000000E+00 0.  1.
</event>
<event>
12    1  0.1623092E-001  0.1912619E+03  0.7818608E-02  0.1157819E+00
         21   -1    0    0  503  502  0.00000000000E+00  0.00000000000E+00  0.79560900142E+03  0.79560900142E+03  0.00000000000E+00 0. -1.
         21   -1    0    0  501  503 -0.00000000000E+00 -0.00000000000E+00 -0.60235771355E+02  0.60235771355E+02  0.00000000000E+00 0. -1.
          6    2    1    2  501    0 -0.62442461097E+02 -0.53443039798E+02  0.15731091845E+03  0.24764461508E+03  0.17270179752E+03 0.  0.
         24    2    3    3    0    0 -0.31642385601E+01  0.42709747111E+01  0.14506618155E+02  0.82538669339E+02  0.81079814599E+02 0.  0.
         -6    2    1    2    0  502  0.62442461097E+02  0.53443039798E+02  0.57806231162E+03  0.60820015769E+03  0.17028263638E+03 0.  0.
        -24    2    5    5    0    0  0.93840401344E+02  0.84017999855E+02  0.42223196039E+03  0.44625619455E+03  0.70708681044E+02 0.  0.
          5    1    3    3  501    0 -0.59278222537E+02 -0.57714014510E+02  0.14280430029E+03  0.16510594574E+03  0.47000000000E+01 0. -1.
        -11    1    4    4    0    0  0.23439855187E+02 -0.24128101456E+02  0.25374006622E+02  0.42135879048E+02  0.00000000000E+00 0.  1.
         12    1    4    4    0    0 -0.26604093747E+02  0.28399076167E+02 -0.10867388467E+02  0.40402790292E+02  0.00000000000E+00 0. -1.
         -5    1    5    5    0  502 -0.31397940246E+02 -0.30574960057E+02  0.15583035123E+03  0.16194396314E+03  0.47000000000E+01 0.  1.
         11    1    6    6    0    0  0.49798494061E+02  0.36855528690E+02  0.10007199481E+03  0.11769717138E+03  0.00000000000E+00 0. -1.
        -12    1    6    6    0    0  0.44041907283E+02  0.47162471165E+02  0.32215996557E+03  0.32855902316E+03  0.00000000000E+00 0.  1.
</event>
<event>
12    1  0.1623092E-001  0.2043368E+03  0.7818608E-02  0.1148492E+00
         21   -1    0    0  501  502  0.00000000000E+00  0.00000000000E+00  0.18663857893E+03  0.18663857893E+03  0.00000000000E+00 0. -1.
         21   -1    0    0  502  503 -0.00000000000E+00 -0.00000000000E+00 -0.37034167364E+03  0.37034167364E+03  0.00000000000E+00 0. -1.
         -6    2    1    2    0  503 -0.42296559412E+02  0.10173876562E+03 -0.27558525762E+03  0.34307545500E+03  0.17208648476E+03 0.  0.
        -24    2    3    3    0    0  0.45799702419E+02  0.39249661500E+02 -0.12342893956E+03  0.15642210087E+03  0.74799878676E+02 0.  0.
          6    2    1    2  501    0  0.42296559412E+02 -0.10173876562E+03  0.91882162916E+02  0.21390479757E+03  0.15866050294E+03 0.  0.
         24    2    5    5    0    0  0.23549506875E+02 -0.74212701555E+02 -0.50898353734E+01  0.11126564990E+03  0.79322342870E+02 0.  0.
          5    1    5    5  501    0  0.18747052537E+02 -0.27526064068E+02  0.96971998289E+02  0.10263914767E+03  0.47000000000E+01 0. -1.
        -11    1    6    6    0    0 -0.16937889232E+02 -0.13559099426E+02 -0.27450194104E+02  0.34989347311E+02  0.00000000000E+00 0.  1.
         12    1    6    6    0    0  0.40487396107E+02 -0.60653602129E+02  0.22360358731E+02  0.76276302593E+02  0.00000000000E+00 0. -1.
         -5    1    3    3    0  503 -0.88096261831E+02  0.62489104123E+02 -0.15215631806E+03  0.18665335413E+03  0.47000000000E+01 0.  1.
         11    1    4    4    0    0  0.18041306595E+01  0.44048329461E+02 -0.92380955485E+02  0.10236088683E+03  0.00000000000E+00 0. -1.
        -12    1    4    4    0    0  0.43995571760E+02 -0.47986679605E+01 -0.31047984078E+02  0.54061214045E+02  0.00000000000E+00 0.  1.
</event>
<event>
12    1  0.1623092E-001  0.2333843E+03  0.7818608E-02  0.1124489E+00
         21   -1    0    0  501  502  0.00000000000E+00  0.00000000000E+00  0.28176265854E+04  0.28176265854E+04  0.00000000000E+00 0. -1.
         21   -1    0    0  502  503 -0.00000000000E+00 -0.00000000000E+00 -0.20947516497E+02  0.20947516497E+02  0.00000000000E+00 0.  1.
         -6    2    1    2    0  503 -0.15469086717E+03 -0.19783382368E+02  0.99543889516E+03  0.10224318212E+04  0.17363060881E+03 0.  0.
        -24    2    3    3    0    0 -0.90692615121E+02 -0.36103688733E+02  0.88342715053E+03  0.89231322295E+03  0.79061563217E+02 0.  0.
          6    2    1    2  501    0  0.15469086717E+03  0.19783382368E+02  0.18012401738E+04  0.18161422808E+04  0.17200573765E+03 0.  0.
         24    2    5    5    0    0  0.25270040138E+02  0.94619173041E+01  0.39904771457E+03  0.40794411796E+03  0.80319499894E+02 0.  0.
          5    1    5    5  501    0  0.12942082703E+03  0.10321465064E+02  0.14021924592E+04  0.14081981628E+04  0.47000000000E+01 0. -1.
        -11    1    6    6    0    0 -0.30980238423E+01 -0.30589237031E+02  0.22562321561E+03  0.22770844208E+03  0.00000000000E+00 0.  1.
         12    1    6    6    0    0  0.28368063980E+02  0.40051154335E+02  0.17342449896E+03  0.18023567587E+03  0.00000000000E+00 0. -1.
         -5    1    3    3    0  503 -0.63998252044E+02  0.16320306365E+02  0.11201174463E+03  0.13011859821E+03  0.47000000000E+01 0.  1.
         11    1    4    4    0    0 -0.62011851431E+01 -0.37923724946E+02  0.19788256888E+03  0.20157920200E+03  0.00000000000E+00 0. -1.
        -12    1    4    4    0    0 -0.84491429978E+02  0.18200362131E+01  0.68554458165E+03  0.69073402095E+03  0.00000000000E+00 0.  1.
</event>
<event>
12    1  0.1623092E-001  0.2048495E+03  0.7818608E-02  0.1145864E+00
         21   -1    0    0  501  502  0.00000000000E+00  0.00000000000E+00  0.10033537943E+04  0.10033537943E+04  0.00000000000E+00 0. -1.
         21   -1    0    0  502  503 -0.00000000000E+00 -0.00000000000E+00 -0.11049395974E+03  0.11049395974E+03  0.00000000000E+00 0.  1.
         -6    2    1    2    0  503 -0.11244125734E+03  0.67402151777E+01  0.65878132250E+01  0.20420968152E+03  0.17020495847E+03 0.  0.
        -24    2    3    3    0    0 -0.95366112312E+02 -0.53709875114E+02  0.21018014182E+02  0.13958697116E+03  0.84043557372E+02 0.  0.
          6    2    1    2  501    0  0.11244125734E+03 -0.67402151777E+01  0.88627202133E+03  0.90963807252E+03  0.17109897819E+03 0.  0.
         24    2    5    5    0    0  0.40404112296E+02  0.60768881217E+02  0.39291003327E+03  0.40647311982E+03  0.74274852275E+02 0.  0.
          5    1    5    5  501    0  0.72037145042E+02 -0.67509096394E+02  0.49336198806E+03  0.50316495270E+03  0.47000000000E+01 0. -1.
        -11    1    6    6    0    0  0.61522386311E+02  0.44752507171E+02  0.31925352889E+03  0.32819294116E+03  0.00000000000E+00 0.  1.
         12    1    6    6    0    0 -0.21118274014E+02  0.16016374045E+02  0.73656504379E+02  0.78280178667E+02  0.00000000000E+00 0. -1.
         -5    1    3    3    0  503 -0.17075145026E+02  0.60450090291E+02 -0.14430200957E+02  0.64622710355E+02  0.47000000000E+01 0.  1.
         13    1    4    4    0    0 -0.45955483970E+02 -0.41436325106E+02 -0.28892592490E+02  0.68290976314E+02  0.00000000000E+00 0. -1.
        -14    1    4    4    0    0 -0.49410628342E+02 -0.12273550008E+02  0.49910606672E+02  0.71295994847E+02  0.00000000000E+00 0.  1.
</event>
<event>
12    1  0.1623092E-001  0.2671138E+03  0.7818608E-02  0.1103362E+00
         21   -1    0    0  503  502  0.00000000000E+00  0.00000000000E+00  0.76279892211E+02  0.76279892211E+02  0.00000000000E+00 0. -1.
         21   -1    0    0  501  503 -0.00000000000E+00 -0.00000000000E+00 -0.92596449073E+03  0.92596449073E+03  0.00000000000E+00 0.  1.
          6    2    1    2  501    0  0.18491455729E+03  0.81720002281E+02 -0.44028831342E+03  0.51497921787E+03  0.17458019254E+03 0.  0.
         24    2    3    3    0    0  0.18521589615E+03  0.87685482845E+02 -0.29214920137E+03  0.36664525587E+03  0.84166000846E+02 0.  0.
         -6    2    1    2    0  502 -0.18491455729E+03 -0.81720002281E+02 -0.40939628510E+03  0.48726516507E+03  0.17014837810E+03 0.  0.
        -24    2    5    5    0    0 -0.13809546628E+03 -0.12283457074E+03 -0.30659941886E+03  0.36696669986E+03  0.80639107076E+02 0.  0.
          5    1    3    3  501    0 -0.30133885976E+00 -0.59654805636E+01 -0.14813911205E+03  0.14833396200E+03  0.47000000000E+01 0. -1.
        -11    1    4    4    0    0  0.48557829929E+02  0.48934950768E+01 -0.13062780324E+03  0.13944687920E+03  0.00000000000E+00 0.  1.
         12    1    4    4    0    0  0.13665806623E+03  0.82791987768E+02 -0.16152139813E+03  0.22719837666E+03  0.00000000000E+00 0. -1.
         -5    1    5    5    0  502 -0.46819091014E+02  0.41114568458E+02 -0.10279686624E+03  0.12029846521E+03  0.47000000000E+01 0.  1.
         13    1    6    6    0    0 -0.10837539533E+03 -0.95698241841E+02 -0.28878459879E+03  0.32295498804E+03  0.00000000000E+00 0. -1.
        -14    1    6    6    0    0 -0.29720070951E+02 -0.27136328898E+02 -0.17814820068E+02  0.44011711821E+02  0.00000000000E+00 0.  1.
</event>
<event>
12    1  0.1623092E-001  0.1811858E+03  0.7818608E-02  0.1166676E+00
         21   -1    0    0  503  502  0.00000000000E+00  0.00000000000E+00  0.10588165405E+03  0.10588165405E+03  0.00000000000E+00 0. -1.
         21   -1    0    0  501  503 -0.00000000000E+00 -0.00000000000E+00 -0.31790734388E+03  0.31790734388E+03  0.00000000000E+00 0. -1.
          6    2    1    2  501    0 -0.47486383153E+02  0.34629065506E+02 -0.72472231343E+02  0.19514232471E+03  0.17138895476E+03 0.  0.
         24    2    3    3    0    0 -0.86562706483E+02  0.31025249571E+02 -0.93820401114E+02  0.15022260870E+03  0.72862172863E+02 0.  0.
         -6    2    1    2    0  502  0.47486383153E+02 -0.34629065506E+02 -0.13955345849E+03  0.22864667322E+03  0.17131843052E+03 0.  0.
        -24    2    5    5    0    0  0.87500855469E+02 -0.56322987465E+02 -0.12338485952E+03  0.18011526239E+03  0.79931255221E+02 0.  0.
          5    1    3    3  501    0  0.39076323330E+02  0.36038159348E+01  0.21348169770E+02  0.44919716014E+02  0.47000000000E+01 0. -1.
        -11    1    4    4    0    0 -0.18381396983E+02 -0.12845390726E+02 -0.56854165410E+02  0.61116903901E+02  0.00000000000E+00 0.  1.
         12    1    4    4    0    0 -0.68181309500E+02  0.43870640298E+02 -0.36966235703E+02  0.89105704797E+02  0.00000000000E+00 0. -1.
         -5    1    5    5    0  502 -0.40014472316E+02  0.21693921958E+02 -0.16168598964E+02  0.48531410830E+02  0.47000000000E+01 0.  1.
         11    1    6    6    0    0 -0.13295902965E+02 -0.20007537986E+02 -0.24638471250E+02  0.34411289971E+02  0.00000000000E+00 0. -1.
        -12    1    6    6    0    0  0.10079675843E+03 -0.36315449478E+02 -0.98746388271E+02  0.14570397242E+03  0.00000000000E+00 0.  1.
</event>
<event>
12    1  0.1623092E-001  0.1738279E+03  0.7818608E-02  0.1174346E+00
         21   -1    0    0  501  502  0.00000000000E+00  0.00000000000E+00  0.27849371439E+02  0.27849371439E+02  0.00000000000E+00 0.  1.
         21   -1    0    0  502  503 -0.00000000000E+00 -0.00000000000E+00 -0.13035563493E+04  0.13035563493E+04  0.00000000000E+00 0.  1.
         -6    2    1    2    0  503  0.48488618770E+01 -0.19817242759E+02 -0.91953800755E+03  0.93582385455E+03  0.17262648943E+03 0.  0.
        -24    2    3    3    0    0  0.81630739833E+01  0.34213222572E+02 -0.79716676152E+03  0.80193178219E+03  0.79890908410E+02 0.  0.
          6    2    1    2  501    0 -0.48488618770E+01  0.19817242759E+02 -0.35616897030E+03  0.39558186617E+03  0.17091647922E+03 0.  0.
         24    2    5    5    0    0 -0.23188089844E+02  0.42619215404E+02 -0.35355870280E+03  0.36583021520E+03  0.80460580399E+02 0.  0.
          5    1    5    5  501    0  0.18339227967E+02 -0.22801972644E+02 -0.26102674985E+01  0.29751650968E+02  0.47000000000E+01 0. -1.
        -11    1    6    6    0    0 -0.25146470371E+02 -0.17924762664E+02 -0.16216739599E+03  0.16508151445E+03  0.00000000000E+00 0.  1.
         12    1    6    6    0    0  0.19583805269E+01  0.60543978068E+02 -0.19139130681E+03  0.20074870076E+03  0.00000000000E+00 0. -1.
         -5    1    3    3    0  503 -0.33142121063E+01 -0.54030465331E+02 -0.12237124603E+03  0.13389207236E+03  0.47000000000E+01 0.  1.
         13    1    4    4    0    0  0.86133219611E+01 -0.15720998804E+02 -0.51958162586E+03  0.51989076261E+03  0.00000000000E+00 0. -1.
        -14    1    4    4    0    0 -0.45024797784E+00  0.49934221376E+02 -0.27758513566E+03  0.28204101958E+03  0.00000000000E+00 0.  1.
</event>
<event>
12    1  0.1623092E-001  0.1957208E+03  0.7818608E-02  0.1154277E+00
         21   -1    0    0  501  502  0.00000000000E+00  0.00000000000E+00  0.97131170862E+02  0.97131170862E+02  0.00000000000E+00 0.  1.
         21   -1    0    0  502  503 -0.00000000000E+00 -0.00000000000E+00 -0.49484902456E+03  0.49484902456E+03  0.00000000000E+00 0.  1.
         -6    2    1    2    0  503 -0.49393721436E+02 -0.73978186911E+02 -0.33904036865E+03  0.39147796100E+03  0.17433906769E+03 0.  0.
        -24    2    3    3    0    0 -0.98651987734E+02 -0.69638039198E+02 -0.23339392272E+03  0.27473690046E+03  0.80162148933E+02 0.  0.
          6    2    1    2  501    0  0.49393721436E+02  0.73978186911E+02 -0.58677485051E+02  0.20050223442E+03  0.16983988607E+03 0.  0.
         24    2    5    5    0    0 -0.18023832562E+02  0.77268466671E+02 -0.19675907611E+01  0.11221829116E+03  0.79333466927E+02 0.  0.
          5    1    5    5  501    0  0.67417553998E+02 -0.32902797603E+01 -0.56709894290E+02  0.88283943264E+02  0.47000000000E+01 0. -1.
        -11    1    6    6    0    0 -0.38139273511E+02  0.14674517046E+02  0.16276582339E+02  0.43987188671E+02  0.00000000000E+00 0.  1.
         12    1    6    6    0    0  0.20115440950E+02  0.62593949625E+02 -0.18244173101E+02  0.68231102485E+02  0.00000000000E+00 0. -1.
         -5    1    3    3    0  503  0.49258266298E+02 -0.43401477131E+01 -0.10564644593E+03  0.11674106055E+03  0.47000000000E+01 0.  1.
         13    1    4    4    0    0 -0.80919305568E+02 -0.21590401788E+02 -0.92288629834E+02  0.12462451869E+03  0.00000000000E+00 0. -1.
        -14    1    4    4    0    0 -0.17732682166E+02 -0.48047637410E+02 -0.14110529289E+03  0.15011238176E+03  0.00000000000E+00 0.  1.
</event>
<event>
12    1  0.1623092E-001  0.1822406E+03  0.7818608E-02  0.1166137E+00
         21   -1    0    0  501  502  0.00000000000E+00  0.00000000000E+00  0.87993047951E+02  0.87993047951E+02  0.00000000000E+00 0.  1.
         21   -1    0    0  502  503 -0.00000000000E+00 -0.00000000000E+00 -0.41087936021E+03  0.41087936021E+03  0.00000000000E+00 0.  1.
         -6    2    1    2    0  503  0.51986789473E+02 -0.28230963980E+02 -0.23610507947E+03  0.29702441018E+03  0.17023007397E+03 0.  0.
        -24    2    3    3    0    0 -0.10834828251E+02 -0.37577509007E+02 -0.53749496906E+02  0.10386757740E+03  0.79812295613E+02 0.  0.
          6    2    1    2  501    0 -0.51986789473E+02  0.28230963980E+02 -0.86781232785E+02  0.20184799798E+03  0.17237174454E+03 0.  0.
         24    2    5    5    0    0 -0.65158795975E+02  0.48902277439E+02 -0.11508179433E+03  0.16411450173E+03  0.83980050364E+02 0.  0.
          5    1    5    5  501    0  0.13172006502E+02 -0.20671313459E+02  0.28300561546E+02  0.37733496250E+02  0.47000000000E+01 0. -1.
        -13    1    6    6    0    0 -0.32507538826E+02  0.58162311341E+02 -0.31093646469E+02  0.73528289737E+02  0.00000000000E+00 0.  1.
         14    1    6    6    0    0 -0.32651257149E+02 -0.92600339019E+01 -0.83988147863E+02  0.90586211990E+02  0.00000000000E+00 0. -1.
         -5    1    3    3    0  503  0.62821617724E+02  0.93465450268E+01 -0.18235558256E+03  0.19315683278E+03  0.47000000000E+01 0.  1.
         13    1    4    4    0    0 -0.29887007775E+02  0.14277987282E+02 -0.25614277586E+02  0.41871056481E+02  0.00000000000E+00 0. -1.
        -14    1    4    4    0    0  0.19052179524E+02 -0.51855496289E+02 -0.28135219320E+02  0.61996520920E+02  0.00000000000E+00 0.  1.
</event>
<event>
12    1  0.1623092E-001  0.1782370E+03  0.7818608E-02  0.1170014E+00
         21   -1    0    0  501  502  0.00000000000E+00  0.00000000000E+00  0.79844613744E+02  0.79844613744E+02  0.00000000000E+00 0.  1.
         21   -1    0    0  502  503 -0.00000000000E+00 -0.00000000000E+00 -0.41471318082E+03  0.41471318082E+03  0.00000000000E+00 0. -1.
         -6    2    1    2    0  503 -0.27350370269E+01  0.38035112922E+02 -0.22256234136E+03  0.28388949142E+03  0.17206131845E+03 0.  0.
        -24    2    3    3    0    0  0.51677084668E+01 -0.39856774068E+02 -0.76459733622E+02  0.11806530310E+03  0.80486379474E+02 0.  0.
          6    2    1    2  501    0  0.27350370269E+01 -0.38035112922E+02 -0.11230622572E+03  0.21066830314E+03  0.17411000939E+03 0.  0.
         24    2    5    5    0    0 -0.49945301653E+02  0.39040627299E+01 -0.10704727282E+03  0.14296410000E+03  0.80435318159E+02 0.  0.
          5    1    5    5  501    0  0.52680338680E+02 -0.41939175652E+02 -0.52589528997E+01  0.67704203144E+02  0.47000000000E+01 0. -1.
        -13    1    6    6    0    0 -0.59841102474E+02  0.76685909138E+01 -0.34196842819E+02  0.69348315702E+02  0.00000000000E+00 0.  1.
         14    1    6    6    0    0  0.98958008211E+01 -0.37645281839E+01 -0.72850430002E+02  0.73615784298E+02  0.00000000000E+00 0. -1.
         -5    1    3    3    0  503 -0.79027454937E+01  0.77891886990E+02 -0.14610260774E+03  0.16582418832E+03  0.47000000000E+01 0.  1.
         13    1    4    4    0    0  0.43772437845E+01 -0.21958059323E+02 -0.91792590600E+02  0.94483841589E+02  0.00000000000E+00 0. -1.
        -14    1    4    4    0    0  0.79046468235E+00 -0.17898714746E+02  0.15332856978E+02  0.23581461512E+02  0.00000000000E+00 0.  1.
</event>
<event>
12    1  0.1623092E-001  0.2437551E+03  0.7818608E-02  0.1117518E+00
         21   -1    0    0  503  502  0.00000000000E+00  0.00000000000E+00  0.38597007656E+03  0.38597007656E+03  0.00000000000E+00 0. -1.
         21   -1    0    0  501  503 -0.00000000000E+00 -0.00000000000E+00 -0.35325579486E+03  0.35325579486E+03  0.00000000000E+00 0. -1.
          6    2    1    2  501    0  0.10145190919E+03 -0.13880599043E+03 -0.26183413879E+03  0.35689703626E+03  0.17105199618E+03 0.  0.
         24    2    3    3    0    0  0.12855691679E+03 -0.85681615446E+02 -0.23213501521E+03  0.29010625399E+03  0.80042196607E+02 0.  0.
         -6    2    1    2    0  502 -0.10145190919E+03  0.13880599043E+03  0.29454842049E+03  0.38232883517E+03  0.17279170503E+03 0.  0.
        -24    2    5    5    0    0 -0.96367751185E+02  0.29579989548E+02  0.20229400107E+03  0.23918856887E+03  0.78272532605E+02 0.  0.
          5    1    3    3  501    0 -0.27105007595E+02 -0.53124374987E+02 -0.29699123572E+02  0.66790782264E+02  0.47000000000E+01 0. -1.
        -11    1    4    4    0    0  0.23119450642E+02  0.42183181765E+00 -0.26377784725E+01  0.23273263959E+02  0.00000000000E+00 0.  1.
         12    1    4    4    0    0  0.10543746615E+03 -0.86103447264E+02 -0.22949723674E+03  0.26683299003E+03  0.00000000000E+00 0. -1.
         -5    1    5    5    0  502 -0.50841580067E+01  0.10922600088E+03  0.92254419420E+02  0.14314026629E+03  0.47000000000E+01 0.  1.
         11    1    6    6    0    0 -0.75420570308E+02  0.34734935352E+02  0.81027418290E+02  0.11601819113E+03  0.00000000000E+00 0. -1.
        -12    1    6    6    0    0 -0.20947180877E+02 -0.51549458032E+01  0.12126658278E+03  0.12317037774E+03  0.00000000000E+00 0.  1.
</event>
<event>
12    1  0.1623092E-001  0.1767796E+03  0.7818608E-02  0.1171727E+00
         21   -1    0    0  501  502  0.00000000000E+00  0.00000000000E+00  0.25667929644E+03  0.25667929644E+03  0.00000000000E+00 0. -1.
         21   -1    0    0  502  503 -0.00000000000E+00 -0.00000000000E+00 -0.11965522976E+03  0.11965522976E+03  0.00000000000E+00 0. -1.
         -6    2    1    2    0  503 -0.17111668832E+02  0.23759917622E+02  0.70195760593E+02  0.18734493665E+03  0.17121138276E+03 0.  0.
        -24    2    3    3    0    0 -0.61184831038E+02 -0.42626984879E+01  0.65434068191E+02  0.13469064570E+03  0.10048979357E+03 0.  0.
          6    2    1    2  501    0  0.17111668832E+02 -0.23759917622E+02  0.66828306085E+02  0.18898958956E+03  0.17433788909E+03 0.  0.
         24    2    5    5    0    0 -0.49888086510E+01 -0.28448424157E+02  0.11398814675E+03  0.13648669660E+03  0.69290112572E+02 0.  0.
          5    1    5    5  501    0  0.22100477483E+02  0.46885065352E+01 -0.47159840661E+02  0.52502892964E+02  0.47000000000E+01 0. -1.
        -11    1    6    6    0    0  0.83136004423E+01  0.20263891175E+02  0.52735947229E+02  0.57103602058E+02  0.00000000000E+00 0.  1.
         12    1    6    6    0    0 -0.13302409093E+02 -0.48712315332E+02  0.61252199517E+02  0.79383094537E+02  0.00000000000E+00 0. -1.
         -5    1    3    3    0  503  0.44073162206E+02  0.28022616110E+02  0.47616924019E+01  0.52654290946E+02  0.47000000000E+01 0.  1.
         13    1    4    4    0    0 -0.33124035125E+02  0.46860409104E+02  0.20026159534E+02  0.60779492512E+02  0.00000000000E+00 0. -1.
        -14    1    4    4    0    0 -0.28060795913E+02 -0.51123107592E+02  0.45407908657E+02  0.73911153189E+02  0.00000000000E+00 0.  1.
</event>
<event>
12    1  0.1623092E-001  0.1859785E+03  0.7818608E-02  0.1165558E+00
         21   -1    0    0  501  502  0.00000000000E+00  0.00000000000E+00  0.49425794342E+03  0.49425794342E+03  0.00000000000E+00 0. -1.
         21   -1    0    0  502  503 -0.00000000000E+00 -0.00000000000E+00 -0.18715203878E+03  0.18715203878E+03  0.00000000000E+00 0. -1.
         -6    2    1    2    0  503  0.12056221164E+02  0.48220436524E+01 -0.12399259598E+03  0.21190608442E+03  0.17135174403E+03 0.  0.
        -24    2    3    3    0    0  0.71311964105E+02  0.12607445097E+02 -0.52466694359E+02  0.11857923861E+03  0.77871290700E+02 0.  0.
          6    2    1    2  501    0 -0.12056221164E+02 -0.48220436524E+01  0.43109850062E+03  0.46950389777E+03  0.18552462966E+03 0.  0.
         24    2    5    5    0    0  0.27557398715E+02  0.90704359370E+01  0.83733379026E+02  0.11957982376E+03  0.80289304745E+02 0.  0.
          5    1    5    5  501    0 -0.39613619879E+02 -0.13892479589E+02  0.34736512160E+03  0.34992407401E+03  0.47000000000E+01 0. -1.
        -13    1    6    6    0    0  0.65211239349E+01 -0.15492344697E+02 -0.10589835583E+02  0.19866615697E+02  0.00000000000E+00 0.  1.
         14    1    6    6    0    0  0.21036274780E+02  0.24562780634E+02  0.94323214609E+02  0.99713208068E+02  0.00000000000E+00 0. -1.
         -5    1    3    3    0  503 -0.59255742941E+02 -0.77854014444E+01 -0.71525901621E+02  0.93326845815E+02  0.47000000000E+01 0.  1.
         11    1    4    4    0    0  0.29081340379E+02  0.43479366451E+02 -0.15611098753E+02  0.54588332723E+02  0.00000000000E+00 0. -1.
        -12    1    4    4    0    0  0.42230623726E+02 -0.30871921354E+02 -0.36855595606E+02  0.63990905884E+02  0.00000000000E+00 0.  1.
</event>
<event>
12    1  0.1623092E-001  0.1993127E+03  0.7818608E-02  0.1151815E+00
         21   -1    0    0  503  502  0.00000000000E+00  0.00000000000E+00  0.29032103139E+03  0.29032103139E+03  0.00000000000E+00 0. -1.
         21   -1    0    0  501  503 -0.00000000000E+00 -0.00000000000E+00 -0.39588631235E+03  0.39588631235E+03  0.00000000000E+00 0. -1.
          6    2    1    2  501    0 -0.85500466187E+02  0.15571767286E+02 -0.33251553449E+03  0.38416106752E+03  0.17164013363E+03 0.  0.
         24    2    3    3    0    0  0.43599419459E+01  0.48672475119E+02 -0.19034989324E+03  0.21268596916E+03  0.81327859263E+02 0.  0.
         -6    2    1    2    0  502  0.85500466187E+02 -0.15571767286E+02  0.22695025353E+03  0.30204627622E+03  0.17936757161E+03 0.  0.
        -24    2    5    5    0    0  0.78604001125E+01  0.51436504974E+02  0.88485207913E+02  0.12967241721E+03  0.79232593245E+02 0.  0.
          5    1    3    3  501    0 -0.89860408133E+02 -0.33100707833E+02 -0.14216564125E+03  0.17147509837E+03  0.47000000000E+01 0. -1.
        -13    1    4    4    0    0  0.98433124563E+01 -0.65665039404E+01  0.24245304050E+01  0.12078415533E+02  0.00000000000E+00 0.  1.
         14    1    4    4    0    0 -0.54833705104E+01  0.55238979059E+02 -0.19277442364E+03  0.20060755362E+03  0.00000000000E+00 0. -1.
         -5    1    5    5    0  502  0.77640066075E+02 -0.67008272260E+02  0.13846504562E+03  0.17237385901E+03  0.47000000000E+01 0.  1.
         13    1    6    6    0    0  0.32892346728E+02  0.39143051754E+02  0.88006792351E+02  0.10178055057E+03  0.00000000000E+00 0. -1.
        -14    1    6    6    0    0 -0.25031946616E+02  0.12293453220E+02  0.47841556199E+00  0.27891866644E+02  0.00000000000E+00 0.  1.
</event>
<event>
12    1  0.1623092E-001  0.1965942E+03  0.7818608E-02  0.1152873E+00
         21   -1    0    0  501  502  0.00000000000E+00  0.00000000000E+00  0.60286818053E+03  0.60286818053E+03  0.00000000000E+00 0. -1.
         21   -1    0    0  502  503 -0.00000000000E+00 -0.00000000000E+00 -0.15211345372E+03  0.15211345372E+03  0.00000000000E+00 0. -1.
         -6    2    1    2    0  503 -0.77419626143E+02 -0.61679630875E+02 -0.62564884907E+02  0.20530326988E+03  0.16863241807E+03 0.  0.
        -24    2    3    3    0    0 -0.56891134400E+02 -0.10735571571E+03 -0.58724049152E+02  0.15485958130E+03  0.75967921535E+02 0.  0.
          6    2    1    2  501    0  0.77419626143E+02  0.61679630875E+02  0.51331961173E+03  0.54967836437E+03  0.16985613059E+03 0.  0.
         24    2    5    5    0    0 -0.14218199295E+02  0.65551483363E+02  0.26208901246E+03  0.28218745555E+03  0.80249333064E+02 0.  0.
          5    1    5    5  501    0  0.91637825438E+02 -0.38718524879E+01  0.25123059927E+03  0.26749090882E+03  0.47000000000E+01 0. -1.
        -11    1    6    6    0    0 -0.52414329646E+01  0.94641575683E+01  0.19047554757E+03  0.19078253883E+03  0.00000000000E+00 0.  1.
         12    1    6    6    0    0 -0.89767663299E+01  0.56087325794E+02  0.71613464882E+02  0.91404916722E+02  0.00000000000E+00 0. -1.
         -5    1    3    3    0  503 -0.20528491743E+02  0.45676084831E+02 -0.38408357547E+01  0.50443688584E+02  0.47000000000E+01 0.  1.
         11    1    4    4    0    0 -0.62046252476E+02 -0.36326931503E+02 -0.25629710490E+02  0.76329977457E+02  0.00000000000E+00 0. -1.
        -12    1    4    4    0    0  0.51551180758E+01 -0.71028784202E+02 -0.33094338662E+02  0.78529603839E+02  0.00000000000E+00 0.  1.
</event>
<event>
12    1  0.1623092E-001  0.2175877E+03  0.7818608E-02  0.1136041E+00
         21   -1    0    0  501  502  0.00000000000E+00  0.00000000000E+00  0.69227413768E+02  0.69227413768E+02  0.00000000000E+00 0. -1.
         21   -1    0    0  502  503 -0.00000000000E+00 -0.00000000000E+00 -0.14482848162E+04  0.14482848162E+04  0.00000000000E+00 0.  1.
         -6    2    1    2    0  503 -0.87231095030E+02  0.10504484612E+03 -0.12441715396E+04  0.12630547283E+04  0.16941293608E+03 0.  0.
        -24    2    3    3    0    0 -0.90279779899E+02  0.13743336611E+03 -0.10945508552E+04  0.11098661193E+04  0.81993044584E+02 0.  0.
          6    2    1    2  501    0  0.87231095030E+02 -0.10504484612E+03 -0.13488586275E+03  0.25445750166E+03  0.16706507877E+03 0.  0.
         24    2    5    5    0    0  0.26992851665E+02  0.11938764039E+02 -0.58091284712E+02  0.10203273915E+03  0.78517096051E+02 0.  0.
          5    1    5    5  501    0  0.60238243365E+02 -0.11698361016E+03 -0.76794578042E+02  0.15242476251E+03  0.47000000000E+01 0. -1.
        -11    1    6    6    0    0  0.35730980670E+02  0.20055778009E+02 -0.72530853333E+02  0.83304633103E+02  0.00000000000E+00 0.  1.
         12    1    6    6    0    0 -0.87381290054E+01 -0.81170139698E+01  0.14439568622E+02  0.18728106052E+02  0.00000000000E+00 0. -1.
         -5    1    3    3    0  503  0.30486848690E+01 -0.32388519991E+02 -0.14962068442E+03  0.15318860895E+03  0.47000000000E+01 0.  1.
         13    1    4    4    0    0  0.42696778052E+01  0.45298656371E+02 -0.42467964752E+03  0.42711005776E+03  0.00000000000E+00 0. -1.
        -14    1    4    4    0    0 -0.94549457704E+02  0.92134709737E+02 -0.66987120769E+03  0.68275606155E+03  0.00000000000E+00 0.  1.
</event>
<event>
12    1  0.1623092E-001  0.2472947E+03  0.7818608E-02  0.1115083E+00
         21   -1    0    0  501  502  0.00000000000E+00  0.00000000000E+00  0.18499795778E+03  0.18499795778E+03  0.00000000000E+00 0.  1.
         21   -1    0    0  502  503 -0.00000000000E+00 -0.00000000000E+00 -0.41064006912E+03  0.41064006912E+03  0.00000000000E+00 0.  1.
         -6    2    1    2    0  503 -0.32200590735E+02 -0.17357406537E+03 -0.24465269048E+03  0.34761364597E+03  0.17267157754E+03 0.  0.
        -24    2    3    3    0    0 -0.66151005950E+02 -0.10118731536E+03 -0.83049299724E+02  0.16725229153E+03  0.80382301901E+02 0.  0.
          6    2    1    2  501    0  0.32200590735E+02  0.17357406537E+03  0.19010579141E+02  0.24802438094E+03  0.17317579856E+03 0.  0.
         24    2    5    5    0    0  0.25162114665E+02  0.19970205093E+03 -0.71603245028E+01  0.21008735454E+03  0.59761067007E+02 0.  0.
          5    1    5    5  501    0  0.70384760700E+01 -0.26127985555E+02  0.26170903644E+02  0.37937026400E+02  0.47000000000E+01 0. -1.
        -11    1    6    6    0    0  0.44582023090E+02  0.12267938358E+03 -0.38821127644E+01  0.13058659479E+03  0.00000000000E+00 0.  1.
         12    1    6    6    0    0 -0.19419908425E+02  0.77022667345E+02 -0.32782117384E+01  0.79500759747E+02  0.00000000000E+00 0. -1.
         -5    1    3    3    0  503  0.33950415215E+02 -0.72386750016E+02 -0.16160339076E+03  0.18036135444E+03  0.47000000000E+01 0.  1.
         13    1    4    4    0    0  0.29127044345E+01  0.63298064248E+01  0.78019712464E+01  0.10460451798E+02  0.00000000000E+00 0. -1.
        -14    1    4    4    0    0 -0.69063710385E+02 -0.10751712178E+03 -0.90851270970E+02  0.15679183973E+03  0.00000000000E+00 0.  1.
</event>
<event>
12    1  0.1623092E-001  0.1828136E+03  0.7818608E-02  0.1165414E+00
         21   -1    0    0  503  502  0.00000000000E+00  0.00000000000E+00  0.23729573313E+02  0.23729573313E+02  0.00000000000E+00 0.  1.
         21   -1    0    0  501  503 -0.00000000000E+00 -0.00000000000E+00 -0.22448961705E+04  0.22448961705E+04  0.00000000000E+00 0.  1.
          6    2    1    2  501    0  0.61244057642E+02  0.38062350781E+01 -0.18046354988E+04  0.18137422937E+04  0.17084057615E+03 0.  0.
         24    2    3    3    0    0  0.14502634734E+02  0.49131896695E+01 -0.16520431116E+04  0.16540785452E+04  0.80591098764E+02 0.  0.
         -6    2    1    2    0  502 -0.61244057642E+02 -0.38062350781E+01 -0.41653109841E+03  0.45488345012E+03  0.17220765148E+03 0.  0.
        -24    2    5    5    0    0 -0.13136857344E+02 -0.65281462099E+02 -0.25686105864E+03  0.27709110535E+03  0.79797436713E+02 0.  0.
          5    1    3    3  501    0  0.46741422908E+02 -0.11069545914E+01 -0.15259238717E+03  0.15966374851E+03  0.47000000000E+01 0. -1.
        -13    1    4    4    0    0  0.41832635496E+02  0.15696978313E+02 -0.61571927558E+03  0.61733831150E+03  0.00000000000E+00 0.  1.
         14    1    4    4    0    0 -0.27330000763E+02 -0.10783788644E+02 -0.10363238360E+04  0.10367402337E+04  0.00000000000E+00 0. -1.
         -5    1    5    5    0  502 -0.48107200298E+02  0.61475227020E+02 -0.15967003978E+03  0.17779234477E+03  0.47000000000E+01 0.  1.
         13    1    6    6    0    0 -0.10451015193E+02 -0.41598707179E+02 -0.39128452010E+02  0.58057832497E+02  0.00000000000E+00 0. -1.
        -14    1    6    6    0    0 -0.26858421511E+01 -0.23682754920E+02 -0.21773260663E+03  0.21903327286E+03  0.00000000000E+00 0.  1.
</event>
<event>
12    1  0.1623092E-001  0.1748216E+03  0.7818608E-02  0.1173482E+00
         21   -1    0    0  501  502  0.00000000000E+00  0.00000000000E+00  0.74358232553E+02  0.74358232553E+02  0.00000000000E+00 0.  1.
         21   -1    0    0  502  503 -0.00000000000E+00 -0.00000000000E+00 -0.50663252873E+03  0.50663252873E+03  0.00000000000E+00 0.  1.
         -6    2    1    2    0  503 -0.25396816665E+02  0.13415666980E+01 -0.34689793368E+03  0.38845949769E+03  0.17296186533E+03 0.  0.
        -24    2    3    3    0    0 -0.70263876723E+02  0.90717247525E+01 -0.31807009017E+03  0.33436751138E+03  0.74924908044E+02 0.  0.
          6    2    1    2  501    0  0.25396816665E+02 -0.13415666980E+01 -0.85376362501E+02  0.19253126359E+03  0.17068206141E+03 0.  0.
         24    2    5    5    0    0  0.94069809644E+01 -0.30691078492E+02  0.16736175525E+02  0.84985324058E+02  0.76889350005E+02 0.  0.
          5    1    5    5  501    0  0.15989835700E+02  0.29349511794E+02 -0.10211253803E+03  0.10754593953E+03  0.47000000000E+01 0. -1.
        -13    1    6    6    0    0  0.28163621322E+02 -0.42625095670E+02 -0.80172388411E+01  0.51714257855E+02  0.00000000000E+00 0.  1.
         14    1    6    6    0    0 -0.18756640358E+02  0.11934017179E+02  0.24753414366E+02  0.33271066203E+02  0.00000000000E+00 0. -1.
         -5    1    3    3    0  503  0.44867060058E+02 -0.77301580545E+01 -0.28827843511E+02  0.54091986313E+02  0.47000000000E+01 0.  1.
         13    1    4    4    0    0  0.24997415887E+01  0.39115675537E+01 -0.16226594377E+03  0.16233233065E+03  0.00000000000E+00 0. -1.
        -14    1    4    4    0    0 -0.72763618312E+02  0.51601571988E+01 -0.15580414640E+03  0.17203518073E+03  0.00000000000E+00 0.  1.
</event>
<event>
12    1  0.1623092E-001  0.2026696E+03  0.7818608E-02  0.1147872E+00
         21   -1    0    0  501  502  0.00000000000E+00  0.00000000000E+00  0.33896975972E+03  0.33896975972E+03  0.00000000000E+00 0. -1.
         21   -1    0    0  502  503 -0.00000000000E+00 -0.00000000000E+00 -0.12272658823E+03  0.12272658823E+03  0.00000000000E+00 0.  1.
         -6    2    1    2    0  503  0.10329410179E+03 -0.25817596993E+02  0.14216782999E+03  0.24756142847E+03  0.17244926559E+03 0.  0.
        -24    2    3    3    0    0  0.10901787717E+03 -0.73042337093E+02  0.11948644173E+03  0.19465138164E+03  0.79950422557E+02 0.  0.
          6    2    1    2  501    0 -0.10329410179E+03  0.25817596993E+02  0.74075341488E+02  0.21413491948E+03  0.17038306179E+03 0.  0.
         24    2    5    5    0    0 -0.89099473149E+02 -0.24159274509E+02  0.75622755535E+01  0.12960532048E+03  0.90652989051E+02 0.  0.
          5    1    5    5  501    0 -0.14194628642E+02  0.49976871502E+02  0.66513065934E+02  0.84529599002E+02  0.47000000000E+01 0. -1.
        -11    1    6    6    0    0 -0.59261163591E+02  0.25641116150E+02  0.24606048611E+02  0.69099999825E+02  0.00000000000E+00 0.  1.
         12    1    6    6    0    0 -0.29838309558E+02 -0.49800390659E+02 -0.17043773058E+02  0.60505320651E+02  0.00000000000E+00 0. -1.
         -5    1    3    3    0  503 -0.57237753799E+01  0.47224740100E+02  0.22681388264E+02  0.52910046831E+02  0.47000000000E+01 0.  1.
         13    1    4    4    0    0  0.93799105017E+02 -0.85152887815E+02  0.77844021692E+02  0.14869088109E+03  0.00000000000E+00 0. -1.
        -14    1    4    4    0    0  0.15218772154E+02  0.12110550722E+02  0.41642420038E+02  0.45960500555E+02  0.00000000000E+00 0.  1.
</event>
<event>
12    1  0.1623092E-001  0.1830257E+03  0.7818608E-02  0.1165747E+00
         21   -1    0    0  503  502  0.00000000000E+00  0.00000000000E+00  0.13010670278E+03  0.13010670278E+03  0.00000000000E+00 0.  1.
         21   -1    0    0  501  503 -0.00000000000E+00 -0.00000000000E+00 -0.31798089558E+03  0.31798089558E+03  0.00000000000E+00 0.  1.
          6    2    1    2  501    0  0.14937435859E+02 -0.61841556935E+02  0.69670853257E+01  0.18315828857E+03  0.17161268380E+03 0.  0.
         24    2    3    3    0    0  0.29197768858E+02 -0.18045448056E+02 -0.57388836268E+02  0.10387884045E+03  0.79493314585E+02 0.  0.
         -6    2    1    2    0  502 -0.14937435859E+02  0.61841556935E+02 -0.19484127812E+03  0.26492930979E+03  0.16785979378E+03 0.  0.
        -24    2    5    5    0    0 -0.66619630234E+02  0.52927189468E+02 -0.90740618974E+02  0.14826932351E+03  0.80687482578E+02 0.  0.
          5    1    3    3  501    0 -0.14260333000E+02 -0.43796108879E+02  0.64355921594E+02  0.79279448121E+02  0.47000000000E+01 0. -1.
        -13    1    4    4    0    0 -0.21207957261E+02 -0.16483505595E+02  0.80728488566E+00  0.26872571830E+02  0.00000000000E+00 0.  1.
         14    1    4    4    0    0  0.50405726119E+02 -0.15619424613E+01 -0.58196121153E+02  0.77006268623E+02  0.00000000000E+00 0. -1.
         -5    1    5    5    0  502  0.51682194376E+02  0.89143674672E+01 -0.10410065915E+03  0.11665998628E+03  0.47000000000E+01 0.  1.
         13    1    6    6    0    0 -0.16771588587E+02 -0.21739714826E+02 -0.19953484175E+02  0.33941757691E+02  0.00000000000E+00 0. -1.
        -14    1    6    6    0    0 -0.49848041647E+02  0.74666904295E+02 -0.70787134799E+02  0.11432756582E+03  0.00000000000E+00 0.  1.
</event>
<event>
12    1  0.1623092E-001  0.3015991E+03  0.7818608E-02  0.1084615E+00
         21   -1    0    0  501  502  0.00000000000E+00  0.00000000000E+00  0.81223393360E+03  0.81223393360E+03  0.00000000000E+00 0. -1.
         21   -1    0    0  502  503 -0.00000000000E+00 -0.00000000000E+00 -0.13153984269E+03  0.13153984269E+03  0.00000000000E+00 0.  1.
         -6    2    1    2    0  503  0.19541834312E+03 -0.15144561210E+03  0.15540586460E+03  0.33805953034E+03  0.17032075932E+03 0.  0.
        -24    2    3    3    0    0  0.17746965598E+03 -0.58415731933E+02  0.86711966652E+02  0.22093713458E+03  0.79914803035E+02 0.  0.
          6    2    1    2  501    0 -0.19541834312E+03  0.15144561210E+03  0.52528822632E+03  0.60571424595E+03  0.17273657630E+03 0.  0.
         24    2    5    5    0    0 -0.19777953173E+03  0.76255017080E+02  0.41304228715E+03  0.47050906243E+03  0.76441324276E+02 0.  0.
          5    1    5    5  501    0  0.23611886105E+01  0.75190595023E+02  0.11224593917E+03  0.13520518352E+03  0.47000000000E+01 0. -1.
        -13    1    6    6    0    0 -0.11461810850E+03  0.61222910946E+02  0.17542014432E+03  0.21830662531E+03  0.00000000000E+00 0.  1.
         14    1    6    6    0    0 -0.83161423225E+02  0.15032106134E+02  0.23762214282E+03  0.25220243712E+03  0.00000000000E+00 0. -1.
         -5    1    3    3    0  503  0.17948687130E+02 -0.93029880169E+02  0.68693897943E+02  0.11712239576E+03  0.47000000000E+01 0.  1.
         11    1    4    4    0    0 -0.34932374088E+01  0.47800001848E+01 -0.56332817985E+01  0.81722073629E+01  0.00000000000E+00 0. -1.
        -12    1    4    4    0    0  0.18096289339E+03 -0.63195732118E+02  0.92345248451E+02  0.21276492722E+03  0.00000000000E+00 0.  1.
</event>
<event>
12    1  0.1623092E-001  0.1752393E+03  0.7818608E-02  0.1172844E+00
         21   -1    0    0  501  502  0.00000000000E+00  0.00000000000E+00  0.81133573531E+02  0.81133573531E+02  0.00000000000E+00 0.  1.
         21   -1    0    0  502  503 -0.00000000000E+00 -0.00000000000E+00 -0.40588902917E+03  0.40588902917E+03  0.00000000000E+00 0.  1.
         -6    2    1    2    0  503 -0.28973955794E+02 -0.74035042337E+01 -0.22963240350E+03  0.28885957480E+03  0.17266879055E+03 0.  0.
        -24    2    3    3    0    0 -0.43554413949E+02 -0.22591395943E+02 -0.47622587316E+02  0.10557584666E+03  0.80442466589E+02 0.  0.
          6    2    1    2  501    0  0.28973955794E+02  0.74035042337E+01 -0.95123052138E+02  0.19816302789E+03  0.17124803236E+03 0.  0.
         24    2    5    5    0    0 -0.43600315053E+02  0.31416730569E+02 -0.66099782074E+02  0.11626003629E+03  0.79115209764E+02 0.  0.
          5    1    5    5  501    0  0.72574270847E+02 -0.24013226335E+02 -0.29023270063E+02  0.81902991601E+02  0.47000000000E+01 0. -1.
        -11    1    6    6    0    0 -0.29994662382E+02  0.13775076783E+02  0.11942055275E+02  0.35100501364E+02  0.00000000000E+00 0.  1.
         12    1    6    6    0    0 -0.13605652671E+02  0.17641653786E+02 -0.78041837350E+02  0.81159534929E+02  0.00000000000E+00 0. -1.
         -5    1    3    3    0  503  0.14580458155E+02  0.15187891709E+02 -0.18200981618E+03  0.18328372814E+03  0.47000000000E+01 0.  1.
         13    1    4    4    0    0 -0.57031980020E+02  0.10846485567E+02 -0.26786613630E+02  0.63936027902E+02  0.00000000000E+00 0. -1.
        -14    1    4    4    0    0  0.13477566071E+02 -0.33437881510E+02 -0.20835973686E+02  0.41639818761E+02  0.00000000000E+00 0.  1.
</event>
<event>
12    1  0.1623092E-001  0.2532451E+03  0.7818608E-02  0.1111395E+00
         21   -1    0    0  501  502  0.00000000000E+00  0.00000000000E+00  0.22705594446E+03  0.22705594446E+03  0.00000000000E+00 0.  1.
         21   -1    0    0  502  503 -0.00000000000E+00 -0.00000000000E+00 -0.42235221093E+03  0.42235221093E+03  0.00000000000E+00 0. -1.
         -6    2    1    2    0  503  0.52719648680E+02  0.17660885153E+03 -0.28521829518E+03  0.38142175322E+03  0.17367507055E+03 0.  0.
        -24    2    3    3    0    0 -0.19938953199E+02  0.14830817024E+03 -0.23089252774E+03  0.28627145109E+03  0.79038655899E+02 0.  0.
          6    2    1    2  501    0 -0.52719648680E+02 -0.17660885153E+03  0.89922028711E+02  0.26798640216E+03  0.17251287691E+03 0.  0.
         24    2    5    5    0    0 -0.96984685344E+02 -0.15843050681E+03  0.55467186089E+02  0.20883344900E+03  0.77643711974E+02 0.  0.
          5    1    5    5  501    0  0.44265036664E+02 -0.18178344715E+02  0.34454842621E+02  0.59152953160E+02  0.47000000000E+01 0. -1.
        -11    1    6    6    0    0 -0.40825039617E+02 -0.13398895599E+03  0.37444762649E+02  0.14498908385E+03  0.00000000000E+00 0.  1.
         12    1    6    6    0    0 -0.56159645727E+02 -0.24441550829E+02  0.18022423440E+02  0.63844365153E+02  0.00000000000E+00 0. -1.
         -5    1    3    3    0  503  0.72658601878E+02  0.28300681285E+02 -0.54325767437E+02  0.95150302131E+02  0.47000000000E+01 0.  1.
         11    1    4    4    0    0 -0.47977404857E+02  0.76109841913E+02 -0.10306035507E+03  0.13680634561E+03  0.00000000000E+00 0. -1.
        -12    1    4    4    0    0  0.28038451658E+02  0.72198328331E+02 -0.12783217267E+03  0.14946510548E+03  0.00000000000E+00 0.  1.
</event>
<event>
12    1  0.1623092E-001  0.2554239E+03  0.7818608E-02  0.1110170E+00
         21   -1    0    0  501  502  0.00000000000E+00  0.00000000000E+00  0.25392193996E+03  0.25392193996E+03  0.00000000000E+00 0. -1.
         21   -1    0    0  502  503 -0.00000000000E+00 -0.00000000000E+00 -0.27646132972E+03  0.27646132972E+03  0.00000000000E+00 0.  1.
         -6    2    1    2    0  503 -0.80668299000E+02 -0.16875870798E+03 -0.84612930649E+02  0.26907382726E+03  0.17393820886E+03 0.  0.
        -24    2    3    3    0    0 -0.38827283614E+02 -0.79330787208E+02  0.24980058296E+02  0.12149084447E+03  0.79593280033E+02 0.  0.
          6    2    1    2  501    0  0.80668299000E+02  0.16875870798E+03  0.62073540889E+02  0.26130944242E+03  0.17158853177E+03 0.  0.
         24    2    5    5    0    0  0.68569005283E+02  0.30851268268E+02  0.51614839618E+02  0.12239821440E+03  0.81631623659E+02 0.  0.
          5    1    5    5  501    0  0.12099293717E+02  0.13790743971E+03  0.10458701270E+02  0.13891122802E+03  0.47000000000E+01 0. -1.
        -13    1    6    6    0    0  0.59541591303E+01  0.84462838969E+01 -0.21322246414E+02  0.23694512334E+02  0.00000000000E+00 0.  1.
         14    1    6    6    0    0  0.62614846153E+02  0.22404984372E+02  0.72937086032E+02  0.98703702070E+02  0.00000000000E+00 0. -1.
         -5    1    3    3    0  503 -0.41841015386E+02 -0.89427920774E+02 -0.10959298895E+03  0.14758298279E+03  0.47000000000E+01 0.  1.
         11    1    4    4    0    0 -0.23542377193E+02 -0.81353807905E+01  0.40017905293E+02  0.47136617279E+02  0.00000000000E+00 0. -1.
        -12    1    4    4    0    0 -0.15284906421E+02 -0.71195406417E+02 -0.15037846997E+02  0.74354227193E+02  0.00000000000E+00 0.  1.
</event>
<event>
12    1  0.1623092E-001  0.2446187E+03  0.7818608E-02  0.1116854E+00
         21   -1    0    0  503  502  0.00000000000E+00  0.00000000000E+00  0.81326951851E+03  0.81326951851E+03  0.00000000000E+00 0.  1.
         21   -1    0    0  501  503 -0.00000000000E+00 -0.00000000000E+00 -0.80601107556E+02  0.80601107556E+02  0.00000000000E+00 0.  1.
          6    2    1    2  501    0 -0.46225020856E+02 -0.16688378066E+03  0.23309503320E+03  0.33789291081E+03  0.17277550716E+03 0.  0.
         24    2    3    3    0    0 -0.59404571987E+02 -0.18743141171E+03  0.18380088879E+03  0.28268504559E+03  0.86421241652E+02 0.  0.
         -6    2    1    2    0  502  0.46225020856E+02  0.16688378066E+03  0.49957337776E+03  0.55597771526E+03  0.17190320328E+03 0.  0.
        -24    2    5    5    0    0 -0.28543483321E+02  0.11382950817E+03  0.38947171340E+03  0.41262656758E+03  0.69286227795E+02 0.  0.
          5    1    3    3  501    0  0.13179551132E+02  0.20547631051E+02  0.49294144407E+02  0.55207865225E+02  0.47000000000E+01 0. -1.
        -11    1    4    4    0    0 -0.40724714095E+02 -0.40065818339E+02  0.91277761058E+02  0.10768194742E+03  0.00000000000E+00 0.  1.
         12    1    4    4    0    0 -0.18679857892E+02 -0.14736559337E+03  0.92523127734E+02  0.17500309816E+03  0.00000000000E+00 0. -1.
         -5    1    5    5    0  502  0.74768504177E+02  0.53054272490E+02  0.11010166436E+03  0.14335114768E+03  0.47000000000E+01 0.  1.
         11    1    6    6    0    0  0.15831832133E+02  0.15803145219E+02  0.12699508967E+03  0.12895014194E+03  0.00000000000E+00 0. -1.
        -12    1    6    6    0    0 -0.44375315454E+02  0.98026362952E+02  0.26247662374E+03  0.28367642564E+03  0.00000000000E+00 0.  1.
</event>
<event>
12    1  0.1623092E-001  0.4242276E+03  0.7818608E-02  0.1035733E+00
         21   -1    0    0  501  502  0.00000000000E+00  0.00000000000E+00  0.89111786240E+03  0.89111786240E+03  0.00000000000E+00 0. -1.
         21   -1    0    0  502  503 -0.00000000000E+00 -0.00000000000E+00 -0.21296752272E+03  0.21296752272E+03  0.00000000000E+00 0.  1.
         -6    2    1    2    0  503  0.38723271853E+03  0.21114653730E+02  0.46556712286E+03  0.62957442361E+03  0.17092747607E+03 0.  0.
        -24    2    3    3    0    0  0.39848593141E+03  0.28413381724E+02  0.43408037027E+03  0.59502863053E+03  0.77684911713E+02 0.  0.
          6    2    1    2  501    0 -0.38723271853E+03 -0.21114653730E+02  0.21258321682E+03  0.47451096150E+03  0.17197099061E+03 0.  0.
         24    2    5    5    0    0 -0.23331098556E+03  0.19789430114E+02  0.61622747446E+02  0.25502019344E+03  0.80076828909E+02 0.  0.
          5    1    5    5  501    0 -0.15392173296E+03 -0.40904083844E+02  0.15096046937E+03  0.21949076807E+03  0.47000000000E+01 0. -1.
        -13    1    6    6    0    0 -0.14394663995E+03 -0.27039422801E+02  0.40187516932E+02  0.15187758905E+03  0.00000000000E+00 0.  1.
         14    1    6    6    0    0 -0.89364345614E+02  0.46828852915E+02  0.21435230514E+02  0.10314260439E+03  0.00000000000E+00 0. -1.
         -5    1    3    3    0  503 -0.11253212884E+02 -0.72987279946E+01  0.31486752597E+02  0.34545793082E+02  0.47000000000E+01 0.  1.
         13    1    4    4    0    0  0.15725621360E+03  0.49079754381E+02  0.18317639754E+03  0.24635732508E+03  0.00000000000E+00 0. -1.
        -14    1    4    4    0    0  0.24122971781E+03 -0.20666372657E+02  0.25090397273E+03  0.34867130545E+03  0.00000000000E+00 0.  1.
</event>
<event>
12    1  0.1623092E-001  0.1958975E+03  0.7818608E-02  0.1153485E+00
         21   -1    0    0  503  502  0.00000000000E+00  0.00000000000E+00  0.28135806706E+03  0.28135806706E+03  0.00000000000E+00 0. -1.
         21   -1    0    0  501  503 -0.00000000000E+00 -0.00000000000E+00 -0.24411893759E+03  0.24411893759E+03  0.00000000000E+00 0. -1.
          6    2    1    2  501    0 -0.31759830297E+02  0.88144870423E+02 -0.15649948958E+03  0.25073475508E+03  0.17203959477E+03 0.  0.
         24    2    3    3    0    0 -0.24124219148E+01  0.69157924536E+02 -0.17983973416E+03  0.20844253937E+03  0.79481594908E+02 0.  0.
         -6    2    1    2    0  502  0.31759830297E+02 -0.88144870423E+02  0.19373861905E+03  0.27474224957E+03  0.17079357770E+03 0.  0.
        -24    2    5    5    0    0  0.29083157784E+02 -0.27053347919E+02  0.19401627881E+03  0.21341113354E+03  0.79525353037E+02 0.  0.
          5    1    3    3  501    0 -0.29347408382E+02  0.18986945887E+02  0.23340244586E+02  0.42292215716E+02  0.47000000000E+01 0. -1.
        -13    1    4    4    0    0 -0.23498057337E+02 -0.33529094671E+01 -0.17793327803E+02  0.29664848134E+02  0.00000000000E+00 0.  1.
         14    1    4    4    0    0  0.21085635422E+02  0.72510834003E+02 -0.16204640636E+03  0.17877769123E+03  0.00000000000E+00 0. -1.
         -5    1    5    5    0  502  0.26766725128E+01 -0.61091522504E+02 -0.27765976316E+00  0.61331116022E+02  0.47000000000E+01 0.  1.
         13    1    6    6    0    0  0.36730550975E+02 -0.26785819742E+02  0.44219591211E+02  0.63419127722E+02  0.00000000000E+00 0. -1.
        -14    1    6    6    0    0 -0.76473931905E+01 -0.26752817718E+00  0.14979668760E+03  0.14999200582E+03  0.00000000000E+00 0.  1.
</event>
<event>
12    1  0.1623092E-001  0.1868280E+03  0.7818608E-02  0.1161944E+00
         21   -1    0    0  501  502  0.00000000000E+00  0.00000000000E+00  0.47872239016E+02  0.47872239016E+02  0.00000000000E+00 0.  1.
         21   -1    0    0  502  503 -0.00000000000E+00 -0.00000000000E+00 -0.81337536081E+03  0.81337536081E+03  0.00000000000E+00 0.  1.
         -6    2    1    2    0  503  0.24339630588E+02  0.61886283828E+02 -0.23857570564E+03  0.30302319173E+03  0.17459197480E+03 0.  0.
        -24    2    3    3    0    0 -0.29319601241E+02 -0.14021702878E+02 -0.69135611365E+02  0.10970125518E+03  0.78729825735E+02 0.  0.
          6    2    1    2  501    0 -0.24339630588E+02 -0.61886283828E+02 -0.52692741615E+03  0.55822440809E+03  0.17187105094E+03 0.  0.
         24    2    5    5    0    0  0.26177690902E+02 -0.34100493662E+01 -0.40681857493E+03  0.41532691508E+03  0.79361158936E+02 0.  0.
          5    1    5    5  501    0 -0.50517321491E+02 -0.58476234462E+02 -0.12010884123E+03  0.14289749301E+03  0.47000000000E+01 0. -1.
        -11    1    6    6    0    0  0.17685345142E+02 -0.22997916443E+02 -0.49531081937E+02  0.57402122534E+02  0.00000000000E+00 0.  1.
         12    1    6    6    0    0  0.84923457606E+01  0.19587867077E+02 -0.35728749299E+03  0.35792479255E+03  0.00000000000E+00 0. -1.
         -5    1    3    3    0  503  0.53659231829E+02  0.75907986706E+02 -0.16944009427E+03  0.19332193656E+03  0.47000000000E+01 0.  1.
         13    1    4    4    0    0  0.27328345787E+02 -0.42725218125E+01 -0.21038328262E+02  0.34752038532E+02  0.00000000000E+00 0. -1.
        -14    1    4    4    0    0 -0.56647947028E+02 -0.97491810657E+01 -0.48097283103E+02  0.74949216646E+02  0.00000000000E+00 0.  1.
</event>
<event>
12    1  0.1623092E-001  0.2484985E+03  0.7818608E-02  0.1114459E+00
         21   -1    0    0  503  502  0.00000000000E+00  0.00000000000E+00  0.17110725369E+03  0.17110725369E+03  0.00000000000E+00 0. -1.
         21   -1    0    0  501  503 -0.00000000000E+00 -0.00000000000E+00 -0.41376208041E+03  0.41376208041E+03  0.00000000000E+00 0.  1.
          6    2    1    2  501    0 -0.17757320581E+03 -0.15893941766E+02 -0.14727421048E+02  0.24767144357E+03  0.17128743744E+03 0.  0.
         24    2    3    3    0    0 -0.16867598123E+03 -0.48511807309E+02 -0.33042173377E+02  0.20893378863E+03  0.10842767504E+03 0.  0.
         -6    2    1    2    0  502  0.17757320581E+03  0.15893941766E+02 -0.22792740567E+03  0.33719789052E+03  0.17310879328E+03 0.  0.
        -24    2    5    5    0    0  0.18820163311E+03 -0.24944263091E+02 -0.18144933306E+03  0.27424533953E+03  0.79022622208E+02 0.  0.
          5    1    3    3  501    0 -0.88972245775E+01  0.32617865544E+02  0.18314752330E+02  0.38737654946E+02  0.47000000000E+01 0. -1.
        -13    1    4    4    0    0 -0.70058572855E+02 -0.64188001872E+02 -0.50437488281E+02  0.10757436237E+03  0.00000000000E+00 0.  1.
         14    1    4    4    0    0 -0.98617408379E+02  0.15676194562E+02  0.17395314904E+02  0.10135942626E+03  0.00000000000E+00 0. -1.
         -5    1    5    5    0  502 -0.10628427299E+02  0.40838204857E+02 -0.46478072611E+02  0.62952550993E+02  0.47000000000E+01 0.  1.
         11    1    6    6    0    0  0.75435520937E+02 -0.47412734034E+02 -0.62687018478E+02  0.10894102741E+03  0.00000000000E+00 0. -1.
        -12    1    6    6    0    0  0.11276611217E+03  0.22468470943E+02 -0.11876231458E+03  0.16530431212E+03  0.00000000000E+00 0.  1.
</event>
<event>
12    1  0.1623092E-001  0.2687517E+03  0.7818608E-02  0.1102739E+00
         21   -1    0    0  503  502  0.00000000000E+00  0.00000000000E+00  0.49409899166E+02  0.49409899166E+02  0.00000000000E+00 0.  1.
         21   -1    0    0  501  503 -0.00000000000E+00 -0.00000000000E+00 -0.15626117861E+04  0.15626117861E+04  0.00000000000E+00 0. -1.
          6    2    1    2  501    0 -0.95396291483E+02  0.18244564885E+03 -0.53217085914E+03  0.59618227609E+03  0.17274436545E+03 0.  0.
         24    2    3    3    0    0 -0.35170015383E+02  0.18546935503E+03 -0.44674344139E+03  0.49151002172E+03  0.79790897911E+02 0.  0.
         -6    2    1    2    0  502  0.95396291483E+02 -0.18244564885E+03 -0.98103102784E+03  0.10158394092E+04  0.16468442709E+03 0.  0.
        -24    2    5    5    0    0  0.44476130211E+02 -0.13853025518E+03 -0.86811635459E+03  0.88433565239E+03  0.85175015232E+02 0.  0.
          5    1    3    3  501    0 -0.60226276100E+02 -0.30237061769E+01 -0.85427417749E+02  0.10467225437E+03  0.47000000000E+01 0. -1.
        -13    1    4    4    0    0 -0.27822919563E+02  0.10887169271E+02 -0.75618772003E+02  0.81307096781E+02  0.00000000000E+00 0.  1.
         14    1    4    4    0    0 -0.73470958197E+01  0.17458218576E+03 -0.37112466939E+03  0.41020292494E+03  0.00000000000E+00 0. -1.
         -5    1    5    5    0  502  0.50920161272E+02 -0.43915393672E+02 -0.11291467325E+03  0.13150375683E+03  0.47000000000E+01 0.  1.
         11    1    6    6    0    0 -0.19671670342E+02 -0.13678562471E+02 -0.21343707369E+03  0.21477770394E+03  0.00000000000E+00 0. -1.
        -12    1    6    6    0    0  0.64147800553E+02 -0.12485169271E+03 -0.65467928090E+03  0.66955794845E+03  0.00000000000E+00 0.  1.
</event>
<event>
12    1  0.1623092E-001  0.1930537E+03  0.7818608E-02  0.1157524E+00
         21   -1    0    0  501  502  0.00000000000E+00  0.00000000000E+00  0.13533704183E+04  0.13533704183E+04  0.00000000000E+00 0. -1.
         21   -1    0    0  502  503 -0.00000000000E+00 -0.00000000000E+00 -0.45462924256E+02  0.45462924256E+02  0.00000000000E+00 0. -1.
         -6    2    1    2    0  503 -0.30943984994E+02 -0.61320047961E+02  0.19339570955E+03  0.26772493503E+03  0.17192167366E+03 0.  0.
        -24    2    3    3    0    0  0.46917638720E+02 -0.11461865540E+02  0.93495518401E+02  0.13152504885E+03  0.78897321437E+02 0.  0.
          6    2    1    2  501    0  0.30943984994E+02  0.61320047961E+02  0.11145117845E+04  0.11311084076E+04  0.18042182053E+03 0.  0.
         24    2    5    5    0    0  0.64771795685E+02  0.68413993943E+01  0.93190994225E+03  0.93751665483E+03  0.78988273483E+02 0.  0.
          5    1    5    5  501    0 -0.33827810691E+02  0.54478648567E+02  0.18260184227E+03  0.19359175274E+03  0.47000000000E+01 0. -1.
        -13    1    6    6    0    0 -0.23416102751E+01  0.30603872630E+02  0.32452877916E+03  0.32597700633E+03  0.00000000000E+00 0.  1.
         14    1    6    6    0    0  0.67113405960E+02 -0.23762473236E+02  0.60738116310E+03  0.61153964849E+03  0.00000000000E+00 0. -1.
         -5    1    3    3    0  503 -0.77861623714E+02 -0.49858182421E+02  0.99900191153E+02  0.13619988617E+03  0.47000000000E+01 0.  1.
         11    1    4    4    0    0 -0.16463718587E+02  0.14210312543E+02  0.10999406004E+02  0.24371580677E+02  0.00000000000E+00 0. -1.
        -12    1    4    4    0    0  0.63381357307E+02 -0.25672178083E+02  0.82496112397E+02  0.10715346818E+03  0.00000000000E+00 0.  1.
</event>
<event>
12    1  0.1623092E-001  0.2199690E+03  0.7818608E-02  0.1134051E+00
         21   -1    0    0  501  502  0.00000000000E+00  0.00000000000E+00  0.76694897257E+02  0.76694897257E+02  0.00000000000E+00 0.  1.
         21   -1    0    0  502  503 -0.00000000000E+00 -0.00000000000E+00 -0.70706561158E+03  0.70706561158E+03  0.00000000000E+00 0.  1.
         -6    2    1    2    0  503  0.86760242538E+02 -0.10651282373E+03 -0.44617281741E+03  0.49745005687E+03  0.17179655056E+03 0.  0.
        -24    2    3    3    0    0  0.93503516350E+02 -0.39403630983E+02 -0.38541212812E+03  0.40654864404E+03  0.80272895558E+02 0.  0.
          6    2    1    2  501    0 -0.86760242538E+02  0.10651282373E+03 -0.18419789692E+03  0.28631045197E+03  0.17079955613E+03 0.  0.
         24    2    5    5    0    0 -0.88074522859E+02  0.41860285367E+02 -0.18124087201E+03  0.22140658424E+03  0.81628529283E+02 0.  0.
          5    1    5    5  501    0  0.13142803211E+01  0.64652538363E+02 -0.29570249142E+01  0.64903867727E+02  0.47000000000E+01 0. -1.
        -11    1    6    6    0    0 -0.10071936737E+03  0.23331314485E+02 -0.13527338294E+03  0.17025753825E+03  0.00000000000E+00 0.  1.
         12    1    6    6    0    0  0.12644844514E+02  0.18528970882E+02 -0.45967489069E+02  0.51149045993E+02  0.00000000000E+00 0. -1.
         -5    1    3    3    0  503 -0.67432738121E+01 -0.67109192747E+02 -0.60760689285E+02  0.90901412834E+02  0.47000000000E+01 0.  1.
         13    1    4    4    0    0  0.49176488523E+02  0.17246428593E+02 -0.10731062171E+03  0.11929516274E+03  0.00000000000E+00 0. -1.
        -14    1    4    4    0    0  0.44327027827E+02 -0.56650059576E+02 -0.27810150642E+03  0.28725348130E+03  0.00000000000E+00 0.  1.
</event>
<event>
12    1  0.1623092E-001  0.1823039E+03  0.7818608E-02  0.1165647E+00
         21   -1    0    0  503  502  0.00000000000E+00  0.00000000000E+00  0.12263642492E+03  0.12263642492E+03  0.00000000000E+00 0. -1.
         21   -1    0    0  501  503 -0.00000000000E+00 -0.00000000000E+00 -0.38926271004E+03  0.38926271004E+03  0.00000000000E+00 0. -1.
          6    2    1    2  501    0  0.10972659228E+02 -0.60172828411E+02 -0.27465130332E+03  0.32964838405E+03  0.17173686314E+03 0.  0.
         24    2    3    3    0    0 -0.48593786049E+02 -0.38695184875E+02 -0.24021102526E+03  0.25741492001E+03  0.68574273680E+02 0.  0.
         -6    2    1    2    0  502 -0.10972659228E+02  0.60172828411E+02  0.80250181887E+01  0.18225075091E+03  0.17149276009E+03 0.  0.
        -24    2    5    5    0    0  0.33723749122E+02 -0.15807828369E+02 -0.19289631746E+02  0.89843991284E+02  0.79452339074E+02 0.  0.
          5    1    3    3  501    0  0.59566445277E+02 -0.21477643536E+02 -0.34440278058E+02  0.72233464042E+02  0.47000000000E+01 0. -1.
        -13    1    4    4    0    0 -0.82638456532E+00  0.18140996243E+02 -0.42123833907E+02  0.45871516643E+02  0.00000000000E+00 0.  1.
         14    1    4    4    0    0 -0.47767401483E+02 -0.56836181118E+02 -0.19808719135E+03  0.21154340336E+03  0.00000000000E+00 0. -1.
         -5    1    5    5    0  502 -0.44696408350E+02  0.75980656780E+02  0.27314649935E+02  0.92406759629E+02  0.47000000000E+01 0.  1.
         11    1    6    6    0    0  0.55498713955E+02  0.52502479836E+01 -0.20835133888E+02  0.59512815079E+02  0.00000000000E+00 0. -1.
        -12    1    6    6    0    0 -0.21774964833E+02 -0.21058076352E+02  0.15455021413E+01  0.30331176205E+02  0.00000000000E+00 0.  1.
</event>
<event>
12    1  0.1623092E-001  0.2345578E+03  0.7818608E-02  0.1123634E+00
         21   -1    0    0  503  502  0.00000000000E+00  0.00000000000E+00  0.13344291924E+03  0.13344291924E+03  0.00000000000E+00 0. -1.
         21   -1    0    0  501  503 -0.00000000000E+00 -0.00000000000E+00 -0.83781190528E+03  0.83781190528E+03  0.00000000000E+00 0. -1.
          6    2    1    2  501    0 -0.15985014710E+03 -0.48270345882E+01 -0.69929538075E+03  0.73758484894E+03  0.17158674206E+03 0.  0.
         24    2    3    3    0    0 -0.59057550556E+02  0.52020038447E+02 -0.25471413540E+03  0.27816640030E+03  0.79393808359E+02 0.  0.
         -6    2    1    2    0  502  0.15985014710E+03  0.48270345882E+01 -0.50736052858E+01  0.23366997559E+03  0.17029546743E+03 0.  0.
        -24    2    5    5    0    0  0.16364841439E+03  0.40575778517E+02 -0.31451843039E+02  0.18883359578E+03  0.79004500709E+02 0.  0.
          5    1    3    3  501    0 -0.10079259655E+03 -0.56847073035E+02 -0.44458124535E+03  0.45941844863E+03  0.47000000000E+01 0. -1.
        -11    1    4    4    0    0 -0.40488953626E+02  0.46622899053E+02 -0.73819653288E+02  0.96241318016E+02  0.00000000000E+00 0.  1.
         12    1    4    4    0    0 -0.18568596930E+02  0.53971393936E+01 -0.18089448211E+03  0.18192508228E+03  0.00000000000E+00 0. -1.
         -5    1    5    5    0  502 -0.37982672848E+01 -0.35748743929E+02  0.26378237753E+02  0.44836379803E+02  0.47000000000E+01 0.  1.
         11    1    6    6    0    0  0.13586235703E+03  0.32193579571E+02  0.80032399532E+01  0.13985370382E+03  0.00000000000E+00 0. -1.
        -12    1    6    6    0    0  0.27786057360E+02  0.83821989460E+01 -0.39455082992E+02  0.48979891963E+02  0.00000000000E+00 0.  1.
</event>
<event>
12    1  0.1623092E-001  0.2505044E+03  0.7818608E-02  0.1113112E+00
         21   -1    0    0  501  502  0.00000000000E+00  0.00000000000E+00  0.19647285731E+03  0.19647285731E+03  0.00000000000E+00 0.  1.
         21   -1    0    0  502  503 -0.00000000000E+00 -0.00000000000E+00 -0.47730185869E+03  0.47730185869E+03  0.00000000000E+00 0.  1.
         -6    2    1    2    0  503  0.18102014129E+03  0.76450771799E+01 -0.33465629839E+03  0.41755248620E+03  0.17183859264E+03 0.  0.
        -24    2    3    3    0    0  0.18391852189E+03  0.46341269075E+02 -0.30757180905E+03  0.36999772366E+03  0.79525856674E+02 0.  0.
          6    2    1    2  501    0 -0.18102014129E+03 -0.76450771799E+01  0.53827297016E+02  0.25622222980E+03  0.17299050373E+03 0.  0.
         24    2    5    5    0    0 -0.12690440281E+03 -0.38181423207E+02  0.94761896489E+02  0.18166545268E+03  0.80373945659E+02 0.  0.
          5    1    5    5  501    0 -0.54115738483E+02  0.30536346027E+02 -0.40934599473E+02  0.74556777118E+02  0.47000000000E+01 0. -1.
        -13    1    6    6    0    0 -0.46537558971E+02 -0.13605832470E+02  0.83932036797E+02  0.96930128820E+02  0.00000000000E+00 0.  1.
         14    1    6    6    0    0 -0.80366843840E+02 -0.24575590737E+02  0.10829859691E+02  0.84735323861E+02  0.00000000000E+00 0. -1.
         -5    1    3    3    0  503 -0.28983805978E+01 -0.38696191895E+02 -0.27084489346E+02  0.47554762542E+02  0.47000000000E+01 0.  1.
         11    1    4    4    0    0  0.56227714003E+00  0.51685283960E+01  0.37116045656E+01  0.63879456645E+01  0.00000000000E+00 0. -1.
        -12    1    4    4    0    0  0.18335624475E+03  0.41172740679E+02 -0.31128341361E+03  0.36360977800E+03  0.00000000000E+00 0.  1.
</event>
<event>
12    1  0.1623092E-001  0.2589346E+03  0.7818608E-02  0.1107941E+00
         21   -1    0    0  501  502  0.00000000000E+00  0.00000000000E+00  0.95686956662E+02  0.95686956662E+02  0.00000000000E+00 0. -1.
         21   -1    0    0  502  503 -0.00000000000E+00 -0.00000000000E+00 -0.78425355026E+03  0.78425355026E+03  0.00000000000E+00 0.  1.
         -6    2    1    2    0  503  0.18440706715E+03 -0.55124664933E+02 -0.49088959026E+03  0.55499523094E+03  0.17321207072E+03 0.  0.
        -24    2    3    3    0    0  0.97383206913E+02 -0.16753846218E+01 -0.13363168383E+03  0.18339695387E+03  0.79314058424E+02 0.  0.
          6    2    1    2  501    0 -0.18440706715E+03  0.55124664933E+02 -0.19767700334E+03  0.32494527598E+03  0.17166403127E+03 0.  0.
         24    2    5    5    0    0 -0.25798933386E+02 -0.82687355450E+01 -0.53457296230E+02  0.10134590827E+03  0.81727312766E+02 0.  0.
          5    1    5    5  501    0 -0.15860813377E+03  0.63393400478E+02 -0.14421970711E+03  0.22359936771E+03  0.47000000000E+01 0. -1.
        -11    1    6    6    0    0  0.62984098712E+01  0.32714502150E+02 -0.27382001790E+02  0.43124037843E+02  0.00000000000E+00 0.  1.
         12    1    6    6    0    0 -0.32097343257E+02 -0.40983237695E+02 -0.26075294439E+02  0.58221870429E+02  0.00000000000E+00 0. -1.
         -5    1    3    3    0  503  0.87023860240E+02 -0.53449280311E+02 -0.35725790643E+03  0.37159827707E+03  0.47000000000E+01 0.  1.
         13    1    4    4    0    0  0.10018772265E+03 -0.23127627948E+02 -0.10016460893E+03  0.14354586663E+03  0.00000000000E+00 0. -1.
        -14    1    4    4    0    0 -0.28045157332E+01  0.21452243326E+02 -0.33467074898E+02  0.39851087243E+02  0.00000000000E+00 0.  1.
</event>
<event>
12    1  0.1623092E-001  0.2070255E+03  0.7818608E-02  0.1144175E+00
         21   -1    0    0  501  502  0.00000000000E+00  0.00000000000E+00  0.54142530749E+03  0.54142530749E+03  0.00000000000E+00 0. -1.
         21   -1    0    0  502  503 -0.00000000000E+00 -0.00000000000E+00 -0.24618110062E+03  0.24618110062E+03  0.00000000000E+00 0. -1.
         -6    2    1    2    0  503  0.76596652241E+02  0.81833827924E+02 -0.17729917234E+03  0.27170254694E+03  0.17269468716E+03 0.  0.
        -24    2    3    3    0    0  0.43940878715E+02 -0.16623411207E+02 -0.12239007637E+03  0.15424052626E+03  0.81262971427E+02 0.  0.
          6    2    1    2  501    0 -0.76596652241E+02 -0.81833827924E+02  0.47254337921E+03  0.51590386118E+03  0.17405667529E+03 0.  0.
         24    2    5    5    0    0 -0.10844930825E+03 -0.76129637541E+02  0.28021479456E+03  0.32081540955E+03  0.82735855261E+02 0.  0.
          5    1    5    5  501    0  0.31852656007E+02 -0.57041903836E+01  0.19232858465E+03  0.19508845163E+03  0.47000000000E+01 0. -1.
        -11    1    6    6    0    0  0.47295107299E+00 -0.13512337511E+02 -0.22058477566E+00  0.13522411226E+02  0.00000000000E+00 0.  1.
         12    1    6    6    0    0 -0.10892225932E+03 -0.62617300030E+02  0.28043537933E+03  0.30729299832E+03  0.00000000000E+00 0. -1.
         -5    1    3    3    0  503  0.32655773526E+02  0.98457239131E+02 -0.54909095969E+02  0.11746202068E+03  0.47000000000E+01 0.  1.
         13    1    4    4    0    0  0.33582034179E+02  0.30300057151E+02 -0.67934330498E+02  0.81614457929E+02  0.00000000000E+00 0. -1.
        -14    1    4    4    0    0  0.10358844536E+02 -0.46923468358E+02 -0.54455745870E+02  0.72626068330E+02  0.00000000000E+00 0.  1.
</event>
<event>
12    1  0.1623092E-001  0.2109299E+03  0.7818608E-02  0.1142157E+00
         21   -1    0    0  501  502  0.00000000000E+00  0.00000000000E+00  0.13054138268E+04  0.13054138268E+04  0.00000000000E+00 0.  1.
         21   -1    0    0  502  503 -0.00000000000E+00 -0.00000000000E+00 -0.79957074841E+02  0.79957074841E+02  0.00000000000E+00 0.  1.
         -6    2    1    2    0  503 -0.64541413845E+02 -0.86883560379E+02  0.86075844817E+02  0.22781679445E+03  0.18104445202E+03 0.  0.
        -24    2    3    3    0    0 -0.83792304426E+01 -0.43872446434E+01  0.97165809464E+02  0.12729361170E+03  0.81688491425E+02 0.  0.
          6    2    1    2  501    0  0.64541413845E+02  0.86883560379E+02  0.11393809071E+04  0.11575541072E+04  0.17328679222E+03 0.  0.
         24    2    5    5    0    0  0.10242215469E+03  0.41059305724E+02  0.92265783057E+03  0.93277467139E+03  0.81209303148E+02 0.  0.
          5    1    5    5  501    0 -0.37880740843E+02  0.45824254655E+02  0.21672307656E+03  0.22477943579E+03  0.47000000000E+01 0. -1.
        -11    1    6    6    0    0  0.58220040011E+02  0.28260900195E+02  0.78428498171E+03  0.78695056012E+03  0.00000000000E+00 0.  1.
         12    1    6    6    0    0  0.44202114677E+02  0.12798405529E+02  0.13837284887E+03  0.14582411128E+03  0.00000000000E+00 0. -1.
         -5    1    3    3    0  503 -0.56162183402E+02 -0.82496315736E+02 -0.11089964648E+02  0.10052318275E+03  0.47000000000E+01 0.  1.
         13    1    4    4    0    0 -0.25373723585E+02  0.29191482608E+02  0.25440859530E+02  0.46294771185E+02  0.00000000000E+00 0. -1.
        -14    1    4    4    0    0  0.16994493143E+02 -0.33578727251E+02  0.71724949935E+02  0.80998840511E+02  0.00000000000E+00 0.  1.
</event>
<event>
12    1  0.1623092E-001  0.2098049E+03  0.7818608E-02  0.1143440E+00
         21   -1    0    0  503  502  0.00000000000E+00  0.00000000000E+00  0.61729379411E+03  0.61729379411E+03  0.00000000000E+00 0. -1.
         21   -1    0    0  501  503 -0.00000000000E+00 -0.00000000000E+00 -0.93589263904E+02  0.93589263904E+02  0.00000000000E+00 0. -1.
          6    2    1    2  501    0  0.40193512903E+02 -0.97529765710E+02  0.81627543689E+02  0.22512471114E+03  0.18135739851E+03 0.  0.
         24    2    3    3    0    0  0.31181674762E+02 -0.94327831721E+01 -0.22627956430E+02  0.88254002567E+02  0.78838254151E+02 0.  0.
         -6    2    1    2    0  502 -0.40193512903E+02  0.97529765710E+02  0.44207698651E+03  0.48575834688E+03  0.17146876064E+03 0.  0.
        -24    2    5    5    0    0 -0.99250307912E+01  0.45950939939E+02  0.40477633004E+03  0.41511851922E+03  0.79180253369E+02 0.  0.
          5    1    3    3  501    0  0.90118381410E+01 -0.88096982538E+02  0.10425550012E+03  0.13687070857E+03  0.47000000000E+01 0. -1.
        -13    1    4    4    0    0 -0.24748703030E+01  0.27565697219E+02 -0.26199096530E+02  0.38110173250E+02  0.00000000000E+00 0.  1.
         14    1    4    4    0    0  0.33656545065E+02 -0.36998480391E+02  0.35711400998E+01  0.50143829317E+02  0.00000000000E+00 0. -1.
         -5    1    5    5    0  502 -0.30268482112E+02  0.51578825771E+02  0.37300656473E+02  0.70639827651E+02  0.47000000000E+01 0.  1.
         11    1    6    6    0    0  0.74245687873E+00  0.59272023794E+02  0.38245139146E+03  0.38701781726E+03  0.00000000000E+00 0. -1.
        -12    1    6    6    0    0 -0.10667487670E+02 -0.13321083855E+02  0.22324938584E+02  0.28100701967E+02  0.00000000000E+00 0.  1.
</event>
<event>
12    1  0.1623092E-001  0.1838653E+03  0.7818608E-02  0.1164267E+00
         21   -1    0    0  501  502  0.00000000000E+00  0.00000000000E+00  0.14951191968E+04  0.14951191968E+04  0.00000000000E+00 0. -1.
         21   -1    0    0  502  503 -0.00000000000E+00 -0.00000000000E+00 -0.67963095932E+02  0.67963095932E+02  0.00000000000E+00 0. -1.
         -6    2    1    2    0  503 -0.56412812883E+02 -0.29580255617E+02  0.75005833772E+02  0.19857573974E+03  0.17247913593E+03 0.  0.
        -24    2    3    3    0    0 -0.96638314106E+02 -0.24502998323E+02  0.18402996957E+02  0.12879149634E+03  0.79430589532E+02 0.  0.
          6    2    1    2  501    0  0.56412812883E+02  0.29580255617E+02  0.13521502671E+04  0.13645065530E+04  0.17178588819E+03 0.  0.
         24    2    5    5    0    0  0.51030003423E+02 -0.24720140813E+02  0.44889005400E+03  0.45958743493E+03  0.80642316115E+02 0.  0.
          5    1    5    5  501    0  0.53828094593E+01  0.54300396430E+02  0.90326021310E+03  0.90491911808E+03  0.47000000000E+01 0. -1.
        -13    1    6    6    0    0 -0.10080812625E+02 -0.26308312067E+02  0.64753050564E+02  0.70616624277E+02  0.00000000000E+00 0.  1.
         14    1    6    6    0    0  0.61110816049E+02  0.15881712539E+01  0.38413700344E+03  0.38897081065E+03  0.00000000000E+00 0. -1.
         -5    1    3    3    0  503  0.40225501223E+02 -0.50772572936E+01  0.56602836815E+02  0.69784243392E+02  0.47000000000E+01 0.  1.
         13    1    4    4    0    0 -0.31681146695E+02 -0.24012113000E+02 -0.28290563302E+02  0.48791726743E+02  0.00000000000E+00 0. -1.
        -14    1    4    4    0    0 -0.64957167411E+02 -0.49088532381E+00  0.46693560259E+02  0.79999769600E+02  0.00000000000E+00 0.  1.
</event>
<event>
12    1  0.1623092E-001  0.2098869E+03  0.7818608E-02  0.1141715E+00
         21   -1    0    0  503  502  0.00000000000E+00  0.00000000000E+00  0.75050242955E+03  0.75050242955E+03  0.00000000000E+00 0. -1.
         21   -1    0    0  501  503 -0.00000000000E+00 -0.00000000000E+00 -0.64451866176E+02  0.64451866176E+02  0.00000000000E+00 0. -1.
          6    2    1    2  501    0  0.74080574986E+02  0.92846454839E+02  0.22016517054E+03  0.30397316917E+03  0.17268059964E+03 0.  0.
         24    2    3    3    0    0  0.10907979641E+03  0.40502887281E+02  0.18335564773E+03  0.23088537584E+03  0.78421153763E+02 0.  0.
         -6    2    1    2    0  502 -0.74080574986E+02 -0.92846454839E+02  0.46588539284E+03  0.51098112656E+03  0.17304368429E+03 0.  0.
        -24    2    5    5    0    0 -0.61570473091E+00 -0.10792327834E+03  0.32727197394E+03  0.35331005227E+03  0.77930963096E+02 0.  0.
          5    1    3    3  501    0 -0.34999221425E+02  0.52343567558E+02  0.36809522810E+02  0.73087793335E+02  0.47000000000E+01 0. -1.
        -11    1    4    4    0    0  0.68680486087E+02  0.62254250340E+02  0.13895920934E+03  0.16703970401E+03  0.00000000000E+00 0.  1.
         12    1    4    4    0    0  0.40399310323E+02 -0.21751363059E+02  0.44396438388E+02  0.63845671827E+02  0.00000000000E+00 0. -1.
         -5    1    5    5    0  502 -0.73464870255E+02  0.15076823504E+02  0.13861341890E+03  0.15767107429E+03  0.47000000000E+01 0.  1.
         11    1    6    6    0    0 -0.16796582635E+02 -0.10471150882E+02  0.14176141477E+03  0.14313653938E+03  0.00000000000E+00 0. -1.
        -12    1    6    6    0    0  0.16180877904E+02 -0.97452127462E+02  0.18551055918E+03  0.21017351289E+03  0.00000000000E+00 0.  1.
</event>
<event>
12    1  0.1623092E-001  0.1953516E+03  0.7818608E-02  0.1153935E+00
         21   -1    0    0  503  502  0.00000000000E+00  0.00000000000E+00  0.95710908931E+03  0.95710908931E+03  0.00000000000E+00 0.  1.
         21   -1    0    0  501  503 -0.00000000000E+00 -0.00000000000E+00 -0.41713796456E+02  0.41713796456E+02  0.00000000000E+00 0.  1.
          6    2    1    2  501    0 -0.45864399523E+02  0.76430904668E+02  0.56926479172E+03  0.60185101417E+03  0.17383041689E+03 0.  0.
         24    2    3    3    0    0  0.10975441885E+02  0.42741503782E+02  0.48957756463E+03  0.49822723570E+03  0.81221241885E+02 0.  0.
         -6    2    1    2    0  502  0.45864399523E+02 -0.76430904668E+02  0.34613050113E+03  0.39697187159E+03  0.17272844783E+03 0.  0.
        -24    2    5    5    0    0  0.17222606606E+02 -0.80835998405E+02  0.34924851152E+03  0.36744952173E+03  0.78826083270E+02 0.  0.
          5    1    3    3  501    0 -0.56839841408E+02  0.33689400886E+02  0.79687227088E+02  0.10362377847E+03  0.47000000000E+01 0. -1.
        -11    1    4    4    0    0 -0.33963031450E+02  0.26481659742E+02  0.27827179181E+03  0.28158472246E+03  0.00000000000E+00 0.  1.
         12    1    4    4    0    0  0.44938473335E+02  0.16259844039E+02  0.21130577283E+03  0.21664251324E+03  0.00000000000E+00 0. -1.
         -5    1    5    5    0  502  0.28641792917E+02  0.44050937373E+01 -0.31180103929E+01  0.29522349858E+02  0.47000000000E+01 0.  1.
         11    1    6    6    0    0  0.18956427794E+02  0.11242526791E+02  0.62201889176E+02  0.65991026514E+02  0.00000000000E+00 0. -1.
        -12    1    6    6    0    0 -0.17338211885E+01 -0.92078525196E+02  0.28704662235E+03  0.30145849522E+03  0.00000000000E+00 0.  1.
</event>
<event>
12    1  0.1623092E-001  0.2341123E+03  0.7818608E-02  0.1124541E+00
         21   -1    0    0  503  502  0.00000000000E+00  0.00000000000E+00  0.20396038731E+03  0.20396038731E+03  0.00000000000E+00 0. -1.
         21   -1    0    0  501  503 -0.00000000000E+00 -0.00000000000E+00 -0.84148707635E+03  0.84148707635E+03  0.00000000000E+00 0. -1.
          6    2    1    2  501    0 -0.34530276446E+02 -0.15161987762E+03 -0.75095389284E+03  0.78530461006E+03  0.16908771134E+03 0.  0.
         24    2    3    3    0    0 -0.17447091930E+02 -0.21114320807E+02 -0.19273011488E+03  0.21175477628E+03  0.83336501811E+02 0.  0.
         -6    2    1    2    0  502  0.34530276446E+02  0.15161987762E+03  0.11342720379E+03  0.26014285360E+03  0.17500756108E+03 0.  0.
        -24    2    5    5    0    0  0.81066023064E+02  0.42273987408E+02  0.68338096296E+02  0.13295316441E+03  0.68173736991E+02 0.  0.
          5    1    3    3  501    0 -0.17083184516E+02 -0.13050555681E+03 -0.55822377796E+03  0.57354983378E+03  0.47000000000E+01 0. -1.
        -11    1    4    4    0    0 -0.49466969560E+02 -0.23062561345E+02 -0.10489017924E+03  0.11824048593E+03  0.00000000000E+00 0.  1.
         12    1    4    4    0    0  0.32019877630E+02  0.19482405379E+01 -0.87839935646E+02  0.93514290346E+02  0.00000000000E+00 0. -1.
         -5    1    5    5    0  502 -0.46535746618E+02  0.10934589021E+03  0.45089107498E+02  0.12718968918E+03  0.47000000000E+01 0.  1.
         13    1    6    6    0    0  0.98770540103E+01 -0.79246227660E+01  0.39052411559E+02  0.41054192119E+02  0.00000000000E+00 0. -1.
        -14    1    6    6    0    0  0.71188969053E+02  0.50198610174E+02  0.29285684737E+02  0.91898972294E+02  0.00000000000E+00 0.  1.
</event>
<event>
12    1  0.1623092E-001  0.2080317E+03  0.7818608E-02  0.1143237E+00
         21   -1    0    0  501  502  0.00000000000E+00  0.00000000000E+00  0.73122388194E+03  0.73122388194E+03  0.00000000000E+00 0. -1.
         21   -1    0    0  502  503 -0.00000000000E+00 -0.00000000000E+00 -0.67163021234E+02  0.67163021234E+02  0.00000000000E+00 0. -1.
         -6    2    1    2    0  503  0.10837142685E+03 -0.42239454516E+02  0.47123485555E+03  0.51511114498E+03  0.17247801288E+03 0.  0.
        -24    2    3    3    0    0  0.17957891413E+02 -0.20872661981E+02  0.36014794064E+03  0.37021966877E+03  0.81227520699E+02 0.  0.
          6    2    1    2  501    0 -0.10837142685E+03  0.42239454516E+02  0.19282600516E+03  0.28327575819E+03  0.17185676954E+03 0.  0.
         24    2    5    5    0    0 -0.79557012390E+02  0.32637278413E+00  0.20218638317E+03  0.23134615606E+03  0.79449893916E+02 0.  0.
          5    1    5    5  501    0 -0.28814414463E+02  0.41913081732E+02 -0.93603780142E+01  0.51929602133E+02  0.47000000000E+01 0. -1.
        -13    1    6    6    0    0 -0.34877895961E+02 -0.23447921101E+01  0.17610877809E+03  0.17954461116E+03  0.00000000000E+00 0.  1.
         14    1    6    6    0    0 -0.44679116429E+02  0.26711648942E+01  0.26077605078E+02  0.51801544893E+02  0.00000000000E+00 0. -1.
         -5    1    3    3    0  503  0.90413535440E+02 -0.21366792535E+02  0.11108691491E+03  0.14489147621E+03  0.47000000000E+01 0.  1.
         11    1    4    4    0    0  0.19337687957E+02 -0.36069496483E+02  0.34882634043E+03  0.35121897803E+03  0.00000000000E+00 0. -1.
        -12    1    4    4    0    0 -0.13797965444E+01  0.15196834502E+02  0.11321600208E+02  0.19000690742E+02  0.00000000000E+00 0.  1.
</event>
<event>
12    1  0.1623092E-001  0.1743695E+03  0.7818608E-02  0.1173406E+00
         21   -1    0    0  503  502  0.00000000000E+00  0.00000000000E+00  0.25892717357E+03  0.25892717357E+03  0.00000000000E+00 0.  1.
         21   -1    0    0  501  503 -0.00000000000E+00 -0.00000000000E+00 -0.38030147105E+03  0.38030147105E+03  0.00000000000E+00 0.  1.
          6    2    1    2  501    0 -0.20201197044E+02 -0.30055335949E+02 -0.32646002906E+03  0.37003563594E+03  0.17040777481E+03 0.  0.
         24    2    3    3    0    0 -0.62812445146E+01 -0.10895828722E+02 -0.55926592312E+02  0.98426942797E+02  0.80011913016E+02 0.  0.
         -6    2    1    2    0  502  0.20201197044E+02  0.30055335949E+02  0.20508573158E+03  0.26919300868E+03  0.17056760256E+03 0.  0.
        -24    2    5    5    0    0  0.26888172616E+02 -0.40868655663E+02  0.15728451576E+03  0.18327459120E+03  0.80361284459E+02 0.  0.
          5    1    3    3  501    0 -0.13919952529E+02 -0.19159507227E+02 -0.27053343675E+03  0.27160869315E+03  0.47000000000E+01 0. -1.
        -13    1    4    4    0    0 -0.36495707901E+02 -0.27651328259E+02 -0.38007115156E+02  0.59506919364E+02  0.00000000000E+00 0.  1.
         14    1    4    4    0    0  0.30214463387E+02  0.16755499537E+02 -0.17919477156E+02  0.38920023433E+02  0.00000000000E+00 0. -1.
         -5    1    5    5    0  502 -0.66869755721E+01  0.70923991612E+02  0.47801215824E+02  0.85918417483E+02  0.47000000000E+01 0.  1.
         11    1    6    6    0    0  0.52407659559E+02 -0.29232319608E+02  0.73303153237E+02  0.94733539809E+02  0.00000000000E+00 0. -1.
        -12    1    6    6    0    0 -0.25519486943E+02 -0.11636336056E+02  0.83981362519E+02  0.88541051389E+02  0.00000000000E+00 0.  1.
</event>
<event>
12    1  0.1623092E-001  0.2021220E+03  0.7818608E-02  0.1148213E+00
         21   -1    0    0  501  502  0.00000000000E+00  0.00000000000E+00  0.11017814690E+03  0.11017814690E+03  0.00000000000E+00 0.  1.
         21   -1    0    0  502  503 -0.00000000000E+00 -0.00000000000E+00 -0.49607433694E+03  0.49607433694E+03  0.00000000000E+00 0.  1.
         -6    2    1    2    0  503 -0.69003523450E+02  0.77843875894E+02 -0.34619015604E+03  0.40026740550E+03  0.17188722031E+03 0.  0.
        -24    2    3    3    0    0 -0.69108117328E+02  0.11647371619E+03 -0.30924534838E+03  0.34660844246E+03  0.78502665249E+02 0.  0.
          6    2    1    2  501    0  0.69003523450E+02 -0.77843875894E+02 -0.39706033993E+02  0.20598507834E+03  0.17329780178E+03 0.  0.
         24    2    5    5    0    0  0.14927687567E+02 -0.99885256892E+02  0.89277119413E+01  0.12984474904E+03  0.81117534553E+02 0.  0.
          5    1    5    5  501    0  0.54075835883E+02  0.22041380998E+02 -0.48633745935E+02  0.76140329303E+02  0.47000000000E+01 0. -1.
        -11    1    6    6    0    0 -0.32656885303E+02 -0.31976946337E+02  0.10553689332E+02  0.46908182796E+02  0.00000000000E+00 0.  1.
         12    1    6    6    0    0  0.47584572869E+02 -0.67908310554E+02 -0.16259773912E+01  0.82936566242E+02  0.00000000000E+00 0. -1.
         -5    1    3    3    0  503  0.10459387771E+00 -0.38629840294E+02 -0.36944807663E+02  0.53658963038E+02  0.47000000000E+01 0.  1.
         11    1    4    4    0    0 -0.80364516695E+02  0.65773324946E+02 -0.22170289494E+03  0.24481985099E+03  0.00000000000E+00 0. -1.
        -12    1    4    4    0    0  0.11256399367E+02  0.50700391242E+02 -0.87542453441E+02  0.10178859147E+03  0.00000000000E+00 0.  1.
</event>
<event>
12    1  0.1623092E-001  0.2629904E+03  0.7818608E-02  0.1105426E+00
         21   -1    0    0  501  502  0.00000000000E+00  0.00000000000E+00  0.30757493077E+04  0.30757493077E+04  0.00000000000E+00 0. -1.
         21   -1    0    0  502  503 -0.00000000000E+00 -0.00000000000E+00 -0.23838170328E+02  0.23838170328E+02  0.00000000000E+00 0. -1.
         -6    2    1    2    0  503 -0.19263888760E+03  0.51340104020E+02  0.19013234471E+04  0.19194256464E+04  0.17151797143E+03 0.  0.
        -24    2    3    3    0    0 -0.20036814882E+03  0.65680575169E+02  0.14571012212E+04  0.14748799609E+04  0.87553396049E+02 0.  0.
          6    2    1    2  501    0  0.19263888760E+03 -0.51340104020E+02  0.11505876903E+04  0.11801618316E+04  0.17083433020E+03 0.  0.
         24    2    5    5    0    0  0.21427188076E+03 -0.28472675318E+02  0.10183403792E+04  0.10441384991E+04  0.80529157860E+02 0.  0.
          5    1    5    5  501    0 -0.21632993163E+02 -0.22867428703E+02  0.13224731107E+03  0.13602333247E+03  0.47000000000E+01 0. -1.
        -11    1    6    6    0    0  0.53822508290E+02 -0.36754783419E+02  0.39955831593E+03  0.40483901039E+03  0.00000000000E+00 0.  1.
         12    1    6    6    0    0  0.16044937247E+03  0.82821081011E+01  0.61878206325E+03  0.63929948869E+03  0.00000000000E+00 0. -1.
         -5    1    3    3    0  503  0.77292612212E+01 -0.14340471148E+02  0.44422222587E+03  0.44454568556E+03  0.47000000000E+01 0.  1.
         11    1    4    4    0    0 -0.16472024706E+02  0.39130710202E+02  0.25874423634E+03  0.26220434763E+03  0.00000000000E+00 0. -1.
        -12    1    4    4    0    0 -0.18389612412E+03  0.26549864967E+02  0.11983569849E+04  0.12126756133E+04  0.00000000000E+00 0.  1.
</event>
<event>
12    1  0.1623092E-001  0.1992487E+03  0.7818608E-02  0.1151543E+00
         21   -1    0    0  503  502  0.00000000000E+00  0.00000000000E+00  0.20042270894E+03  0.20042270894E+03  0.00000000000E+00 0. -1.
         21   -1    0    0  501  503 -0.00000000000E+00 -0.00000000000E+00 -0.25871916987E+03  0.25871916987E+03  0.00000000000E+00 0. -1.
          6    2    1    2  501    0  0.49244449600E+02 -0.86356418969E+02 -0.14479245256E+03  0.24192863126E+03  0.16637957023E+03 0.  0.
         24    2    3    3    0    0 -0.30923850304E+02 -0.73951601103E+02 -0.92193095889E+02  0.14513184341E+03  0.78348970749E+02 0.  0.
         -6    2    1    2    0  502 -0.49244449600E+02  0.86356418969E+02  0.86495991633E+02  0.21721324756E+03  0.17267770971E+03 0.  0.
        -24    2    5    5    0    0 -0.94261118354E+02  0.43515167083E+02  0.81671188525E+02  0.15470531163E+03  0.80528393820E+02 0.  0.
          5    1    3    3  501    0  0.80168299904E+02 -0.12404817866E+02 -0.52599356675E+02  0.96796787852E+02  0.47000000000E+01 0. -1.
        -11    1    4    4    0    0 -0.34513247822E+02  0.18817108201E+00 -0.13792131057E+02  0.37167493360E+02  0.00000000000E+00 0.  1.
         12    1    4    4    0    0  0.35893975174E+01 -0.74139772185E+02 -0.78400964832E+02  0.10796435005E+03  0.00000000000E+00 0. -1.
         -5    1    5    5    0  502  0.45016668754E+02  0.42841251886E+02  0.48248031078E+01  0.62507935928E+02  0.47000000000E+01 0.  1.
         13    1    6    6    0    0 -0.30163280773E+02 -0.22373267797E+02  0.12212043691E+02  0.39490766389E+02  0.00000000000E+00 0. -1.
        -14    1    6    6    0    0 -0.64097837581E+02  0.65888434880E+02  0.69459144834E+02  0.11521454524E+03  0.00000000000E+00 0.  1.
</event>
<event>
12    1  0.1623092E-001  0.1978138E+03  0.7818608E-02  0.1151667E+00
         21   -1    0    0  501  502  0.00000000000E+00  0.00000000000E+00  0.27082930073E+03  0.27082930073E+03  0.00000000000E+00 0. -1.
         21   -1    0    0  502  503 -0.00000000000E+00 -0.00000000000E+00 -0.14447426672E+03  0.14447426672E+03  0.00000000000E+00 0.  1.
         -6    2    1    2    0  503  0.73480376193E+02 -0.62940411017E+02  0.54831769945E+02  0.20495648921E+03  0.17216207030E+03 0.  0.
        -24    2    3    3    0    0  0.59034978332E+02 -0.75053743974E+02  0.97240079016E+02  0.15830933460E+03  0.80548242092E+02 0.  0.
          6    2    1    2  501    0 -0.73480376193E+02  0.62940411017E+02  0.71523264061E+02  0.21034707824E+03  0.17253827111E+03 0.  0.
         24    2    5    5    0    0 -0.10885847387E+03  0.13751314856E+02  0.33105795496E+02  0.13845014599E+03  0.77673568440E+02 0.  0.
          5    1    5    5  501    0  0.35378097678E+02  0.49189096161E+02  0.38417468565E+02  0.71896932253E+02  0.47000000000E+01 0. -1.
        -11    1    6    6    0    0  0.92739090225E+00  0.17460415768E+02 -0.10349730048E+02  0.20318540418E+02  0.00000000000E+00 0.  1.
         12    1    6    6    0    0 -0.10978586477E+03 -0.37091009112E+01  0.43455525544E+02  0.11813160557E+03  0.00000000000E+00 0. -1.
         -5    1    3    3    0  503  0.14445397861E+02  0.12113332956E+02 -0.42408309071E+02  0.46647154607E+02  0.47000000000E+01 0.  1.
         11    1    4    4    0    0  0.30101699507E+02 -0.82682485558E+02  0.46803499238E+02  0.99664804581E+02  0.00000000000E+00 0. -1.
        -12    1    4    4    0    0  0.28933278825E+02  0.76287415841E+01  0.50436579778E+02  0.58644530022E+02  0.00000000000E+00 0.  1.
</event>
<event>
12    1  0.1623092E-001  0.2277462E+03  0.7818608E-02  0.1128451E+00
         21   -1    0    0  501  502  0.00000000000E+00  0.00000000000E+00  0.19639546177E+04  0.19639546177E+04  0.00000000000E+00 0.  1.
         21   -1    0    0  502  503 -0.00000000000E+00 -0.00000000000E+00 -0.52882794511E+02  0.52882794511E+02  0.00000000000E+00 0.  1.
         -6    2    1    2    0  503  0.11587087236E+03  0.85738064918E+02  0.23892440559E+03  0.32925176731E+03  0.17477064929E+03 0.  0.
        -24    2    3    3    0    0  0.11815509858E+03  0.94992226626E+01  0.19487174509E+03  0.24104572639E+03  0.77956286636E+02 0.  0.
          6    2    1    2  501    0 -0.11587087236E+03 -0.85738064918E+02  0.16721474176E+04  0.16875856449E+04  0.17632710469E+03 0.  0.
         24    2    5    5    0    0  0.20234931285E+01 -0.32568217447E+02  0.40761333937E+03  0.41644653406E+03  0.78830818771E+02 0.  0.
          5    1    5    5  501    0 -0.11789436549E+03 -0.53169847471E+02  0.12645340783E+04  0.12711391109E+04  0.47000000000E+01 0. -1.
        -11    1    6    6    0    0 -0.76877982891E+01 -0.25915360864E+02  0.40283689590E+03  0.40374283012E+03  0.00000000000E+00 0.  1.
         12    1    6    6    0    0  0.97112914176E+01 -0.66528565823E+01  0.47764434669E+01  0.12703703944E+02  0.00000000000E+00 0. -1.
         -5    1    3    3    0  503 -0.22842262134E+01  0.76238842255E+02  0.44052660498E+02  0.88206040920E+02  0.47000000000E+01 0.  1.
         13    1    4    4    0    0  0.79673458377E+02 -0.30251928205E+02  0.10172096395E+03  0.13270340477E+03  0.00000000000E+00 0. -1.
        -14    1    4    4    0    0  0.38481640198E+02  0.39751150868E+02  0.93150781142E+02  0.10834232162E+03  0.00000000000E+00 0.  1.
</event>
<event>
12    1  0.1623092E-001  0.1772511E+03  0.7818608E-02  0.1170690E+00
         21   -1    0    0  501  502  0.00000000000E+00  0.00000000000E+00  0.23341734999E+03  0.23341734999E+03  0.00000000000E+00 0. -1.
         21   -1    0    0  502  503 -0.00000000000E+00 -0.00000000000E+00 -0.33292658108E+03  0.33292658108E+03  0.00000000000E+00 0. -1.
         -6    2    1    2    0  503 -0.29702434443E+02 -0.29836476725E+02 -0.26860338514E+03  0.32137294466E+03  0.17134859526E+03 0.  0.
        -24    2    3    3    0    0 -0.63247855327E+02 -0.55819593977E+02 -0.24858463239E+03  0.27422150665E+03  0.79290585671E+02 0.  0.
          6    2    1    2  501    0  0.29702434443E+02  0.29836476725E+02  0.16909415405E+03  0.24497098641E+03  0.17217869001E+03 0.  0.
         24    2    5    5    0    0  0.45491156034E+02 -0.13756193361E+02  0.38428192167E+02  0.10624359831E+03  0.86903959027E+02 0.  0.
          5    1    5    5  501    0 -0.15788721591E+02  0.43592670086E+02  0.13066596188E+03  0.13872738810E+03  0.47000000000E+01 0. -1.
        -11    1    6    6    0    0  0.41254988780E+02 -0.48077822625E+02  0.32342707215E+02  0.71130175296E+02  0.00000000000E+00 0.  1.
         12    1    6    6    0    0  0.42361672535E+01  0.34321629264E+02  0.60854849518E+01  0.35113423009E+02  0.00000000000E+00 0. -1.
         -5    1    3    3    0  503  0.33545420885E+02  0.25983117252E+02 -0.20018752751E+02  0.47151438007E+02  0.47000000000E+01 0.  1.
         13    1    4    4    0    0 -0.35819477582E+02 -0.73929469294E+02 -0.19099626322E+03  0.20791386189E+03  0.00000000000E+00 0. -1.
        -14    1    4    4    0    0 -0.27428377746E+02  0.18109875318E+02 -0.57588369169E+02  0.66307644758E+02  0.00000000000E+00 0.  1.
</event>
<event>
12    1  0.1623092E-001  0.2208955E+03  0.7818608E-02  0.1133543E+00
         21   -1    0    0  501  502  0.00000000000E+00  0.00000000000E+00  0.20118386194E+03  0.20118386194E+03  0.00000000000E+00 0.  1.
         21   -1    0    0  502  503 -0.00000000000E+00 -0.00000000000E+00 -0.55132077083E+03  0.55132077083E+03  0.00000000000E+00 0.  1.
         -6    2    1    2    0  503  0.13250406629E+03 -0.38532396140E+02 -0.45721703808E+03  0.50702356605E+03  0.17024512766E+03 0.  0.
        -24    2    3    3    0    0  0.19858158767E+02  0.30339584534E+02 -0.17510580747E+03  0.19550906136E+03  0.79037411418E+02 0.  0.
          6    2    1    2  501    0 -0.13250406629E+03  0.38532396140E+02  0.10708012919E+03  0.24548106671E+03  0.17248978785E+03 0.  0.
         24    2    5    5    0    0 -0.34435931113E+02  0.51337356734E+02  0.10561112391E+03  0.14645796775E+03  0.80466572405E+02 0.  0.
          5    1    5    5  501    0 -0.98068135173E+02 -0.12804960594E+02  0.14690052801E+01  0.99023098965E+02  0.47000000000E+01 0. -1.
        -13    1    6    6    0    0 -0.59685450964E+02  0.26171195539E+02  0.75986743266E+02  0.10010629193E+03  0.00000000000E+00 0.  1.
         14    1    6    6    0    0  0.25249519850E+02  0.25166161195E+02  0.29624380645E+02  0.46351675812E+02  0.00000000000E+00 0. -1.
         -5    1    3    3    0  503  0.11264590752E+03 -0.68871980674E+02 -0.28211123060E+03  0.31151450470E+03  0.47000000000E+01 0.  1.
         13    1    4    4    0    0  0.26080951516E+02 -0.49399144825E+01 -0.13121557278E+02  0.29610708409E+02  0.00000000000E+00 0. -1.
        -14    1    4    4    0    0 -0.62227927497E+01  0.35279499017E+02 -0.16198425019E+03  0.16589835295E+03  0.00000000000E+00 0.  1.
</event>
<event>
12    1  0.1623092E-001  0.2077188E+03  0.7818608E-02  0.1143944E+00
         21   -1    0    0  503  502  0.00000000000E+00  0.00000000000E+00  0.26131577394E+03  0.26131577394E+03  0.00000000000E+00 0. -1.
         21   -1    0    0  501  503 -0.00000000000E+00 -0.00000000000E+00 -0.18405859206E+03  0.18405859206E+03  0.00000000000E+00 0.  1.
          6    2    1    2  501    0  0.46950893509E+02 -0.10715171616E+03  0.11431354017E+03  0.23709637194E+03  0.17164273198E+03 0.  0.
         24    2    3    3    0    0  0.60941464025E+02 -0.84033666438E+02  0.10119136572E+02  0.12935249031E+03  0.76512421820E+02 0.  0.
         -6    2    1    2    0  502 -0.46950893509E+02  0.10715171616E+03 -0.37056358290E+02  0.20827799406E+03  0.16828746965E+03 0.  0.
        -24    2    5    5    0    0  0.30507856947E+02  0.86648632029E+02 -0.39939210822E+02  0.12796214681E+03  0.79626978383E+02 0.  0.
          5    1    3    3  501    0 -0.13990570516E+02 -0.23118049727E+02  0.10419440360E+03  0.10774388163E+03  0.47000000000E+01 0. -1.
        -11    1    4    4    0    0 -0.11963971771E+02 -0.43909840635E+02 -0.95035562194E-01  0.45510655421E+02  0.00000000000E+00 0.  1.
         12    1    4    4    0    0  0.72905435796E+02 -0.40123825803E+02  0.10214172134E+02  0.83841834892E+02  0.00000000000E+00 0. -1.
         -5    1    5    5    0  502 -0.77458750456E+02  0.20503084136E+02  0.28828525317E+01  0.80315847254E+02  0.47000000000E+01 0.  1.
         13    1    6    6    0    0  0.52868694673E+02  0.45498027304E+02 -0.57705159431E+01  0.69989057854E+02  0.00000000000E+00 0. -1.
        -14    1    6    6    0    0 -0.22360837726E+02  0.41150604725E+02 -0.34168694879E+02  0.57973088953E+02  0.00000000000E+00 0.  1.
</event>
<event>
12    1  0.1623092E-001  0.2211513E+03  0.7818608E-02  0.1133186E+00
         21   -1    0    0  501  502  0.00000000000E+00  0.00000000000E+00  0.38037640462E+03  0.38037640462E+03  0.00000000000E+00 0.  1.
         21   -1    0    0  502  503 -0.00000000000E+00 -0.00000000000E+00 -0.15438113011E+03  0.15438113011E+03  0.00000000000E+00 0.  1.
         -6    2    1    2    0  503  0.33366909495E+02  0.13443083269E+03  0.24584351336E+01  0.22031099084E+03  0.17130641948E+03 0.  0.
        -24    2    3    3    0    0  0.12050055873E+02  0.41322806854E+02 -0.57102612537E+02  0.10764723836E+03  0.80463913374E+02 0.  0.
          6    2    1    2  501    0 -0.33366909495E+02 -0.13443083269E+03  0.22353683937E+03  0.31444654389E+03  0.17240333808E+03 0.  0.
         24    2    5    5    0    0  0.22980398499E+02 -0.60386269927E+02  0.43154834169E+02  0.11142591884E+03  0.79867361086E+02 0.  0.
          5    1    5    5  501    0 -0.56347307994E+02 -0.74044562765E+02  0.18038200520E+03  0.20302062505E+03  0.47000000000E+01 0. -1.
        -13    1    6    6    0    0 -0.94094602536E+01 -0.63608750993E+02  0.45532051751E+02  0.78789459205E+02  0.00000000000E+00 0.  1.
         14    1    6    6    0    0  0.32389858752E+02  0.32224810659E+01 -0.23772175821E+01  0.32636459637E+02  0.00000000000E+00 0. -1.
         -5    1    3    3    0  503  0.21316853622E+02  0.93108025838E+02  0.59561047671E+02  0.11266375248E+03  0.47000000000E+01 0.  1.
         13    1    4    4    0    0 -0.21557803858E+02 -0.92587979135E+00 -0.48363791007E+02  0.52958969412E+02  0.00000000000E+00 0. -1.
        -14    1    4    4    0    0  0.33607859731E+02  0.42248686645E+02 -0.87388215296E+01  0.54688268949E+02  0.00000000000E+00 0.  1.
</event>
<event>
12    1  0.1623092E-001  0.1865108E+03  0.7818608E-02  0.1161934E+00
         21   -1    0    0  503  502  0.00000000000E+00  0.00000000000E+00  0.10962584157E+04  0.10962584157E+04  0.00000000000E+00 0.  1.
         21   -1    0    0  501  503 -0.00000000000E+00 -0.00000000000E+00 -0.35305273407E+02  0.35305273407E+02  0.00000000000E+00 0.  1.
          6    2    1    2  501    0  0.32082772165E+02  0.66311212673E+02  0.34366369792E+03  0.39042238216E+03  0.16999534708E+03 0.  0.
         24    2    3    3    0    0  0.67440939357E+02  0.57035907220E+02  0.33051915774E+03  0.35129310648E+03  0.79765644344E+02 0.  0.
         -6    2    1    2    0  502 -0.32082772165E+02 -0.66311212673E+02  0.71728944440E+03  0.74114130697E+03  0.17134704157E+03 0.  0.
        -24    2    5    5    0    0 -0.12003182099E+02  0.26927746029E+02  0.23681298129E+03  0.25126743039E+03  0.78649561845E+02 0.  0.
          5    1    3    3  501    0 -0.35358167192E+02  0.92753054535E+01  0.13144540179E+02  0.39129275677E+02  0.47000000000E+01 0. -1.
        -11    1    4    4    0    0  0.48548417164E+01  0.24958018879E+02  0.18493882120E+02  0.31440354170E+02  0.00000000000E+00 0.  1.
         12    1    4    4    0    0  0.62586097641E+02  0.32077888340E+02  0.31202527562E+03  0.31985275231E+03  0.00000000000E+00 0. -1.
         -5    1    5    5    0  502 -0.20079590066E+02 -0.93238958702E+02  0.48047646311E+03  0.48987387658E+03  0.47000000000E+01 0.  1.
         11    1    6    6    0    0 -0.58394807082E+01  0.31713776629E+02  0.24048895634E+03  0.24264130169E+03  0.00000000000E+00 0. -1.
        -12    1    6    6    0    0 -0.61637013908E+01 -0.47860306003E+01 -0.36759750502E+01  0.86261286978E+01  0.00000000000E+00 0.  1.
</event>
<event>
12    1  0.1623092E-001  0.2711262E+03  0.7818608E-02  0.1101209E+00
         21   -1    0    0  503  502  0.00000000000E+00  0.00000000000E+00  0.12329321572E+04  0.12329321572E+04  0.00000000000E+00 0.  1.
         21   -1    0    0  501  503 -0.00000000000E+00 -0.00000000000E+00 -0.90389377364E+02  0.90389377364E+02  0.00000000000E+00 0.  1.
          6    2    1    2  501    0 -0.20619807723E+03 -0.49878570871E+01  0.17705602876E+03  0.32048850880E+03  0.16976902303E+03 0.  0.
         24    2    3    3    0    0 -0.29236143181E+02 -0.23601628552E+02  0.65181035429E+02  0.11025030408E+03  0.80590155923E+02 0.  0.
         -6    2    1    2    0  502  0.20619807723E+03  0.49878570871E+01  0.96548675111E+03  0.10028330258E+04  0.17597410406E+03 0.  0.
        -24    2    5    5    0    0  0.36383832733E+02 -0.21067937227E+02  0.22137100121E+03  0.23912750579E+03  0.80057495489E+02 0.  0.
          5    1    3    3  501    0 -0.17696193405E+03  0.18613771465E+02  0.11187499333E+03  0.21023820472E+03  0.47000000000E+01 0. -1.
        -11    1    4    4    0    0 -0.12810912231E+02 -0.50086448731E+02  0.20149918608E+02  0.55486854647E+02  0.00000000000E+00 0.  1.
         12    1    4    4    0    0 -0.16425230951E+02  0.26484820179E+02  0.45031116821E+02  0.54763449434E+02  0.00000000000E+00 0. -1.
         -5    1    5    5    0  502  0.16981424450E+03  0.26055794314E+02  0.74411574991E+03  0.76370552002E+03  0.47000000000E+01 0.  1.
         13    1    6    6    0    0 -0.13478257774E+02 -0.58991068902E+01  0.35186601803E+01  0.15127586199E+02  0.00000000000E+00 0. -1.
        -14    1    6    6    0    0  0.49862090507E+02 -0.15168830337E+02  0.21785234103E+03  0.22399991959E+03  0.00000000000E+00 0.  1.
</event>
<event>
12    1  0.1623092E-001  0.1776161E+03  0.7818608E-02  0.1170443E+00
         21   -1    0    0  503  502  0.00000000000E+00  0.00000000000E+00  0.23635504505E+03  0.23635504505E+03  0.00000000000E+00 0.  1.
         21   -1    0    0  501  503 -0.00000000000E+00 -0.00000000000E+00 -0.28139269936E+03  0.28139269936E+03  0.00000000000E+00 0.  1.
          6    2    1    2  501    0 -0.34523821276E+02 -0.87916651417E+01 -0.21084693764E+03  0.27568809148E+03  0.17400662361E+03 0.  0.
         24    2    3    3    0    0 -0.21744139792E+02 -0.35944011208E+02 -0.22508788462E+03  0.24214014480E+03  0.78756043348E+02 0.  0.
         -6    2    1    2    0  502  0.34523821276E+02  0.87916651417E+01  0.16580928332E+03  0.24205965293E+03  0.17271644256E+03 0.  0.
        -24    2    5    5    0    0 -0.35711182117E+02 -0.35672205864E+02  0.93444664513E+02  0.13174773344E+03  0.77960022713E+02 0.  0.
          5    1    3    3  501    0 -0.12779681484E+02  0.27152346066E+02  0.14240946979E+02  0.33547946682E+02  0.47000000000E+01 0. -1.
        -11    1    4    4    0    0 -0.44080786472E+02 -0.35713645769E+02 -0.99124250685E+02  0.11421119605E+03  0.00000000000E+00 0.  1.
         12    1    4    4    0    0  0.22336646680E+02 -0.23036543914E+00 -0.12596363393E+03  0.12792894875E+03  0.00000000000E+00 0. -1.
         -5    1    5    5    0  502  0.70235003392E+02  0.44463871005E+02  0.72364618811E+02  0.11031191949E+03  0.47000000000E+01 0.  1.
         13    1    6    6    0    0 -0.37667497247E+02 -0.27149675298E+02  0.95569153510E+01  0.47405483318E+02  0.00000000000E+00 0. -1.
        -14    1    6    6    0    0  0.19563151303E+01 -0.85225305661E+01  0.83887749162E+02  0.84342250122E+02  0.00000000000E+00 0.  1.
</event>
<event>
12    1  0.1623092E-001  0.1838488E+03  0.7818608E-02  0.1164648E+00
         21   -1    0    0  501  502  0.00000000000E+00  0.00000000000E+00  0.15369134520E+03  0.15369134520E+03  0.00000000000E+00 0.  1.
         21   -1    0    0  502  503 -0.00000000000E+00 -0.00000000000E+00 -0.24460848924E+03  0.24460848924E+03  0.00000000000E+00 0.  1.
         -6    2    1    2    0  503 -0.25696987731E+02 -0.57611383998E+02 -0.11174439113E+03  0.21327506955E+03  0.17035269179E+03 0.  0.
        -24    2    3    3    0    0  0.53769926891E+01  0.26100784573E+02 -0.97102391278E+02  0.12266713620E+03  0.70058467775E+02 0.  0.
          6    2    1    2  501    0  0.25696987731E+02  0.57611383998E+02  0.20827247083E+02  0.18502476489E+03  0.17268752895E+03 0.  0.
         24    2    5    5    0    0 -0.18086823687E+01  0.59081194098E+02 -0.51030275381E+02  0.10792537602E+03  0.74497912424E+02 0.  0.
          5    1    5    5  501    0  0.27505670099E+02 -0.14698100994E+01  0.71857522464E+02  0.77099388869E+02  0.47000000000E+01 0. -1.
        -13    1    6    6    0    0 -0.24782329685E+02  0.92107697139E+01 -0.45651750186E+02  0.52754947051E+02  0.00000000000E+00 0.  1.
         14    1    6    6    0    0  0.22973647316E+02  0.49870424384E+02 -0.53785251945E+01  0.55170428968E+02  0.00000000000E+00 0. -1.
         -5    1    3    3    0  503 -0.31073980420E+02 -0.83712168572E+02 -0.14641999848E+02  0.90607933348E+02  0.47000000000E+01 0.  1.
         13    1    4    4    0    0  0.34858913903E+02  0.19401320956E+02 -0.75881148738E+02  0.85729247443E+02  0.00000000000E+00 0. -1.
        -14    1    4    4    0    0 -0.29481921214E+02  0.66994636174E+01 -0.21221242540E+02  0.36937888761E+02  0.00000000000E+00 0.  1.
</event>
<event>
12    1  0.1623092E-001  0.2629271E+03  0.7818608E-02  0.1105415E+00
         21   -1    0    0  503  502  0.00000000000E+00  0.00000000000E+00  0.92331669058E+02  0.92331669058E+02  0.00000000000E+00 0.  1.
         21   -1    0    0  501  503 -0.00000000000E+00 -0.00000000000E+00 -0.11141728156E+04  0.11141728156E+04  0.00000000000E+00 0. -1.
          6    2    1    2  501    0 -0.12428192784E+03 -0.15487204789E+03 -0.85665606185E+03  0.89609723034E+03  0.17233481685E+03 0.  0.
         24    2    3    3    0    0 -0.14772111056E+03 -0.92329465616E+02 -0.55194814338E+03  0.58411970636E+03  0.78757994210E+02 0.  0.
         -6    2    1    2    0  502  0.12428192784E+03  0.15487204789E+03 -0.16518508467E+03  0.31040725430E+03  0.17214878019E+03 0.  0.
        -24    2    5    5    0    0  0.14847728911E+03  0.13690942953E+03 -0.17408419796E+03  0.27863690047E+03  0.80892008543E+02 0.  0.
          5    1    3    3  501    0  0.23439182724E+02 -0.62542582276E+02 -0.30470791848E+03  0.31197752398E+03  0.47000000000E+01 0. -1.
        -13    1    4    4    0    0 -0.13214587420E+03 -0.85887508527E+02 -0.54221602113E+03  0.56465689561E+03  0.00000000000E+00 0.  1.
         14    1    4    4    0    0 -0.15575236360E+02 -0.64419570888E+01 -0.97321222475E+01  0.19462810749E+02  0.00000000000E+00 0. -1.
         -5    1    5    5    0  502 -0.24195361275E+02  0.17962618362E+02  0.88991132867E+01  0.31770353837E+02  0.47000000000E+01 0.  1.
         11    1    6    6    0    0  0.44062367584E+01 -0.85541923879E+01  0.40942476481E+00  0.96310310154E+01  0.00000000000E+00 0. -1.
        -12    1    6    6    0    0  0.14407105236E+03  0.14546362192E+03 -0.17449362272E+03  0.26900586945E+03  0.00000000000E+00 0.  1.
</event>
<event>
12    1  0.1623092E-001  0.2349791E+03  0.7818608E-02  0.1123325E+00
         21   -1    0    0  501  502  0.00000000000E+00  0.00000000000E+00  0.62216609814E+03  0.62216609814E+03  0.00000000000E+00 0.  1.
         21   -1    0    0  502  503 -0.00000000000E+00 -0.00000000000E+00 -0.22569176472E+03  0.22569176472E+03  0.00000000000E+00 0.  1.
         -6    2    1    2    0  503 -0.26761910120E+02  0.15711040469E+03 -0.13249709692E+03  0.26904358452E+03  0.17154909089E+03 0.  0.
        -24    2    3    3    0    0  0.27051780116E+02  0.85127629348E+02 -0.13330136318E+03  0.17904263983E+03  0.79426074831E+02 0.  0.
          6    2    1    2  501    0  0.26761910120E+02 -0.15711040469E+03  0.52897143034E+03  0.57881427834E+03  0.17267111976E+03 0.  0.
         24    2    5    5    0    0  0.60164683695E+02 -0.57986516183E+02  0.37687363500E+03  0.39416022368E+03  0.79663793216E+02 0.  0.
          5    1    5    5  501    0 -0.33402773575E+02 -0.99123888506E+02  0.15209779534E+03  0.18465405466E+03  0.47000000000E+01 0. -1.
        -13    1    6    6    0    0 -0.16992973221E+02 -0.25791759082E+02  0.12564079628E+03  0.12938155072E+03  0.00000000000E+00 0.  1.
         14    1    6    6    0    0  0.77157656916E+02 -0.32194757100E+02  0.25123283872E+03  0.26477867296E+03  0.00000000000E+00 0. -1.
         -5    1    3    3    0  503 -0.53813690236E+02  0.71982775340E+02  0.80426626189E+00  0.90000944699E+02  0.47000000000E+01 0.  1.
         13    1    4    4    0    0  0.45669611300E+00 -0.27731920721E+01 -0.63825413134E+02  0.63887264203E+02  0.00000000000E+00 0. -1.
        -14    1    4    4    0    0  0.26595084003E+02  0.87900821420E+02 -0.69475950051E+02  0.11515537562E+03  0.00000000000E+00 0.  1.
</event>
<event>
12    1  0.1623092E-001  0.2177199E+03  0.7818608E-02  0.1135712E+00
         21   -1    0    0  503  502  0.00000000000E+00  0.00000000000E+00  0.11126600891E+03  0.11126600891E+03  0.00000000000E+00 0.  1.
         21   -1    0    0  501  503 -0.00000000000E+00 -0.00000000000E+00 -0.49889242954E+03  0.49889242954E+03  0.00000000000E+00 0. -1.
          6    2    1    2  501    0 -0.13340589767E+03 -0.93386352271E+01 -0.31114069089E+03  0.37939444769E+03  0.17101834336E+03 0.  0.
         24    2    3    3    0    0 -0.22980935994E+02 -0.42891049124E+02 -0.19772623023E+03  0.21751681944E+03  0.76486202043E+02 0.  0.
         -6    2    1    2    0  502  0.13340589767E+03  0.93386352271E+01 -0.76485729744E+02  0.23076399076E+03  0.17180689432E+03 0.  0.
        -24    2    5    5    0    0  0.56786857826E+02  0.66209278893E+02 -0.20537289529E+02  0.12005235930E+03  0.79889754532E+02 0.  0.
          5    1    3    3  501    0 -0.11042496168E+03  0.33552413897E+02 -0.11341446066E+03  0.16187762825E+03  0.47000000000E+01 0. -1.
        -11    1    4    4    0    0 -0.25704657570E+01 -0.57594624251E+02 -0.89919309232E+02  0.10681399819E+03  0.00000000000E+00 0.  1.
         12    1    4    4    0    0 -0.20410470237E+02  0.14703575127E+02 -0.10780692100E+03  0.11070282125E+03  0.00000000000E+00 0. -1.
         -5    1    5    5    0  502  0.76619039847E+02 -0.56870643666E+02 -0.55948440215E+02  0.11071163146E+03  0.47000000000E+01 0.  1.
         13    1    6    6    0    0  0.36586585283E+02  0.36092634462E+02 -0.51213527136E+02  0.72553992631E+02  0.00000000000E+00 0. -1.
        -14    1    6    6    0    0  0.20200272543E+02  0.30116644431E+02  0.30676237606E+02  0.47498366669E+02  0.00000000000E+00 0.  1.
</event>
<event>
12    1  0.1623092E-001  0.1956860E+03  0.7818608E-02  0.1153838E+00
         21   -1    0    0  503  502  0.00000000000E+00  0.00000000000E+00  0.10033542831E+04  0.10033542831E+04  0.00000000000E+00 0. -1.
         21   -1    0    0  501  503 -0.00000000000E+00 -0.00000000000E+00 -0.38305024469E+02  0.38305024469E+02  0.00000000000E+00 0.  1.
          6    2    1    2  501    0  0.13262700230E+02  0.77363017833E+02  0.42510393535E+03  0.46798117505E+03  0.17925425686E+03 0.  0.
         24    2    3    3    0    0  0.59429473324E+02  0.12446210403E+02  0.14550505974E+03  0.17721806861E+03  0.80918174581E+02 0.  0.
         -6    2    1    2    0  502 -0.13262700230E+02 -0.77363017833E+02  0.53994532329E+03  0.57367813253E+03  0.17721374624E+03 0.  0.
        -24    2    5    5    0    0  0.22990293872E+00 -0.10011194431E+03  0.23484464327E+03  0.26739708684E+03  0.79540815518E+02 0.  0.
          5    1    3    3  501    0 -0.46166773094E+02  0.64916807429E+02  0.27959887561E+03  0.29076310644E+03  0.47000000000E+01 0. -1.
        -13    1    4    4    0    0  0.42699707313E+02  0.44567830654E+02  0.69024163477E+02  0.92595311315E+02  0.00000000000E+00 0.  1.
         14    1    4    4    0    0  0.16729766011E+02 -0.32121620251E+02  0.76480896263E+02  0.84622757291E+02  0.00000000000E+00 0. -1.
         -5    1    5    5    0  502 -0.13492603169E+02  0.22748926476E+02  0.30510068003E+03  0.30628104569E+03  0.47000000000E+01 0.  1.
         11    1    6    6    0    0 -0.36302108640E+02 -0.58570251544E+02  0.98068343273E+02  0.11985707076E+03  0.00000000000E+00 0. -1.
        -12    1    6    6    0    0  0.36532011579E+02 -0.41541692764E+02  0.13677629999E+03  0.14754001609E+03  0.00000000000E+00 0.  1.
</event>
<event>
12    1  0.1623092E-001  0.1786288E+03  0.7818608E-02  0.1169354E+00
         21   -1    0    0  501  502  0.00000000000E+00  0.00000000000E+00  0.20454436951E+03  0.20454436951E+03  0.00000000000E+00 0. -1.
         21   -1    0    0  502  503 -0.00000000000E+00 -0.00000000000E+00 -0.25045818704E+03  0.25045818704E+03  0.00000000000E+00 0. -1.
         -6    2    1    2    0  503 -0.11955267115E+02  0.44970556668E+02 -0.16320755032E+03  0.24130638427E+03  0.17154237735E+03 0.  0.
        -24    2    3    3    0    0  0.56392296897E+02  0.23567310269E+02 -0.64879108833E+02  0.11956871192E+03  0.79698612563E+02 0.  0.
          6    2    1    2  501    0  0.11955267115E+02 -0.44970556668E+02  0.11729373279E+03  0.21369617228E+03  0.17246145922E+03 0.  0.
         24    2    5    5    0    0 -0.16846037901E+02 -0.90017235656E+02  0.95730536717E+02  0.15585345551E+03  0.82091852367E+02 0.  0.
          5    1    5    5  501    0  0.28801305016E+02  0.45046678988E+02  0.21563196075E+02  0.57842716771E+02  0.47000000000E+01 0. -1.
        -13    1    6    6    0    0 -0.18294011770E+02 -0.79024262165E+02  0.25900982260E+02  0.85149079616E+02  0.00000000000E+00 0.  1.
         14    1    6    6    0    0  0.14479738685E+01 -0.10992973491E+02  0.69829554456E+02  0.70704375891E+02  0.00000000000E+00 0. -1.
         -5    1    3    3    0  503 -0.68347564012E+02  0.21403246400E+02 -0.98328441491E+02  0.12173767235E+03  0.47000000000E+01 0.  1.
         11    1    4    4    0    0 -0.14920448168E+02 -0.13216979426E+02 -0.95574502664E+01  0.22105500996E+02  0.00000000000E+00 0. -1.
        -12    1    4    4    0    0  0.71312745065E+02  0.36784289694E+02 -0.55321658567E+02  0.97463210924E+02  0.00000000000E+00 0.  1.
</event>
<event>
12    1  0.1623092E-001  0.3325973E+03  0.7818608E-02  0.1070151E+00
         21   -1    0    0  501  502  0.00000000000E+00  0.00000000000E+00  0.36233688399E+03  0.36233688399E+03  0.00000000000E+00 0.  1.
         21   -1    0    0  502  503 -0.00000000000E+00 -0.00000000000E+00 -0.35841068746E+03  0.35841068746E+03  0.00000000000E+00 0. -1.
         -6    2    1    2    0  503  0.42009733685E+01 -0.28266627839E+03  0.14239707654E+03  0.36047659238E+03  0.17247774677E+03 0.  0.
        -24    2    3    3    0    0 -0.64288095169E+02 -0.16264273389E+03  0.77437218409E+02  0.20770788841E+03  0.80996456996E+02 0.  0.
          6    2    1    2  501    0 -0.42009733685E+01  0.28266627839E+03 -0.13847088001E+03  0.36027097907E+03  0.17522305965E+03 0.  0.
         24    2    5    5    0    0  0.41202103767E+02  0.73609321070E+02 -0.39598117757E+02  0.12455045825E+03  0.82636918009E+02 0.  0.
          5    1    5    5  501    0 -0.45403077136E+02  0.20905695732E+03 -0.98872762251E+02  0.23572052082E+03  0.47000000000E+01 0. -1.
        -13    1    6    6    0    0  0.33597586395E+02  0.91533604898E+02 -0.39160177157E+02  0.10507482149E+03  0.00000000000E+00 0.  1.
         14    1    6    6    0    0  0.76045173727E+01 -0.17924283828E+02 -0.43794060020E+00  0.19475636759E+02  0.00000000000E+00 0. -1.
         -5    1    3    3    0  503  0.68489068538E+02 -0.12002354450E+03  0.64959858127E+02  0.15276870397E+03  0.47000000000E+01 0.  1.
         11    1    4    4    0    0 -0.19397769140E+02 -0.42799108604E+01  0.30757797578E+02  0.36614658218E+02  0.00000000000E+00 0. -1.
        -12    1    4    4    0    0 -0.44890326029E+02 -0.15836282303E+03  0.46679420830E+02  0.17109323019E+03  0.00000000000E+00 0.  1.
</event>
<event>
12    1  0.1623092E-001  0.1985394E+03  0.7818608E-02  0.1151623E+00
         21   -1    0    0  503  502  0.00000000000E+00  0.00000000000E+00  0.58155593995E+03  0.58155593995E+03  0.00000000000E+00 0.  1.
         21   -1    0    0  501  503 -0.00000000000E+00 -0.00000000000E+00 -0.78134414794E+02  0.78134414794E+02  0.00000000000E+00 0.  1.
          6    2    1    2  501    0 -0.89830590150E+02 -0.36344169648E+02  0.12420654160E+03  0.23164610437E+03  0.16982997115E+03 0.  0.
         24    2    3    3    0    0 -0.11676217943E+03 -0.50843037857E+02  0.62073040526E+02  0.16223292381E+03  0.79044532780E+02 0.  0.
         -6    2    1    2    0  502  0.89830590150E+02  0.36344169648E+02  0.37921498356E+03  0.42804425037E+03  0.17328428355E+03 0.  0.
        -24    2    5    5    0    0 -0.82266577373E+01  0.57088056301E+02  0.16514688072E+03  0.19162772102E+03  0.78236610247E+02 0.  0.
          5    1    3    3  501    0  0.26931589284E+02  0.14498868209E+02  0.62133501071E+02  0.69413180564E+02  0.47000000000E+01 0. -1.
        -13    1    4    4    0    0 -0.67600469173E+02 -0.66513134386E+02  0.23206265781E+02  0.97633760809E+02  0.00000000000E+00 0.  1.
         14    1    4    4    0    0 -0.49161710261E+02  0.15670096529E+02  0.38866774745E+02  0.64599162999E+02  0.00000000000E+00 0. -1.
         -5    1    5    5    0  502  0.98057247887E+02 -0.20743886653E+02  0.21406810284E+03  0.23641652935E+03  0.47000000000E+01 0.  1.
         11    1    6    6    0    0 -0.21227058352E+02 -0.79052460846E+01  0.83215326278E+02  0.86243095082E+02  0.00000000000E+00 0. -1.
        -12    1    6    6    0    0  0.13000400614E+02  0.64993302386E+02  0.81931554441E+02  0.10538462594E+03  0.00000000000E+00 0.  1.
</event>
<event>
12    1  0.1623092E-001  0.1837041E+03  0.7818608E-02  0.1164555E+00
         21   -1    0    0  503  502  0.00000000000E+00  0.00000000000E+00  0.10796725675E+03  0.10796725675E+03  0.00000000000E+00 0.  1.
         21   -1    0    0  501  503 -0.00000000000E+00 -0.00000000000E+00 -0.12871565220E+04  0.12871565220E+04  0.00000000000E+00 0.  1.
          6    2    1    2  501    0 -0.32812374379E+02 -0.54255785273E+02 -0.11977012947E+04  0.12117077177E+04  0.17241478950E+03 0.  0.
         24    2    3    3    0    0  0.22410401485E+01  0.28884633836E+02 -0.37946178528E+03  0.38849507449E+03  0.78088616831E+02 0.  0.
         -6    2    1    2    0  502  0.32812374379E+02  0.54255785273E+02  0.18512029451E+02  0.18341606105E+03  0.17110936289E+03 0.  0.
        -24    2    5    5    0    0 -0.35851468701E+02  0.50573841903E+02 -0.21614931699E+02  0.10366304817E+03  0.80223319489E+02 0.  0.
          5    1    3    3  501    0 -0.35053414527E+02 -0.83140419109E+02 -0.81823950941E+03  0.82321264319E+03  0.47000000000E+01 0. -1.
        -11    1    4    4    0    0  0.45444925487E+01  0.78759785739E+01 -0.35887800848E+03  0.35899318716E+03  0.00000000000E+00 0.  1.
         12    1    4    4    0    0 -0.23034524002E+01  0.21008655262E+02 -0.20583776800E+02  0.29501887333E+02  0.00000000000E+00 0. -1.
         -5    1    5    5    0  502  0.68663843079E+02  0.36819433701E+01  0.40126961150E+02  0.79753012887E+02  0.47000000000E+01 0.  1.
         13    1    6    6    0    0 -0.10312552840E+01 -0.11438284219E+00 -0.39582483929E+02  0.39596080675E+02  0.00000000000E+00 0. -1.
        -14    1    6    6    0    0 -0.34820213417E+02  0.50688224745E+02  0.17967552230E+02  0.64066967490E+02  0.00000000000E+00 0.  1.
</event>
<event>
12    1  0.1623092E-001  0.2853774E+03  0.7818608E-02  0.1094079E+00
         21   -1    0    0  501  502  0.00000000000E+00  0.00000000000E+00  0.17466743634E+04  0.17466743634E+04  0.00000000000E+00 0.  1.
         21   -1    0    0  502  503 -0.00000000000E+00 -0.00000000000E+00 -0.52578859053E+02  0.52578859053E+02  0.00000000000E+00 0. -1.
         -6    2    1    2    0  503 -0.12256969957E+03  0.17705005111E+03  0.11989705874E+04  0.12324653105E+04  0.18727044704E+03 0.  0.
        -24    2    3    3    0    0 -0.89640687010E+02  0.20579791418E+03  0.10735801957E+04  0.10995909344E+04  0.78342531016E+02 0.  0.
          6    2    1    2  501    0  0.12256969957E+03 -0.17705005111E+03  0.49512491693E+03  0.56678791191E+03  0.17242332172E+03 0.  0.
         24    2    5    5    0    0  0.11363311939E+02 -0.41186677719E+02  0.24346716536E+03  0.25990123770E+03  0.80292748574E+02 0.  0.
          5    1    5    5  501    0  0.11120638763E+03 -0.13586337339E+03  0.25165775157E+03  0.30688667421E+03  0.47000000000E+01 0. -1.
        -13    1    6    6    0    0 -0.29734412446E+02 -0.36191305487E+02  0.97350818009E+02  0.10803299331E+03  0.00000000000E+00 0.  1.
         14    1    6    6    0    0  0.41097724385E+02 -0.49953722326E+01  0.14611634735E+03  0.15186824439E+03  0.00000000000E+00 0. -1.
         -5    1    3    3    0  503 -0.32929012563E+02 -0.28747863063E+02  0.12539039166E+03  0.13287437608E+03  0.47000000000E+01 0.  1.
         11    1    4    4    0    0  0.13294974393E+02  0.36638434019E+02  0.21147784491E+03  0.21503955468E+03  0.00000000000E+00 0. -1.
        -12    1    4    4    0    0 -0.10293566140E+03  0.16915948016E+03  0.86210235080E+03  0.88455137973E+03  0.00000000000E+00 0.  1.
</event>
<event>
12    1  0.1623092E-001  0.1845618E+03  0.7818608E-02  0.1163671E+00
         21   -1    0    0  501  502  0.00000000000E+00  0.00000000000E+00  0.53159542846E+02  0.53159542846E+02  0.00000000000E+00 0.  1.
         21   -1    0    0  502  503 -0.00000000000E+00 -0.00000000000E+00 -0.65973648224E+03  0.65973648224E+03  0.00000000000E+00 0.  1.
         -6    2    1    2    0  503  0.56117219938E+02  0.30716058231E+02 -0.36923452647E+03  0.41279196099E+03  0.17311975310E+03 0.  0.
        -24    2    3    3    0    0  0.84772442233E+02 -0.22058277455E+02 -0.28799613328E+03  0.31165829300E+03  0.80722885529E+02 0.  0.
          6    2    1    2  501    0 -0.56117219938E+02 -0.30716058231E+02 -0.23734241292E+03  0.30010406409E+03  0.17215809510E+03 0.  0.
         24    2    5    5    0    0 -0.28359021132E+02 -0.46630544515E+02 -0.44521009216E+02  0.10458942985E+03  0.77318735210E+02 0.  0.
          5    1    5    5  501    0 -0.27758198805E+02  0.15914486285E+02 -0.19282140370E+03  0.19551463424E+03  0.47000000000E+01 0. -1.
        -11    1    6    6    0    0 -0.41417898057E+02 -0.37590410718E+02 -0.60268098484E+02  0.82223627701E+02  0.00000000000E+00 0.  1.
         12    1    6    6    0    0  0.13058876925E+02 -0.90401337969E+01  0.15747089268E+02  0.22365802154E+02  0.00000000000E+00 0. -1.
         -5    1    3    3    0  503 -0.28655222296E+02  0.52774335685E+02 -0.81238393192E+02  0.10113366799E+03  0.47000000000E+01 0.  1.
         11    1    4    4    0    0 -0.97387107566E+01 -0.22019512336E+02 -0.71072093255E+02  0.75039615207E+02  0.00000000000E+00 0. -1.
        -12    1    4    4    0    0  0.94511152990E+02 -0.38765118745E-01 -0.21692404002E+03  0.23661867780E+03  0.00000000000E+00 0.  1.
</event>
<event>
12    1  0.1623092E-001  0.3933867E+03  0.7818608E-02  0.1046117E+00
         21   -1    0    0  501  502  0.00000000000E+00  0.00000000000E+00  0.83719761265E+03  0.83719761265E+03  0.00000000000E+00 0. -1.
         21   -1    0    0  502  503 -0.00000000000E+00 -0.00000000000E+00 -0.21873582929E+03  0.21873582929E+03  0.00000000000E+00 0.  1.
         -6    2    1    2    0  503  0.33237839878E+03  0.12231128500E+03  0.10094736226E+03  0.40587633930E+03  0.17061589153E+03 0.  0.
        -24    2    3    3    0    0  0.26248249877E+03  0.28448556866E+02  0.67383197449E+02  0.28403918679E+03  0.80195896316E+02 0.  0.
          6    2    1    2  501    0 -0.33237839878E+03 -0.12231128500E+03  0.51751442110E+03  0.65005710265E+03  0.17122386001E+03 0.  0.
         24    2    5    5    0    0 -0.20769554304E+03 -0.11767497613E+02  0.25049890633E+03  0.33527921496E+03  0.79915813914E+02 0.  0.
          5    1    5    5  501    0 -0.12468285575E+03 -0.11054378739E+03  0.26701551477E+03  0.31477788769E+03  0.47000000000E+01 0. -1.
        -11    1    6    6    0    0 -0.21913577932E+02 -0.25756443995E+02  0.21531538296E+02  0.40089979377E+02  0.00000000000E+00 0.  1.
         12    1    6    6    0    0 -0.18578196510E+03  0.13988946382E+02  0.22896736803E+03  0.29518923558E+03  0.00000000000E+00 0. -1.
         -5    1    3    3    0  503  0.69895900008E+02  0.93862728139E+02  0.33564164807E+02  0.12183715251E+03  0.47000000000E+01 0.  1.
         13    1    4    4    0    0  0.14536047817E+03  0.18151639508E+02  0.78045949030E+02  0.16598289306E+03  0.00000000000E+00 0. -1.
        -14    1    4    4    0    0  0.11712202060E+03  0.10296917358E+02 -0.10662751582E+02  0.11805629373E+03  0.00000000000E+00 0.  1.
</event>
<event>
12    1  0.1623092E-001  0.2224383E+03  0.7818608E-02  0.1132617E+00
         21   -1    0    0  501  502  0.00000000000E+00  0.00000000000E+00  0.65494124415E+03  0.65494124415E+03  0.00000000000E+00 0. -1.
         21   -1    0    0  502  503 -0.00000000000E+00 -0.00000000000E+00 -0.18106659841E+03  0.18106659841E+03  0.00000000000E+00 0. -1.
         -6    2    1    2    0  503  0.45729082677E+02  0.13336895099E+03 -0.84291128255E+02  0.23515193933E+03  0.16826471459E+03 0.  0.
        -24    2    3    3    0    0  0.52667602121E+01  0.16411553429E+02 -0.77045904410E+02  0.11109221318E+03  0.78155809725E+02 0.  0.
          6    2    1    2  501    0 -0.45729082677E+02 -0.13336895099E+03  0.55816577399E+03  0.60085590323E+03  0.17204754896E+03 0.  0.
         24    2    5    5    0    0 -0.51843228249E+02 -0.13991732130E+03  0.56430893852E+03  0.58901983969E+03  0.78963386133E+02 0.  0.
          5    1    5    5  501    0  0.61141455719E+01  0.65483703081E+01 -0.61431645226E+01  0.11836063540E+02  0.47000000000E+01 0. -1.
        -11    1    6    6    0    0  0.20344461490E+02 -0.18168238481E+02  0.92129257315E+02  0.96082163050E+02  0.00000000000E+00 0.  1.
         12    1    6    6    0    0 -0.72187689740E+02 -0.12174908282E+03  0.47217968120E+03  0.49293767664E+03  0.00000000000E+00 0. -1.
         -5    1    3    3    0  503  0.40462322465E+02  0.11695739756E+03 -0.72452238453E+01  0.12405972615E+03  0.47000000000E+01 0.  1.
         13    1    4    4    0    0  0.26756925228E+02 -0.22577037271E+02 -0.27785763961E+02  0.44695685905E+02  0.00000000000E+00 0. -1.
        -14    1    4    4    0    0 -0.21490165016E+02  0.38988590700E+02 -0.49260140449E+02  0.66396527275E+02  0.00000000000E+00 0.  1.
</event>
<event>
12    1  0.1623092E-001  0.2107161E+03  0.7818608E-02  0.1141044E+00
         21   -1    0    0  501  502  0.00000000000E+00  0.00000000000E+00  0.55076765000E+03  0.55076765000E+03  0.00000000000E+00 0.  1.
         21   -1    0    0  502  503 -0.00000000000E+00 -0.00000000000E+00 -0.13506114415E+03  0.13506114415E+03  0.00000000000E+00 0.  1.
         -6    2    1    2    0  503 -0.95186336551E+02  0.83230882997E+02 -0.10101599325E+02  0.21073531138E+03  0.16828401767E+03 0.  0.
        -24    2    3    3    0    0 -0.70943689733E+02 -0.13351806959E+02  0.16666061240E+02  0.10751457908E+03  0.77912446094E+02 0.  0.
          6    2    1    2  501    0  0.95186336551E+02 -0.83230882997E+02  0.42580810518E+03  0.47509348278E+03  0.16856291523E+03 0.  0.
         24    2    5    5    0    0  0.29461645929E+02 -0.67244670515E+01  0.30957112245E+03  0.32112565239E+03  0.79838572977E+02 0.  0.
          5    1    5    5  501    0  0.65724690622E+02 -0.76506415945E+02  0.11623698273E+03  0.15396783038E+03  0.47000000000E+01 0. -1.
        -13    1    6    6    0    0  0.43424275449E+02 -0.33173250267E+02  0.17805785317E+03  0.18625447997E+03  0.00000000000E+00 0.  1.
         14    1    6    6    0    0 -0.13962629520E+02  0.26448783215E+02  0.13151326927E+03  0.13487117243E+03  0.00000000000E+00 0. -1.
         -5    1    3    3    0  503 -0.24242646818E+02  0.96582689955E+02 -0.26767660565E+02  0.10322073230E+03  0.47000000000E+01 0.  1.
         11    1    4    4    0    0 -0.15752127406E+02 -0.10795558998E+01 -0.30198808111E+02  0.34077308728E+02  0.00000000000E+00 0. -1.
        -12    1    4    4    0    0 -0.55191562327E+02 -0.12272251059E+02  0.46864869351E+02  0.73437270356E+02  0.00000000000E+00 0.  1.
</event>
<event>
12    1  0.1623092E-001  0.3463036E+03  0.7818608E-02  0.1064145E+00
         21   -1    0    0  503  502  0.00000000000E+00  0.00000000000E+00  0.14987386092E+03  0.14987386092E+03  0.00000000000E+00 0. -1.
         21   -1    0    0  501  503 -0.00000000000E+00 -0.00000000000E+00 -0.11373447377E+04  0.11373447377E+04  0.00000000000E+00 0.  1.
          6    2    1    2  501    0 -0.16894993988E+03 -0.24883018112E+03 -0.84420469359E+03  0.91247340495E+03  0.17165549462E+03 0.  0.
         24    2    3    3    0    0 -0.18758119129E+03 -0.21810547640E+03 -0.80691712066E+03  0.86047740409E+03  0.80928494293E+02 0.  0.
         -6    2    1    2    0  502  0.16894993988E+03  0.24883018112E+03 -0.14326618315E+03  0.37474519362E+03  0.17160483585E+03 0.  0.
        -24    2    5    5    0    0  0.10788509100E+03  0.11847702408E+03 -0.11076692674E+02  0.17925347331E+03  0.79580880104E+02 0.  0.
          5    1    3    3  501    0  0.18631251406E+02 -0.30724704725E+02 -0.37287572932E+02  0.51996000851E+02  0.47000000000E+01 0. -1.
        -13    1    4    4    0    0 -0.11674642801E+03 -0.18479666595E+03 -0.54797016842E+03  0.58995833893E+03  0.00000000000E+00 0.  1.
         14    1    4    4    0    0 -0.70834763280E+02 -0.33308810442E+02 -0.25894695224E+03  0.27051906516E+03  0.00000000000E+00 0. -1.
         -5    1    5    5    0  502  0.61064848886E+02  0.13035315704E+03 -0.13218949047E+03  0.19549172032E+03  0.47000000000E+01 0.  1.
         13    1    6    6    0    0  0.94171794499E+02  0.83849894322E+02 -0.39795982967E+02  0.13222273601E+03  0.00000000000E+00 0. -1.
        -14    1    6    6    0    0  0.13713296498E+02  0.34627129755E+02  0.28719290293E+02  0.47030737299E+02  0.00000000000E+00 0.  1.
</event>
<event>
12    1  0.1623092E-001  0.2160740E+03  0.7818608E-02  0.1137016E+00
         21   -1    0    0  503  502  0.00000000000E+00  0.00000000000E+00  0.53445355013E+03  0.53445355013E+03  0.00000000000E+00 0. -1.
         21   -1    0    0  501  503 -0.00000000000E+00 -0.00000000000E+00 -0.90035855428E+02  0.90035855428E+02  0.00000000000E+00 0. -1.
          6    2    1    2  501    0  0.85712275420E+02  0.97057904776E+02  0.27915613319E+03  0.35246118384E+03  0.17185432313E+03 0.  0.
         24    2    3    3    0    0  0.33526957732E+02  0.12472890798E+03  0.16777258902E+03  0.22629710135E+03  0.79883534419E+02 0.  0.
         -6    2    1    2    0  502 -0.85712275420E+02 -0.97057904776E+02  0.16526156152E+03  0.27202822172E+03  0.17297727787E+03 0.  0.
        -24    2    5    5    0    0 -0.33432655133E+02  0.10930290085E+02  0.31791029692E+02  0.92498052132E+02  0.79422958952E+02 0.  0.
          5    1    3    3  501    0  0.52185317689E+02 -0.27671003199E+02  0.11138354417E+03  0.12616408249E+03  0.47000000000E+01 0. -1.
        -11    1    4    4    0    0 -0.18945496032E+02  0.66579398843E+02  0.52262129698E+02  0.86735681070E+02  0.00000000000E+00 0.  1.
         12    1    4    4    0    0  0.52472453764E+02  0.58149509133E+02  0.11551045932E+03  0.13956142028E+03  0.00000000000E+00 0. -1.
         -5    1    5    5    0  502 -0.52279620287E+02 -0.10798819486E+03  0.13347053182E+03  0.17953016959E+03  0.47000000000E+01 0.  1.
         11    1    6    6    0    0 -0.67230538253E+01  0.16351200617E+02  0.54328325765E+02  0.57132549346E+02  0.00000000000E+00 0. -1.
        -12    1    6    6    0    0 -0.26709601308E+02 -0.54209105316E+01 -0.22537296073E+02  0.35365502786E+02  0.00000000000E+00 0.  1.
</event>
<event>
12    1  0.1623092E-001  0.2212241E+03  0.7818608E-02  0.1133246E+00
         21   -1    0    0  501  502  0.00000000000E+00  0.00000000000E+00  0.27341171799E+03  0.27341171799E+03  0.00000000000E+00 0. -1.
         21   -1    0    0  502  503 -0.00000000000E+00 -0.00000000000E+00 -0.27157246219E+03  0.27157246219E+03  0.00000000000E+00 0. -1.
         -6    2    1    2    0  503  0.49671508225E+02  0.12754312325E+03  0.16102571815E+03  0.27243982543E+03  0.17192925742E+03 0.  0.
        -24    2    3    3    0    0  0.36018109359E+02  0.15282611276E+03  0.16669566063E+03  0.24277700178E+03  0.80623224793E+02 0.  0.
          6    2    1    2  501    0 -0.49671508225E+02 -0.12754312325E+03 -0.15918646235E+03  0.27254435474E+03  0.17379755031E+03 0.  0.
         24    2    5    5    0    0 -0.35542963088E+02 -0.98964820891E+02 -0.25181581286E+02  0.13471934504E+03  0.80360760899E+02 0.  0.
          5    1    5    5  501    0 -0.14128545137E+02 -0.28578302354E+02 -0.13400488106E+03  0.13782500971E+03  0.47000000000E+01 0. -1.
        -13    1    6    6    0    0 -0.96302807816E+01  0.79974423457E+01 -0.21164941190E+02  0.24589756558E+02  0.00000000000E+00 0.  1.
         14    1    6    6    0    0 -0.25912682306E+02 -0.10696226324E+03 -0.40166400962E+01  0.11012958848E+03  0.00000000000E+00 0. -1.
         -5    1    3    3    0  503  0.13653398866E+02 -0.25282989514E+02 -0.56699424800E+01  0.29662823653E+02  0.47000000000E+01 0.  1.
         13    1    4    4    0    0  0.31243683800E+02  0.11473697534E+03  0.68242823727E+02  0.13710515774E+03  0.00000000000E+00 0. -1.
        -14    1    4    4    0    0  0.47744255583E+01  0.38089137418E+02  0.98452836902E+02  0.10567184404E+03  0.00000000000E+00 0.  1.
</event>
<event>
12    1  0.1623092E-001  0.2278250E+03  0.7818608E-02  0.1128436E+00
         21   -1    0    0  501  502  0.00000000000E+00  0.00000000000E+00  0.73038034650E+02  0.73038034650E+02  0.00000000000E+00 0.  1.
         21   -1    0    0  502  503 -0.00000000000E+00 -0.00000000000E+00 -0.76150556155E+03  0.76150556155E+03  0.00000000000E+00 0. -1.
         -6    2    1    2    0  503  0.11462968941E+03 -0.10038774400E+03 -0.45569271947E+03  0.50883155312E+03  0.16743963099E+03 0.  0.
        -24    2    3    3    0    0 -0.78832438149E+01 -0.51598218021E+02 -0.20531212427E+03  0.22580793377E+03  0.78176933593E+02 0.  0.
          6    2    1    2  501    0 -0.11462968941E+03  0.10038774400E+03 -0.23277480742E+03  0.32571204308E+03  0.16937106954E+03 0.  0.
         24    2    5    5    0    0  0.44633486780E+01  0.45238801955E+02 -0.74335881938E+02  0.11992200290E+03  0.82395344234E+02 0.  0.
          5    1    5    5  501    0 -0.11909303809E+03  0.55148942045E+02 -0.15843892549E+03  0.20579004018E+03  0.47000000000E+01 0. -1.
        -13    1    6    6    0    0 -0.33891548090E+02  0.18874223920E+02 -0.92036557138E+01  0.39869545257E+02  0.00000000000E+00 0.  1.
         14    1    6    6    0    0  0.38354896768E+02  0.26364578036E+02 -0.65132226225E+02  0.80052457639E+02  0.00000000000E+00 0. -1.
         -5    1    3    3    0  503  0.12251293323E+03 -0.48789525979E+02 -0.25038059520E+03  0.28302361934E+03  0.47000000000E+01 0.  1.
         11    1    4    4    0    0 -0.12933902075E+01 -0.19715689507E+02 -0.18780755866E+03  0.18884401065E+03  0.00000000000E+00 0. -1.
        -12    1    4    4    0    0 -0.65898536074E+01 -0.31882528514E+02 -0.17504565614E+02  0.36963923120E+02  0.00000000000E+00 0.  1.
</event>
<event>
12    1  0.1623092E-001  0.2030869E+03  0.7818608E-02  0.1147515E+00
         21   -1    0    0  503  502  0.00000000000E+00  0.00000000000E+00  0.51958254128E+03  0.51958254128E+03  0.00000000000E+00 0. -1.
         21   -1    0    0  501  503 -0.00000000000E+00 -0.00000000000E+00 -0.24117677465E+03  0.24117677465E+03  0.00000000000E+00 0.  1.
          6    2    1    2  501    0 -0.10374167702E+03 -0.27379745668E+02 -0.17280056616E+03  0.26665392321E+03  0.17243054565E+03 0.  0.
         24    2    3    3    0    0 -0.84788594171E+02 -0.64233869728E+02 -0.18071145467E+03  0.22420256320E+03  0.79341437955E+02 0.  0.
         -6    2    1    2    0  502  0.10374167702E+03  0.27379745668E+02  0.45120633279E+03  0.49410539272E+03  0.17041419641E+03 0.  0.
        -24    2    5    5    0    0  0.12111878407E+03 -0.31421966953E+01  0.42476014305E+03  0.44988951585E+03  0.85438656897E+02 0.  0.
          5    1    3    3  501    0 -0.18953082845E+02  0.36854124060E+02  0.79108885048E+01  0.42451360008E+02  0.47000000000E+01 0. -1.
        -11    1    4    4    0    0 -0.97790886049E+02 -0.66956759792E+02 -0.15357072069E+03  0.19398513172E+03  0.00000000000E+00 0.  1.
         12    1    4    4    0    0  0.13002291878E+02  0.27228900642E+01 -0.27140733979E+02  0.30217431481E+02  0.00000000000E+00 0. -1.
         -5    1    5    5    0  502 -0.17377107054E+02  0.30521942363E+02  0.26446189734E+02  0.44215876862E+02  0.47000000000E+01 0.  1.
         11    1    6    6    0    0  0.12649133043E+03 -0.21495458808E+02  0.35187061442E+03  0.37453309695E+03  0.00000000000E+00 0. -1.
        -12    1    6    6    0    0 -0.53725463573E+01  0.18353262113E+02  0.72889528639E+02  0.75356418902E+02  0.00000000000E+00 0.  1.
</event>
<event>
12    1  0.1623092E-001  0.1995154E+03  0.7818608E-02  0.1151027E+00
         21   -1    0    0  501  502  0.00000000000E+00  0.00000000000E+00  0.94128929904E+02  0.94128929904E+02  0.00000000000E+00 0.  1.
         21   -1    0    0  502  503 -0.00000000000E+00 -0.00000000000E+00 -0.51128987321E+03  0.51128987321E+03  0.00000000000E+00 0.  1.
         -6    2    1    2    0  503  0.70980335458E+02  0.71900477269E+02 -0.78457658573E+02  0.21438745496E+03  0.17204211695E+03 0.  0.
        -24    2    3    3    0    0  0.10010708757E+02  0.96132421175E+02 -0.22158168067E+02  0.12780682713E+03  0.80634632494E+02 0.  0.
          6    2    1    2  501    0 -0.70980335458E+02 -0.71900477269E+02 -0.33870328473E+03  0.39103134815E+03  0.16726539837E+03 0.  0.
         24    2    5    5    0    0 -0.26599897249E+02 -0.67464449020E+02 -0.32771670173E+03  0.34485671606E+03  0.79176458641E+02 0.  0.
          5    1    5    5  501    0 -0.44380438209E+02 -0.44360282489E+01 -0.10986582997E+02  0.46174632085E+02  0.47000000000E+01 0. -1.
        -13    1    6    6    0    0 -0.31072628395E+02 -0.72075331637E+02 -0.17260848042E+03  0.18961552990E+03  0.00000000000E+00 0.  1.
         14    1    6    6    0    0  0.44727311461E+01  0.46108826174E+01 -0.15510822131E+03  0.15524118616E+03  0.00000000000E+00 0. -1.
         -5    1    3    3    0  503  0.60969626700E+02 -0.24231943906E+02 -0.56299490506E+02  0.86580627837E+02  0.47000000000E+01 0.  1.
         13    1    4    4    0    0  0.30338944054E+02  0.21760565530E+02 -0.33147920602E+02  0.49927531270E+02  0.00000000000E+00 0. -1.
        -14    1    4    4    0    0 -0.20328235296E+02  0.74371855645E+02  0.10989752536E+02  0.77879295857E+02  0.00000000000E+00 0.  1.
</event>
<event>
12    1  0.1623092E-001  0.2143725E+03  0.7818608E-02  0.1138763E+00
         21   -1    0    0  501  502  0.00000000000E+00  0.00000000000E+00  0.10107687511E+03  0.10107687511E+03  0.00000000000E+00 0. -1.
         21   -1    0    0  502  503 -0.00000000000E+00 -0.00000000000E+00 -0.79118085232E+03  0.79118085232E+03  0.00000000000E+00 0. -1.
         -6    2    1    2    0  503 -0.88050169787E+02 -0.86297424441E+02 -0.64032611644E+03  0.67525779998E+03  0.17537241282E+03 0.  0.
        -24    2    3    3    0    0 -0.50205588464E+02  0.21450759870E+02 -0.24917317316E+03  0.26774755644E+03  0.81367976154E+02 0.  0.
          6    2    1    2  501    0  0.88050169787E+02  0.86297424441E+02 -0.49777860772E+02  0.21699992745E+03  0.17149651666E+03 0.  0.
         24    2    5    5    0    0  0.11001058528E+03  0.23400192394E+02 -0.16972094123E+02  0.14259139318E+03  0.85990438728E+02 0.  0.
          5    1    5    5  501    0 -0.21960415491E+02  0.62897232047E+02 -0.32805766649E+02  0.74408534276E+02  0.47000000000E+01 0. -1.
        -13    1    6    6    0    0  0.19334334691E+02  0.22806165918E+02  0.28363229077E+02  0.41211775811E+02  0.00000000000E+00 0.  1.
         14    1    6    6    0    0  0.90676250587E+02  0.59402647628E+00 -0.45335323201E+02  0.10137961737E+03  0.00000000000E+00 0. -1.
         -5    1    3    3    0  503 -0.37844581323E+02 -0.10774818431E+03 -0.39115294328E+03  0.40751024354E+03  0.47000000000E+01 0.  1.
         13    1    4    4    0    0 -0.44761364520E+02 -0.24763880096E+02 -0.12002259676E+03  0.13046935749E+03  0.00000000000E+00 0. -1.
        -14    1    4    4    0    0 -0.54442239442E+01  0.46214639965E+02 -0.12915057640E+03  0.13727819894E+03  0.00000000000E+00 0.  1.
</event>
<event>
12    1  0.1623092E-001  0.2148251E+03  0.7818608E-02  0.1137960E+00
         21   -1    0    0  503  502  0.00000000000E+00  0.00000000000E+00  0.90453226163E+02  0.90453226163E+02  0.00000000000E+00 0. -1.
         21   -1    0    0  501  503 -0.00000000000E+00 -0.00000000000E+00 -0.59527917298E+03  0.59527917298E+03  0.00000000000E+00 0. -1.
          6    2    1    2  501    0  0.10814998955E+03 -0.70587594132E+02 -0.38392828950E+03  0.43994402401E+03  0.17167056855E+03 0.  0.
         24    2    3    3    0    0  0.53058882055E+02 -0.96660973378E+01 -0.81369960002E+02  0.12639962262E+03  0.80293933805E+02 0.  0.
         -6    2    1    2    0  502 -0.10814998955E+03  0.70587594132E+02 -0.12089765732E+03  0.24578837513E+03  0.17063602527E+03 0.  0.
        -24    2    5    5    0    0 -0.13247616752E+03  0.18954258584E+02 -0.72659251842E+02  0.17090981987E+03  0.77598974028E+02 0.  0.
          5    1    3    3  501    0  0.55091107490E+02 -0.60921496795E+02 -0.30255832949E+03  0.31354440139E+03  0.47000000000E+01 0. -1.
        -11    1    4    4    0    0 -0.12566917894E+02 -0.21502878154E+02 -0.57198292872E+01  0.25554209856E+02  0.00000000000E+00 0.  1.
         12    1    4    4    0    0  0.65625799949E+02  0.11836780817E+02 -0.75650130715E+02  0.10084541277E+03  0.00000000000E+00 0. -1.
         -5    1    5    5    0  502  0.24326177978E+02  0.51633335548E+02 -0.48238405482E+02  0.74878555263E+02  0.47000000000E+01 0.  1.
         13    1    6    6    0    0 -0.10556393139E+03  0.38056854699E+02 -0.28493319659E+02  0.11577537331E+03  0.00000000000E+00 0. -1.
        -14    1    6    6    0    0 -0.26912236135E+02 -0.19102596115E+02 -0.44165932183E+02  0.55134446563E+02  0.00000000000E+00 0.  1.
</event>
<event>
12    1  0.1623092E-001  0.2017538E+03  0.7818608E-02  0.1148472E+00
         21   -1    0    0  501  502  0.00000000000E+00  0.00000000000E+00  0.76213543773E+02  0.76213543773E+02  0.00000000000E+00 0. -1.
         21   -1    0    0  502  503 -0.00000000000E+00 -0.00000000000E+00 -0.56864874685E+03  0.56864874685E+03  0.00000000000E+00 0.  1.
         -6    2    1    2    0  503 -0.71118581047E+02  0.77262094747E+02 -0.32918910202E+03  0.38609589952E+03  0.17227099257E+03 0.  0.
        -24    2    3    3    0    0 -0.78823765723E+02  0.11254790474E+03 -0.29821546390E+03  0.33828466114E+03  0.81386928587E+02 0.  0.
          6    2    1    2  501    0  0.71118581047E+02 -0.77262094747E+02 -0.16324610106E+03  0.25876639111E+03  0.17112414149E+03 0.  0.
         24    2    5    5    0    0  0.11432489835E+03 -0.57208597437E+02 -0.13960780203E+03  0.20538298742E+03  0.79679527667E+02 0.  0.
          5    1    5    5  501    0 -0.43206317300E+02 -0.20053497310E+02 -0.23638299032E+02  0.53383403695E+02  0.47000000000E+01 0. -1.
        -13    1    6    6    0    0  0.10111881770E+03 -0.50713070906E+02 -0.14962869702E+03  0.18757819123E+03  0.00000000000E+00 0.  1.
         14    1    6    6    0    0  0.13206080644E+02 -0.64955265304E+01  0.10020894986E+02  0.17804796185E+02  0.00000000000E+00 0. -1.
         -5    1    3    3    0  503  0.77051846768E+01 -0.35285809989E+02 -0.30973638114E+02  0.47811238381E+02  0.47000000000E+01 0.  1.
         11    1    4    4    0    0 -0.39596876858E+02  0.95139319494E+01 -0.38092368621E+02  0.55762497301E+02  0.00000000000E+00 0. -1.
        -12    1    4    4    0    0 -0.39226888865E+02  0.10303397279E+03 -0.26012309528E+03  0.28252216384E+03  0.00000000000E+00 0.  1.
</event>
<event>
12    1  0.1623092E-001  0.2178234E+03  0.7818608E-02  0.1137107E+00
         21   -1    0    0  501  502  0.00000000000E+00  0.00000000000E+00  0.12751252868E+04  0.12751252868E+04  0.00000000000E+00 0. -1.
         21   -1    0    0  502  503 -0.00000000000E+00 -0.00000000000E+00 -0.49875827282E+02  0.49875827282E+02  0.00000000000E+00 0. -1.
         -6    2    1    2    0  503  0.26905287814E+02 -0.11551324407E+03  0.25239339799E+03  0.32805780652E+03  0.17277816123E+03 0.  0.
        -24    2    3    3    0    0 -0.31019505318E+02 -0.16860741651E+02  0.15679431637E+03  0.17889724772E+03  0.78570180584E+02 0.  0.
          6    2    1    2  501    0 -0.26905287814E+02  0.11551324407E+03  0.97285606155E+03  0.99694330759E+03  0.18270149967E+03 0.  0.
         24    2    5    5    0    0  0.33326174797E+02  0.12556635274E+03  0.61432804291E+03  0.63322181492E+03  0.81813077881E+02 0.  0.
          5    1    5    5  501    0 -0.60231462611E+02 -0.10053108667E+02  0.35852801864E+03  0.36372149267E+03  0.47000000000E+01 0. -1.
        -11    1    6    6    0    0 -0.20979472703E+01  0.62756781761E+02  0.13990746320E+03  0.15335225234E+03  0.00000000000E+00 0.  1.
         12    1    6    6    0    0  0.35424122068E+02  0.62809570979E+02  0.47442057971E+03  0.47986956258E+03  0.00000000000E+00 0. -1.
         -5    1    3    3    0  503  0.57924793132E+02 -0.98652502421E+02  0.95599081620E+02  0.14916055879E+03  0.47000000000E+01 0.  1.
         13    1    4    4    0    0 -0.20451112395E+02 -0.45748645194E+02  0.64924404535E+02  0.82014418485E+02  0.00000000000E+00 0. -1.
        -14    1    4    4    0    0 -0.10568392924E+02  0.28887903543E+02  0.91869911835E+02  0.96882829236E+02  0.00000000000E+00 0.  1.
</event>
<event>
12    1  0.1623092E-001  0.2495374E+03  0.7818608E-02  0.1113671E+00
         21   -1    0    0  503  502  0.00000000000E+00  0.00000000000E+00  0.54624163412E+03  0.54624163412E+03  0.00000000000E+00 0.  1.
         21   -1    0    0  501  503 -0.00000000000E+00 -0.00000000000E+00 -0.29614186865E+03  0.29614186865E+03  0.00000000000E+00 0. -1.
          6    2    1    2  501    0 -0.16115954237E+03 -0.80856292361E+02 -0.20542232761E+03  0.32321392712E+03  0.17250730968E+03 0.  0.
         24    2    3    3    0    0 -0.65818748214E+02 -0.19654129030E+02 -0.17611487485E+03  0.20609608641E+03  0.82102102801E+02 0.  0.
         -6    2    1    2    0  502  0.16115954237E+03  0.80856292361E+02  0.45552209308E+03  0.51916957564E+03  0.17183286321E+03 0.  0.
        -24    2    5    5    0    0  0.12150966148E+03  0.81521532145E+02  0.19985632290E+03  0.26040398357E+03  0.80357493870E+02 0.  0.
          5    1    3    3  501    0 -0.95340794158E+02 -0.61202163331E+02 -0.29307452759E+02  0.11711784072E+03  0.47000000000E+01 0. -1.
        -13    1    4    4    0    0  0.17362996947E+02 -0.14777390858E+02 -0.49834850613E+02  0.54802894807E+02  0.00000000000E+00 0.  1.
         14    1    4    4    0    0 -0.83181745161E+02 -0.48767381720E+01 -0.12628002424E+03  0.15129319160E+03  0.00000000000E+00 0. -1.
         -5    1    5    5    0  502  0.39649880892E+02 -0.66523978346E+00  0.25566577018E+03  0.25876559207E+03  0.47000000000E+01 0.  1.
         13    1    6    6    0    0  0.39413501502E+02 -0.51084589410E+01  0.89179465003E+02  0.97634509430E+02  0.00000000000E+00 0. -1.
        -14    1    6    6    0    0  0.82096159978E+02  0.86629991086E+02  0.11067685789E+03  0.16276947414E+03  0.00000000000E+00 0.  1.
</event>
<event>
12    1  0.1623092E-001  0.2192281E+03  0.7818608E-02  0.1134465E+00
         21   -1    0    0  503  502  0.00000000000E+00  0.00000000000E+00  0.48773169521E+03  0.48773169521E+03  0.00000000000E+00 0.  1.
         21   -1    0    0  501  503 -0.00000000000E+00 -0.00000000000E+00 -0.12939120697E+03  0.12939120697E+03  0.00000000000E+00 0. -1.
          6    2    1    2  501    0 -0.11572723415E+03  0.71948603517E+02  0.28478300576E+02  0.22107001776E+03  0.17173102480E+03 0.  0.
         24    2    3    3    0    0 -0.58941860337E+02  0.53357805389E+01 -0.45108877240E+02  0.10661911299E+03  0.76355818350E+02 0.  0.
         -6    2    1    2    0  502  0.11572723415E+03 -0.71948603517E+02  0.32986218766E+03  0.39605288441E+03  0.17169574873E+03 0.  0.
        -24    2    5    5    0    0  0.61404359229E+02 -0.47219057460E+02  0.73675961599E+02  0.13296355051E+03  0.79063415860E+02 0.  0.
          5    1    3    3  501    0 -0.56785373809E+02  0.66612822978E+02  0.73587177816E+02  0.11445090477E+03  0.47000000000E+01 0. -1.
        -11    1    4    4    0    0  0.16479866629E+02 -0.10089828655E+02 -0.57652576401E+01  0.20165040096E+02  0.00000000000E+00 0.  1.
         12    1    4    4    0    0 -0.75421726966E+02  0.15425609193E+02 -0.39343619599E+02  0.86454072898E+02  0.00000000000E+00 0. -1.
         -5    1    5    5    0  502  0.54322874916E+02 -0.24729546057E+02  0.25618622606E+03  0.26308933390E+03  0.47000000000E+01 0.  1.
         13    1    6    6    0    0  0.34459365079E+01 -0.52199174135E+02  0.30900598147E+02  0.60757511672E+02  0.00000000000E+00 0. -1.
        -14    1    6    6    0    0  0.57958422721E+02  0.49801166750E+01  0.42775363452E+02  0.72206038839E+02  0.00000000000E+00 0.  1.
</event>
<event>
12    1  0.1623092E-001  0.1826990E+03  0.7818608E-02  0.1165302E+00
         21   -1    0    0  503  502  0.00000000000E+00  0.00000000000E+00  0.43950260224E+02  0.43950260224E+02  0.00000000000E+00 0.  1.
         21   -1    0    0  501  503 -0.00000000000E+00 -0.00000000000E+00 -0.90132870980E+03  0.90132870980E+03  0.00000000000E+00 0.  1.
          6    2    1    2  501    0 -0.58283833448E+01 -0.59904638525E+02 -0.61682418830E+03  0.64321062689E+03  0.17212000321E+03 0.  0.
         24    2    3    3    0    0  0.58281810902E+02 -0.73925884642E+02 -0.42880190204E+03  0.44400926526E+03  0.66417998572E+02 0.  0.
         -6    2    1    2    0  502  0.58283833448E+01  0.59904638525E+02 -0.24055426128E+03  0.30206834314E+03  0.17250042184E+03 0.  0.
        -24    2    5    5    0    0  0.63526164369E+02  0.71854484355E+02 -0.14056619164E+03  0.18591526819E+03  0.74879851967E+02 0.  0.
          5    1    3    3  501    0 -0.64110194246E+02  0.14021246117E+02 -0.18802228625E+03  0.19920136163E+03  0.47000000000E+01 0. -1.
        -11    1    4    4    0    0  0.44912757402E+02 -0.66849995228E+01 -0.13990546359E+03  0.14708971323E+03  0.00000000000E+00 0.  1.
         12    1    4    4    0    0  0.13369053500E+02 -0.67240885119E+02 -0.28889643846E+03  0.29691955203E+03  0.00000000000E+00 0. -1.
         -5    1    5    5    0  502 -0.57697781024E+02 -0.11949845830E+02 -0.99988069637E+02  0.11615307495E+03  0.47000000000E+01 0.  1.
         11    1    6    6    0    0  0.55977600379E+02  0.27989255303E+02 -0.35834927699E+02  0.72118182172E+02  0.00000000000E+00 0. -1.
        -12    1    6    6    0    0  0.75485639895E+01  0.43865229052E+02 -0.10473126394E+03  0.11379708601E+03  0.00000000000E+00 0.  1.
</event>
<event>
12    1  0.1623092E-001  0.2019481E+03  0.7818608E-02  0.1148632E+00
         21   -1    0    0  503  502  0.00000000000E+00  0.00000000000E+00  0.10453397841E+03  0.10453397841E+03  0.00000000000E+00 0. -1.
         21   -1    0    0  501  503 -0.00000000000E+00 -0.00000000000E+00 -0.99769163035E+03  0.99769163035E+03  0.00000000000E+00 0. -1.
          6    2    1    2  501    0 -0.10411183662E+03 -0.95162700205E+01 -0.87942651398E+03  0.90231592019E+03  0.17278076402E+03 0.  0.
         24    2    3    3    0    0 -0.56752470900E+02 -0.41404544186E+02 -0.78362353328E+03  0.79069122462E+03  0.78686666860E+02 0.  0.
         -6    2    1    2    0  502  0.10411183662E+03  0.95162700205E+01 -0.13731137960E+02  0.19990968857E+03  0.16983964648E+03 0.  0.
        -24    2    5    5    0    0  0.38516070596E+02  0.60146280972E+02  0.23228920669E+02  0.10905629864E+03  0.79073577814E+02 0.  0.
          5    1    3    3  501    0 -0.47359365718E+02  0.31888274165E+02 -0.95802980697E+02  0.11162469557E+03  0.47000000000E+01 0. -1.
        -13    1    4    4    0    0  0.14593883545E+02 -0.14667164543E+02 -0.69497030751E+02  0.72511684823E+02  0.00000000000E+00 0.  1.
         14    1    4    4    0    0 -0.71346354445E+02 -0.26737379643E+02 -0.71412650253E+03  0.71817953980E+03  0.00000000000E+00 0. -1.
         -5    1    5    5    0  502  0.65595766023E+02 -0.50630010951E+02 -0.36960058629E+02  0.90853389936E+02  0.47000000000E+01 0.  1.
         11    1    6    6    0    0  0.37696665213E+02 -0.71892360607E+01  0.15046944213E+02  0.41220555715E+02  0.00000000000E+00 0. -1.
        -12    1    6    6    0    0  0.81940538324E+00  0.67335517032E+02  0.81819764557E+01  0.67835742923E+02  0.00000000000E+00 0.  1.
</event>
<event>
12    1  0.1623092E-001  0.1734124E+03  0.7818608E-02  0.1174725E+00
         21   -1    0    0  503  502  0.00000000000E+00  0.00000000000E+00  0.39839972508E+03  0.39839972508E+03  0.00000000000E+00 0.  1.
         21   -1    0    0  501  503 -0.00000000000E+00 -0.00000000000E+00 -0.97861513100E+02  0.97861513100E+02  0.00000000000E+00 0.  1.
          6    2    1    2  501    0 -0.14694884220E+02 -0.18086394798E+02  0.29354662747E+02  0.17437248059E+03  0.17029682458E+03 0.  0.
         24    2    3    3    0    0 -0.13809433228E+02 -0.77455121924E+02  0.14572493150E+02  0.11300447327E+03  0.79797600616E+02 0.  0.
         -6    2    1    2    0  502  0.14694884220E+02  0.18086394798E+02  0.27118354923E+03  0.32188875760E+03  0.17183945296E+03 0.  0.
        -24    2    5    5    0    0  0.54481608741E+02  0.36563143794E+02  0.96781321138E+02  0.14199267408E+03  0.80561691856E+02 0.  0.
          5    1    3    3  501    0 -0.88545099251E+00  0.59368727125E+02  0.14782169597E+02  0.61368007316E+02  0.47000000000E+01 0. -1.
        -11    1    4    4    0    0  0.70971809750E+00  0.16296271285E+02 -0.28218599924E+01  0.16554004089E+02  0.00000000000E+00 0.  1.
         12    1    4    4    0    0 -0.14519151325E+02 -0.93751393209E+02  0.17394353142E+02  0.96450469180E+02  0.00000000000E+00 0. -1.
         -5    1    5    5    0  502 -0.39786724521E+02 -0.18476748996E+02  0.17440222810E+03  0.17989608352E+03  0.47000000000E+01 0.  1.
         11    1    6    6    0    0  0.36878398980E+02  0.61654994083E+02  0.78005666571E+02  0.10604828440E+03  0.00000000000E+00 0. -1.
        -12    1    6    6    0    0  0.17603209761E+02 -0.25091850289E+02  0.18775654568E+02  0.35944389677E+02  0.00000000000E+00 0.  1.
</event>
<event>
12    1  0.1623092E-001  0.1897635E+03  0.7818608E-02  0.1158943E+00
         21   -1    0    0  501  502  0.00000000000E+00  0.00000000000E+00  0.57110578005E+03  0.57110578005E+03  0.00000000000E+00 0.  1.
         21   -1    0    0  502  503 -0.00000000000E+00 -0.00000000000E+00 -0.65153631045E+02  0.65153631045E+02  0.00000000000E+00 0.  1.
         -6    2    1    2    0  503  0.68316649521E+02 -0.37447256694E+02  0.31597263200E+03  0.36857685852E+03  0.17303391237E+03 0.  0.
        -24    2    3    3    0    0  0.12642241245E+02 -0.81582630792E+02  0.23191182545E+03  0.25841388751E+03  0.78607191561E+02 0.  0.
          6    2    1    2  501    0 -0.68316649521E+02  0.37447256694E+02  0.18997951701E+03  0.26768255258E+03  0.17173313727E+03 0.  0.
         24    2    5    5    0    0  0.10756661122E+02  0.63686775754E+02  0.14239186313E+03  0.17162124081E+03  0.70758013315E+02 0.  0.
          5    1    5    5  501    0 -0.79073310643E+02 -0.26239519060E+02  0.47587653884E+02  0.96061311769E+02  0.47000000000E+01 0. -1.
        -13    1    6    6    0    0  0.11623028093E+02  0.69099110151E+01  0.99614048496E+02  0.10052760969E+03  0.00000000000E+00 0.  1.
         14    1    6    6    0    0 -0.86636697091E+00  0.56776864739E+02  0.42777814631E+02  0.71093631121E+02  0.00000000000E+00 0. -1.
         -5    1    3    3    0  503  0.55674408276E+02  0.44135374098E+02  0.84060806546E+02  0.11016297101E+03  0.47000000000E+01 0.  1.
         11    1    4    4    0    0 -0.21973764235E+02 -0.32080624734E+02  0.34554323855E+02  0.52019362694E+02  0.00000000000E+00 0. -1.
        -12    1    4    4    0    0  0.34616005481E+02 -0.49502006058E+02  0.19735750160E+03  0.20639452482E+03  0.00000000000E+00 0.  1.
</event>
<event>
12    1  0.1623092E-001  0.3428169E+03  0.7818608E-02  0.1065621E+00
         21   -1    0    0  501  502  0.00000000000E+00  0.00000000000E+00  0.42138236415E+03  0.42138236415E+03  0.00000000000E+00 0.  1.
         21   -1    0    0  502  503 -0.00000000000E+00 -0.00000000000E+00 -0.27988430308E+03  0.27988430308E+03  0.00000000000E+00 0. -1.
         -6    2    1    2    0  503  0.24707903883E+03 -0.16295710038E+03  0.48489348744E+02  0.34622921231E+03  0.17297509220E+03 0.  0.
        -24    2    3    3    0    0  0.58571049771E+02 -0.40429176498E+02 -0.36323050831E+02  0.10588864729E+03  0.69483490271E+02 0.  0.
          6    2    1    2  501    0 -0.24707903883E+03  0.16295710038E+03  0.93008712330E+02  0.35503745492E+03  0.17262069932E+03 0.  0.
         24    2    5    5    0    0 -0.17031472198E+03  0.68639746581E+02  0.11725332935E+03  0.23094710468E+03  0.76613984242E+02 0.  0.
          5    1    5    5  501    0 -0.76764316848E+02  0.94317353799E+02 -0.24244617017E+02  0.12409035024E+03  0.47000000000E+01 0. -1.
        -13    1    6    6    0    0 -0.11800075185E+03  0.90327993556E+01  0.57061663016E+02  0.13138417822E+03  0.00000000000E+00 0.  1.
         14    1    6    6    0    0 -0.52313970135E+02  0.59606947226E+02  0.60191666331E+02  0.99562926457E+02  0.00000000000E+00 0. -1.
         -5    1    3    3    0  503  0.18850798906E+03 -0.12252792388E+03  0.84812399575E+02  0.24034056502E+03  0.47000000000E+01 0.  1.
         13    1    4    4    0    0  0.56082695832E+02  0.24467022017E+01 -0.15979414137E+02  0.58366058627E+02  0.00000000000E+00 0. -1.
        -14    1    4    4    0    0  0.24883539393E+01 -0.42875878700E+02 -0.20343636694E+02  0.47522588667E+02  0.00000000000E+00 0.  1.
</event>
<event>
12    1  0.1623092E-001  0.1770137E+03  0.7818608E-02  0.1170827E+00
         21   -1    0    0  501  502  0.00000000000E+00  0.00000000000E+00  0.86437985781E+03  0.86437985781E+03  0.00000000000E+00 0. -1.
         21   -1    0    0  502  503 -0.00000000000E+00 -0.00000000000E+00 -0.76645694546E+02  0.76645694546E+02  0.00000000000E+00 0. -1.
         -6    2    1    2    0  503 -0.37129829269E+02 -0.76307701532E+01  0.51714140532E+02  0.18401872843E+03  0.17248677400E+03 0.  0.
        -24    2    3    3    0    0 -0.72461254845E+02  0.40867434003E+02  0.26538485120E+02  0.11877848728E+03  0.80518676293E+02 0.  0.
          6    2    1    2  501    0  0.37129829269E+02  0.76307701532E+01  0.73602002273E+03  0.75700682393E+03  0.17290750342E+03 0.  0.
         24    2    5    5    0    0 -0.81594085822E+01  0.64177602507E+02  0.35601718150E+03  0.37013099287E+03  0.77867693860E+02 0.  0.
          5    1    5    5  501    0  0.45289237852E+02 -0.56546832353E+02  0.38000284123E+03  0.38687583106E+03  0.47000000000E+01 0. -1.
        -13    1    6    6    0    0 -0.29480912917E+02  0.59897300155E+01  0.53932725146E+02  0.61755485050E+02  0.00000000000E+00 0.  1.
         14    1    6    6    0    0  0.21321504334E+02  0.58187872491E+02  0.30208445636E+03  0.30837550782E+03  0.00000000000E+00 0. -1.
         -5    1    3    3    0  503  0.35331425575E+02 -0.48498204157E+02  0.25175655411E+02  0.65240241148E+02  0.47000000000E+01 0.  1.
         11    1    4    4    0    0  0.15934745828E+01  0.41528929868E+02  0.12532612069E+02  0.43408035460E+02  0.00000000000E+00 0. -1.
        -12    1    4    4    0    0 -0.74054729427E+02 -0.66149586467E+00  0.14005873051E+02  0.75370451818E+02  0.00000000000E+00 0.  1.
</event>
<event>
12    1  0.1623092E-001  0.2304132E+03  0.7818608E-02  0.1126431E+00
         21   -1    0    0  501  502  0.00000000000E+00  0.00000000000E+00  0.51813317256E+03  0.51813317256E+03  0.00000000000E+00 0.  1.
         21   -1    0    0  502  503 -0.00000000000E+00 -0.00000000000E+00 -0.12455453074E+03  0.12455453074E+03  0.00000000000E+00 0.  1.
         -6    2    1    2    0  503 -0.17932023983E+02  0.15259377557E+03  0.60992090489E+02  0.23834905403E+03  0.17170852811E+03 0.  0.
        -24    2    3    3    0    0 -0.12841180171E+02  0.17966009908E+03  0.70316769399E+02  0.20889498476E+03  0.79057064766E+02 0.  0.
          6    2    1    2  501    0  0.17932023983E+02 -0.15259377557E+03  0.33258655133E+03  0.40433864927E+03  0.17108334618E+03 0.  0.
         24    2    5    5    0    0  0.22439710699E+02 -0.17690484357E+03  0.23816679329E+03  0.30662207966E+03  0.74127012718E+02 0.  0.
          5    1    5    5  501    0 -0.45076867162E+01  0.24311068004E+02  0.94419758042E+02  0.97716569607E+02  0.47000000000E+01 0. -1.
        -13    1    6    6    0    0  0.71637248826E+01 -0.12942810062E+03  0.21629407858E+03  0.25216280577E+03  0.00000000000E+00 0.  1.
         14    1    6    6    0    0  0.15275985817E+02 -0.47476742954E+02  0.21872714708E+02  0.54459273892E+02  0.00000000000E+00 0. -1.
         -5    1    3    3    0  503 -0.50908438123E+01 -0.27066323515E+02 -0.93246789103E+01  0.29454069263E+02  0.47000000000E+01 0.  1.
         13    1    4    4    0    0 -0.16098768756E+01 -0.63667317715E+01 -0.46182596664E+01  0.80284057789E+01  0.00000000000E+00 0. -1.
        -14    1    4    4    0    0 -0.11231303295E+02  0.18602683085E+03  0.74935029066E+02  0.20086657898E+03  0.00000000000E+00 0.  1.
</event>
<event>
12    1  0.1623092E-001  0.1788922E+03  0.7818608E-02  0.1168966E+00
         21   -1    0    0  501  502  0.00000000000E+00  0.00000000000E+00  0.64371633093E+03  0.64371633093E+03  0.00000000000E+00 0.  1.
         21   -1    0    0  502  503 -0.00000000000E+00 -0.00000000000E+00 -0.72935661297E+02  0.72935661297E+02  0.00000000000E+00 0.  1.
         -6    2    1    2    0  503  0.32648588482E+02 -0.30637112654E+02  0.82587108848E+02  0.19671414956E+03  0.17283304975E+03 0.  0.
        -24    2    3    3    0    0 -0.34123339209E+02  0.10210316153E+02  0.80068276093E+02  0.11825755464E+03  0.79405714892E+02 0.  0.
          6    2    1    2  501    0 -0.32648588482E+02  0.30637112654E+02  0.48819356078E+03  0.51993784267E+03  0.17319885811E+03 0.  0.
         24    2    5    5    0    0 -0.25998145940E+02 -0.40002509459E+02  0.37566879354E+03  0.38682849724E+03  0.78950234201E+02 0.  0.
          5    1    5    5  501    0 -0.66504425423E+01  0.70639622113E+02  0.11252476724E+03  0.13310934543E+03  0.47000000000E+01 0. -1.
        -11    1    6    6    0    0 -0.24936772918E+02  0.19054375025E+02  0.16879038363E+03  0.17168315426E+03  0.00000000000E+00 0.  1.
         12    1    6    6    0    0 -0.10613730221E+01 -0.59056884485E+02  0.20687840991E+03  0.21514534298E+03  0.00000000000E+00 0. -1.
         -5    1    3    3    0  503  0.66771927691E+02 -0.40847428807E+02  0.25188327553E+01  0.78456594918E+02  0.47000000000E+01 0.  1.
         13    1    4    4    0    0 -0.56803480294E+02  0.89561357509E+01  0.33771262841E+02  0.66688424295E+02  0.00000000000E+00 0. -1.
        -14    1    4    4    0    0  0.22680141085E+02  0.12541804024E+01  0.46297013252E+02  0.51569130342E+02  0.00000000000E+00 0.  1.
</event>
<event>
12    1  0.1623092E-001  0.2923370E+03  0.7818608E-02  0.1089233E+00
         21   -1    0    0  501  502  0.00000000000E+00  0.00000000000E+00  0.12985853959E+04  0.12985853959E+04  0.00000000000E+00 0. -1.
         21   -1    0    0  502  503 -0.00000000000E+00 -0.00000000000E+00 -0.65808890664E+02  0.65808890664E+02  0.00000000000E+00 0.  1.
         -6    2    1    2    0  503  0.22220770697E+03 -0.79576510759E+02  0.65012971533E+03  0.71252146251E+03  0.17120018014E+03 0.  0.
        -24    2    3    3    0    0  0.75848489458E+02  0.11549694421E+02  0.16977143388E+03  0.20213810230E+03  0.78428845748E+02 0.  0.
          6    2    1    2  501    0 -0.22220770697E+03  0.79576510759E+02  0.58264678991E+03  0.65187282405E+03  0.17248829193E+03 0.  0.
         24    2    5    5    0    0 -0.12372373810E+03  0.47878975397E+02  0.18511435774E+03  0.24107122901E+03  0.79044622575E+02 0.  0.
          5    1    5    5  501    0 -0.98483968870E+02  0.31697535362E+02  0.39753243216E+03  0.41080159505E+03  0.47000000000E+01 0. -1.
        -11    1    6    6    0    0  0.53649379191E+00  0.19489752473E+02  0.57455569203E+02  0.60673558569E+02  0.00000000000E+00 0.  1.
         12    1    6    6    0    0 -0.12426023189E+03  0.28389222924E+02  0.12765878854E+03  0.18039767044E+03  0.00000000000E+00 0. -1.
         -5    1    3    3    0  503  0.14635921751E+03 -0.91126205180E+02  0.48035828146E+03  0.51038336021E+03  0.47000000000E+01 0.  1.
         11    1    4    4    0    0  0.87715525309E+02  0.25162821664E+02  0.13486343401E+03  0.16283527507E+03  0.00000000000E+00 0. -1.
        -12    1    4    4    0    0 -0.11867035852E+02 -0.13613127243E+02  0.34907999870E+02  0.39302827229E+02  0.00000000000E+00 0.  1.
</event>
<event>
12    1  0.1623092E-001  0.2226562E+03  0.7818608E-02  0.1131920E+00
         21   -1    0    0  503  502  0.00000000000E+00  0.00000000000E+00  0.46526689945E+03  0.46526689945E+03  0.00000000000E+00 0. -1.
         21   -1    0    0  501  503 -0.00000000000E+00 -0.00000000000E+00 -0.17865685717E+03  0.17865685717E+03  0.00000000000E+00 0.  1.
          6    2    1    2  501    0 -0.13991688201E+03  0.17878864576E+02 -0.61242703418E+02  0.23091367081E+03  0.17226162362E+03 0.  0.
         24    2    3    3    0    0 -0.16448506126E+03 -0.11772024689E+02 -0.42100828988E+02  0.18765546902E+03  0.79045425593E+02 0.  0.
         -6    2    1    2    0  502  0.13991688201E+03 -0.17878864576E+02  0.34785274569E+03  0.41301008581E+03  0.17227713319E+03 0.  0.
        -24    2    5    5    0    0  0.52968175914E+01 -0.49101293133E+01  0.82722662620E+02  0.11534114085E+03  0.80052321738E+02 0.  0.
          5    1    3    3  501    0  0.24568179247E+02  0.29650889265E+02 -0.19141874430E+02  0.43258201793E+02  0.47000000000E+01 0. -1.
        -13    1    4    4    0    0 -0.21440051805E+02 -0.84366065257E+01 -0.38088892119E+02  0.44515344028E+02  0.00000000000E+00 0.  1.
         14    1    4    4    0    0 -0.14304500946E+03 -0.33354181631E+01 -0.40119368692E+01  0.14314012499E+03  0.00000000000E+00 0. -1.
         -5    1    5    5    0  502  0.13462006442E+03 -0.12968735263E+02  0.26513008307E+03  0.29766894496E+03  0.47000000000E+01 0.  1.
         13    1    6    6    0    0 -0.16252152810E+02  0.29101993576E+02  0.61193226676E+02  0.69682634078E+02  0.00000000000E+00 0. -1.
        -14    1    6    6    0    0  0.21548970401E+02 -0.34012122889E+02  0.21529435944E+02  0.45658506774E+02  0.00000000000E+00 0.  1.
</event>
<event>
12    1  0.1623092E-001  0.1857929E+03  0.7818608E-02  0.1162863E+00
         21   -1    0    0  501  502  0.00000000000E+00  0.00000000000E+00  0.97961056180E+03  0.97961056180E+03  0.00000000000E+00 0. -1.
         21   -1    0    0  502  503 -0.00000000000E+00 -0.00000000000E+00 -0.57354139165E+02  0.57354139165E+02  0.00000000000E+00 0.  1.
         -6    2    1    2    0  503  0.64607645173E+02 -0.20881339504E+02  0.13772221313E+03  0.23127129572E+03  0.17294168405E+03 0.  0.
        -24    2    3    3    0    0  0.48993915284E+02  0.40730613908E+01  0.16579454305E+03  0.19032430081E+03  0.79489089861E+02 0.  0.
          6    2    1    2  501    0 -0.64607645173E+02  0.20881339504E+02  0.78453420951E+03  0.80569340525E+03  0.17040469247E+03 0.  0.
         24    2    5    5    0    0 -0.67307716098E+02 -0.70981094096E+01  0.76200267647E+03  0.76936297825E+03  0.81796097422E+02 0.  0.
          5    1    5    5  501    0  0.27000709257E+01  0.27979448913E+02  0.22531533034E+02  0.36330426991E+02  0.47000000000E+01 0. -1.
        -11    1    6    6    0    0 -0.76355648319E+01  0.12677839805E+02  0.20958248878E+02  0.25656922427E+02  0.00000000000E+00 0.  1.
         12    1    6    6    0    0 -0.59672151266E+02 -0.19775949215E+02  0.74104442759E+03  0.74370605583E+03  0.00000000000E+00 0. -1.
         -5    1    3    3    0  503  0.15613729889E+02 -0.24954400895E+02 -0.28072329925E+02  0.40946994914E+02  0.47000000000E+01 0.  1.
         11    1    4    4    0    0  0.25719306596E+02  0.22064861465E+02  0.15652625735E+02  0.37327543927E+02  0.00000000000E+00 0. -1.
        -12    1    4    4    0    0  0.23274608688E+02 -0.17991800074E+02  0.15014191732E+03  0.15299675688E+03  0.00000000000E+00 0.  1.
</event>
<event>
12    1  0.1623092E-001  0.2120655E+03  0.7818608E-02  0.1140653E+00
         21   -1    0    0  501  502  0.00000000000E+00  0.00000000000E+00  0.38783351200E+02  0.38783351200E+02  0.00000000000E+00 0.  1.
         21   -1    0    0  502  503 -0.00000000000E+00 -0.00000000000E+00 -0.13524732032E+04  0.13524732032E+04  0.00000000000E+00 0. -1.
         -6    2    1    2    0  503  0.26682096062E+00 -0.11945496127E+03 -0.92785725259E+03  0.95098553739E+03  0.17083574620E+03 0.  0.
        -24    2    3    3    0    0  0.58508801364E+02 -0.86222062639E+02 -0.73350832821E+03  0.74533985123E+03  0.81483141467E+02 0.  0.
          6    2    1    2  501    0 -0.26682096062E+00  0.11945496127E+03 -0.38583259937E+03  0.44027101697E+03  0.17522047448E+03 0.  0.
         24    2    5    5    0    0  0.44137580167E+02  0.16166551755E+02 -0.13263467699E+03  0.16319426897E+03  0.82649431375E+02 0.  0.
          5    1    5    5  501    0 -0.44404401128E+02  0.10328840952E+03 -0.25319792238E+03  0.27707674800E+03  0.47000000000E+01 0. -1.
        -13    1    6    6    0    0  0.25105548213E+02 -0.12599269049E+02 -0.20872121567E+01  0.28167118884E+02  0.00000000000E+00 0.  1.
         14    1    6    6    0    0  0.19032031954E+02  0.28765820804E+02 -0.13054746483E+03  0.13502715009E+03  0.00000000000E+00 0. -1.
         -5    1    3    3    0  503 -0.58241980403E+02 -0.33232898636E+02 -0.19434892437E+03  0.20564568616E+03  0.47000000000E+01 0.  1.
         13    1    4    4    0    0  0.96384431344E+01  0.13709499213E+02 -0.17903957091E+03  0.17982218414E+03  0.00000000000E+00 0. -1.
        -14    1    4    4    0    0  0.48870358230E+02 -0.99931561852E+02 -0.55446875730E+03  0.56551766709E+03  0.00000000000E+00 0.  1.
</event>
<event>
12    1  0.1623092E-001  0.1989342E+03  0.7818608E-02  0.1150981E+00
         21   -1    0    0  503  502  0.00000000000E+00  0.00000000000E+00  0.58620885077E+03  0.58620885077E+03  0.00000000000E+00 0. -1.
         21   -1    0    0  501  503 -0.00000000000E+00 -0.00000000000E+00 -0.31389744344E+03  0.31389744344E+03  0.00000000000E+00 0. -1.
          6    2    1    2  501    0 -0.93152591372E+02  0.32389225938E+02 -0.26312742886E+03  0.32890617821E+03  0.17092911692E+03 0.  0.
         24    2    3    3    0    0 -0.84297387135E+02 -0.89542026745E+01 -0.78760288951E+02  0.13969458763E+03  0.78263449165E+02 0.  0.
         -6    2    1    2    0  502  0.93152591372E+02 -0.32389225938E+02  0.53543883619E+03  0.57120011600E+03  0.17276677339E+03 0.  0.
        -24    2    5    5    0    0  0.44687495760E+02  0.27582457927E+02  0.14501305004E+03  0.17320532603E+03  0.78825985691E+02 0.  0.
          5    1    3    3  501    0 -0.88552042375E+01  0.41343428612E+02 -0.18436713991E+03  0.18921159058E+03  0.47000000000E+01 0. -1.
        -11    1    4    4    0    0 -0.14585574265E+02 -0.14609231071E+02  0.12941466888E+02  0.24364937397E+02  0.00000000000E+00 0.  1.
         12    1    4    4    0    0 -0.69711812870E+02  0.56550283964E+01 -0.91701755839E+02  0.11532965024E+03  0.00000000000E+00 0. -1.
         -5    1    5    5    0  502  0.48465095612E+02 -0.59971683865E+02  0.39042578614E+03  0.39799478997E+03  0.47000000000E+01 0.  1.
         11    1    6    6    0    0  0.55635113402E+02 -0.69941281476E+01  0.10613523505E+03  0.12003696011E+03  0.00000000000E+00 0. -1.
        -12    1    6    6    0    0 -0.10947617642E+02  0.34576586075E+02  0.38877814987E+02  0.53168365922E+02  0.00000000000E+00 0.  1.
</event>
<event>
12    1  0.1623092E-001  0.1798657E+03  0.7818608E-02  0.1167993E+00
         21   -1    0    0  503  502  0.00000000000E+00  0.00000000000E+00  0.14398766221E+03  0.14398766221E+03  0.00000000000E+00 0. -1.
         21   -1    0    0  501  503 -0.00000000000E+00 -0.00000000000E+00 -0.22461845189E+03  0.22461845189E+03  0.00000000000E+00 0. -1.
          6    2    1    2  501    0  0.28449251024E+02  0.45868278569E+02 -0.46369405888E+02  0.18550639824E+03  0.17131620800E+03 0.  0.
         24    2    3    3    0    0  0.28488679978E+01 -0.29398250192E+02  0.14771373420E+02  0.85103635049E+02  0.78435081836E+02 0.  0.
         -6    2    1    2    0  502 -0.28449251024E+02 -0.45868278569E+02 -0.34261383793E+02  0.18309971585E+03  0.17157623571E+03 0.  0.
        -24    2    5    5    0    0  0.81471867298E+01  0.83917274211E+01  0.36927727407E+02  0.86283255162E+02  0.77099580603E+02 0.  0.
          5    1    3    3  501    0  0.25600383027E+02  0.75266528761E+02 -0.61140779307E+02  0.10040276320E+03  0.47000000000E+01 0. -1.
        -13    1    4    4    0    0  0.19189547546E+02 -0.52281808872E+02  0.96497606375E+01  0.56522067852E+02  0.00000000000E+00 0.  1.
         14    1    4    4    0    0 -0.16340679548E+02  0.22883558679E+02  0.51216127823E+01  0.28581567197E+02  0.00000000000E+00 0. -1.
         -5    1    5    5    0  502 -0.36596437754E+02 -0.54260005990E+02 -0.71189111200E+02  0.96816460686E+02  0.47000000000E+01 0.  1.
         13    1    6    6    0    0  0.21438522261E+02 -0.13759984112E+02 -0.14080155285E+02  0.29106668864E+02  0.00000000000E+00 0. -1.
        -14    1    6    6    0    0 -0.13291335531E+02  0.22151711533E+02  0.51007882692E+02  0.57176586298E+02  0.00000000000E+00 0.  1.
</event>
<event>
12    1  0.1623092E-001  0.2133841E+03  0.7818608E-02  0.1140607E+00
         21   -1    0    0  503  502  0.00000000000E+00  0.00000000000E+00  0.25511435553E+03  0.25511435553E+03  0.00000000000E+00 0.  1.
         21   -1    0    0  501  503 -0.00000000000E+00 -0.00000000000E+00 -0.18460280048E+03  0.18460280048E+03  0.00000000000E+00 0.  1.
          6    2    1    2  501    0 -0.50343351237E+02  0.10221159492E+03 -0.24183761418E+02  0.20626488268E+03  0.17023126728E+03 0.  0.
         24    2    3    3    0    0 -0.63914352114E+02  0.29898656630E+02  0.40779064883E+02  0.10800201121E+03  0.70869797639E+02 0.  0.
         -6    2    1    2    0  502  0.50343351237E+02 -0.10221159492E+03  0.94695316468E+02  0.23345227334E+03  0.18041922795E+03 0.  0.
        -24    2    5    5    0    0  0.97025322892E+01  0.15959515314E+02  0.44520867461E+01  0.79238078239E+02  0.76876567982E+02 0.  0.
          5    1    3    3  501    0  0.13571000876E+02  0.72312938291E+02 -0.64962826301E+02  0.98262871473E+02  0.47000000000E+01 0. -1.
        -11    1    4    4    0    0  0.11896698297E+02  0.17645474529E+02  0.50520078624E+00  0.21287306771E+02  0.00000000000E+00 0.  1.
         12    1    4    4    0    0 -0.75811050411E+02  0.12253182100E+02  0.40273864097E+02  0.86714704435E+02  0.00000000000E+00 0. -1.
         -5    1    5    5    0  502  0.40640818948E+02 -0.11817111023E+03  0.90243229721E+02  0.15421419510E+03  0.47000000000E+01 0.  1.
         11    1    6    6    0    0  0.13045718892E+01  0.83956490503E+01  0.40540501261E+02  0.41421263541E+02  0.00000000000E+00 0. -1.
        -12    1    6    6    0    0  0.83979604000E+01  0.75638662640E+01 -0.36088414515E+02  0.37816814699E+02  0.00000000000E+00 0.  1.
</event>
<event>
12    1  0.1623092E-001  0.1998110E+03  0.7818608E-02  0.1150159E+00
         21   -1    0    0  501  502  0.00000000000E+00  0.00000000000E+00  0.62712869613E+02  0.62712869613E+02  0.00000000000E+00 0.  1.
         21   -1    0    0  502  503 -0.00000000000E+00 -0.00000000000E+00 -0.73409951432E+03  0.73409951432E+03  0.00000000000E+00 0. -1.
         -6    2    1    2    0  503  0.13409961449E+01  0.10049169827E+03 -0.48464838339E+03  0.52422180519E+03  0.17269645575E+03 0.  0.
        -24    2    3    3    0    0  0.46044816634E+02  0.95322877841E+02 -0.22293464737E+03  0.25862564955E+03  0.77335589672E+02 0.  0.
          6    2    1    2  501    0 -0.13409961449E+01 -0.10049169827E+03 -0.18673826132E+03  0.27259057874E+03  0.17127190571E+03 0.  0.
         24    2    5    5    0    0  0.40264455134E+02 -0.87417825690E+02 -0.19120048185E+03  0.22850043094E+03  0.79948233792E+02 0.  0.
          5    1    5    5  501    0 -0.41605451278E+02 -0.13073872584E+02  0.44622205313E+01  0.44090147794E+02  0.47000000000E+01 0. -1.
        -11    1    6    6    0    0  0.32422234159E+02 -0.73437667117E+02 -0.19597137683E+03  0.21177599665E+03  0.00000000000E+00 0.  1.
         12    1    6    6    0    0  0.78422209741E+01 -0.13980158573E+02  0.47708949824E+01  0.16724434294E+02  0.00000000000E+00 0. -1.
         -5    1    3    3    0  503 -0.44703820489E+02  0.51688204328E+01 -0.26171373602E+03  0.26559615564E+03  0.47000000000E+01 0.  1.
         11    1    4    4    0    0  0.31726363277E+02  0.37706378707E+02 -0.17651193399E+03  0.18326155070E+03  0.00000000000E+00 0. -1.
        -12    1    4    4    0    0  0.14318453357E+02  0.57616499134E+02 -0.46422713375E+02  0.75364098854E+02  0.00000000000E+00 0.  1.
</event>
<event>
12    1  0.1623092E-001  0.1788685E+03  0.7818608E-02  0.1168961E+00
         21   -1    0    0  503  502  0.00000000000E+00  0.00000000000E+00  0.17195139224E+03  0.17195139224E+03  0.00000000000E+00 0. -1.
         21   -1    0    0  501  503 -0.00000000000E+00 -0.00000000000E+00 -0.19623186232E+03  0.19623186232E+03  0.00000000000E+00 0. -1.
          6    2    1    2  501    0 -0.24536073087E+02 -0.44100808584E+02 -0.54544567557E+02  0.18677256026E+03  0.17135337527E+03 0.  0.
         24    2    3    3    0    0 -0.66493927163E+02 -0.65207380911E+02 -0.10589933488E+02  0.12227412020E+03  0.78519863127E+02 0.  0.
         -6    2    1    2    0  502  0.24536073087E+02  0.44100808584E+02  0.30264097472E+02  0.18141069429E+03  0.17160135258E+03 0.  0.
        -24    2    5    5    0    0  0.20102008738E+02 -0.40413254227E+02  0.30642203695E+02  0.96649142253E+02  0.79779635111E+02 0.  0.
          5    1    3    3  501    0  0.41957854076E+02  0.21106572327E+02 -0.43954634069E+02  0.64498440060E+02  0.47000000000E+01 0. -1.
        -13    1    4    4    0    0  0.72505623401E+01  0.98270514630E+01  0.91140023406E+01  0.15238327775E+02  0.00000000000E+00 0.  1.
         14    1    4    4    0    0 -0.73744489503E+02 -0.75034432374E+02 -0.19703935829E+02  0.10703579243E+03  0.00000000000E+00 0. -1.
         -5    1    5    5    0  502  0.44340643483E+01  0.84514062812E+02 -0.37810622331E+00  0.84761552038E+02  0.47000000000E+01 0.  1.
         11    1    6    6    0    0 -0.10609432632E+01 -0.25202604013E+02  0.55293443190E+02  0.60775502544E+02  0.00000000000E+00 0. -1.
        -12    1    6    6    0    0  0.21162952002E+02 -0.15210650214E+02 -0.24651239495E+02  0.35873639709E+02  0.00000000000E+00 0.  1.
</event>
<event>
12    1  0.1623092E-001  0.1857411E+03  0.7818608E-02  0.1162429E+00
         21   -1    0    0  503  502  0.00000000000E+00  0.00000000000E+00  0.30144444643E+03  0.30144444643E+03  0.00000000000E+00 0. -1.
         21   -1    0    0  501  503 -0.00000000000E+00 -0.00000000000E+00 -0.12958566557E+03  0.12958566557E+03  0.00000000000E+00 0. -1.
          6    2    1    2  501    0  0.18319816651E+02  0.69510957689E+02  0.11887369490E+02  0.18612112677E+03  0.17126697100E+03 0.  0.
         24    2    3    3    0    0 -0.28427080876E+02  0.81914686524E+02 -0.30111338244E+02  0.12189413580E+03  0.80208309147E+02 0.  0.
         -6    2    1    2    0  502 -0.18319816651E+02 -0.69510957689E+02  0.15997141137E+03  0.24490898523E+03  0.17094493170E+03 0.  0.
        -24    2    5    5    0    0 -0.44676327994E+02 -0.80149747550E+02  0.59091613791E+02  0.13999629249E+03  0.87676603353E+02 0.  0.
          5    1    3    3  501    0  0.46746897527E+02 -0.12403728836E+02  0.41998707734E+02  0.64226990968E+02  0.47000000000E+01 0. -1.
        -13    1    4    4    0    0 -0.44065256255E+02  0.11980267517E+02 -0.18629159101E+02  0.49318548107E+02  0.00000000000E+00 0.  1.
         14    1    4    4    0    0  0.15638175379E+02  0.69934419008E+02 -0.11482179143E+02  0.72575587693E+02  0.00000000000E+00 0. -1.
         -5    1    5    5    0  502  0.26356511343E+02  0.10638789862E+02  0.10087979757E+03  0.10491269274E+03  0.47000000000E+01 0.  1.
         13    1    6    6    0    0  0.28976171984E+01 -0.34088659287E+02  0.65062613283E+02  0.73509023424E+02  0.00000000000E+00 0. -1.
        -14    1    6    6    0    0 -0.47573945193E+02 -0.46061088263E+02 -0.59709994925E+01  0.66487269068E+02  0.00000000000E+00 0.  1.
</event>
<event>
12    1  0.1623092E-001  0.3116916E+03  0.7818608E-02  0.1079916E+00
         21   -1    0    0  501  502  0.00000000000E+00  0.00000000000E+00  0.28849382858E+03  0.28849382858E+03  0.00000000000E+00 0. -1.
         21   -1    0    0  502  503 -0.00000000000E+00 -0.00000000000E+00 -0.47795760991E+03  0.47795760991E+03  0.00000000000E+00 0. -1.
         -6    2    1    2    0  503 -0.53469383895E+02  0.25426465295E+03 -0.30585915888E+03  0.43669380487E+03  0.17216900241E+03 0.  0.
        -24    2    3    3    0    0 -0.10521733960E+03  0.20129455804E+03 -0.22315537632E+03  0.32558265546E+03  0.67937882717E+02 0.  0.
          6    2    1    2  501    0  0.53469383895E+02 -0.25426465295E+03  0.11639537754E+03  0.32975763362E+03  0.16638126177E+03 0.  0.
         24    2    5    5    0    0  0.92176792037E+01 -0.15564797940E+03  0.76957871652E+01  0.17639155974E+03  0.82118804829E+02 0.  0.
          5    1    5    5  501    0  0.44251704692E+02 -0.98616673548E+02  0.10869959038E+03  0.15336607388E+03  0.47000000000E+01 0. -1.
        -13    1    6    6    0    0 -0.32721220077E+02 -0.77932445166E+02  0.20981370899E+02  0.87088243625E+02  0.00000000000E+00 0.  1.
         14    1    6    6    0    0  0.41938899281E+02 -0.77715534233E+02 -0.13285583733E+02  0.89303316115E+02  0.00000000000E+00 0. -1.
         -5    1    3    3    0  503  0.51747955704E+02  0.52970094909E+02 -0.82703782558E+02  0.11111114941E+03  0.47000000000E+01 0.  1.
         13    1    4    4    0    0 -0.16849273227E+02  0.31550563754E+02 -0.76610257153E+02  0.84548610766E+02  0.00000000000E+00 0. -1.
        -14    1    4    4    0    0 -0.88368066372E+02  0.16974399428E+03 -0.14654511917E+03  0.24103404469E+03  0.00000000000E+00 0.  1.
</event>
<event>
12    1  0.1623092E-001  0.1910797E+03  0.7818608E-02  0.1159285E+00
         21   -1    0    0  501  502  0.00000000000E+00  0.00000000000E+00  0.58768472640E+02  0.58768472640E+02  0.00000000000E+00 0.  1.
         21   -1    0    0  502  503 -0.00000000000E+00 -0.00000000000E+00 -0.87747068053E+03  0.87747068053E+03  0.00000000000E+00 0.  1.
         -6    2    1    2    0  503 -0.61341469220E+02 -0.21461209176E+02 -0.66859079586E+03  0.69324762103E+03  0.17133374568E+03 0.  0.
        -24    2    3    3    0    0 -0.12474843006E+02 -0.43700664113E+02 -0.59356289027E+03  0.60086895937E+03  0.81616370113E+02 0.  0.
          6    2    1    2  501    0  0.61341469220E+02  0.21461209176E+02 -0.15011141203E+03  0.24299153214E+03  0.17968886812E+03 0.  0.
         24    2    5    5    0    0 -0.23673051677E+02  0.47280220316E+02 -0.10117419988E+03  0.14144828602E+03  0.83519855652E+02 0.  0.
          5    1    5    5  501    0  0.85014520897E+02 -0.25819011140E+02 -0.48937212147E+02  0.10154324612E+03  0.47000000000E+01 0. -1.
        -11    1    6    6    0    0 -0.88106320328E+01  0.24542368641E+02  0.92989678128E+01  0.27684398092E+02  0.00000000000E+00 0.  1.
         12    1    6    6    0    0 -0.14862419644E+02  0.22737851676E+02 -0.11047316770E+03  0.11376388793E+03  0.00000000000E+00 0. -1.
         -5    1    3    3    0  503 -0.48866626214E+02  0.22239454937E+02 -0.75027905586E+02  0.92378661660E+02  0.47000000000E+01 0.  1.
         11    1    4    4    0    0 -0.12212877058E+02  0.18687478729E+02 -0.66964027971E+02  0.70587231631E+02  0.00000000000E+00 0. -1.
        -12    1    4    4    0    0 -0.26196594817E+00 -0.62388142842E+02 -0.52659886230E+03  0.53028172774E+03  0.00000000000E+00 0.  1.
</event>
<event>
12    1  0.1623092E-001  0.1762075E+03  0.7818608E-02  0.1171885E+00
         21   -1    0    0  503  502  0.00000000000E+00  0.00000000000E+00  0.80282711643E+02  0.80282711643E+02  0.00000000000E+00 0. -1.
         21   -1    0    0  501  503 -0.00000000000E+00 -0.00000000000E+00 -0.13782606232E+04  0.13782606232E+04  0.00000000000E+00 0. -1.
          6    2    1    2  501    0 -0.36407821088E+02 -0.46519810151E+01 -0.12677770387E+04  0.12797664018E+04  0.17086911055E+03 0.  0.
         24    2    3    3    0    0 -0.84441183038E+02 -0.43186036625E+01 -0.10603597618E+04  0.10668078806E+04  0.81038669109E+02 0.  0.
         -6    2    1    2    0  502  0.36407821088E+02  0.46519810151E+01 -0.30200872855E+02  0.17877693305E+03  0.17234247504E+03 0.  0.
        -24    2    5    5    0    0  0.48766846938E+02 -0.58283187201E+02 -0.77876576021E+01  0.11067389981E+03  0.80080766836E+02 0.  0.
          5    1    3    3  501    0  0.48033361950E+02 -0.33337735254E+00 -0.20741727686E+03  0.21295852118E+03  0.47000000000E+01 0. -1.
        -13    1    4    4    0    0 -0.68638570336E+02  0.26746200788E+02 -0.50371939225E+03  0.50907743883E+03  0.00000000000E+00 0.  1.
         14    1    4    4    0    0 -0.15802612703E+02 -0.31064804451E+02 -0.55664036958E+03  0.55773044178E+03  0.00000000000E+00 0. -1.
         -5    1    5    5    0  502 -0.12359025849E+02  0.62935168216E+02 -0.22413215252E+02  0.68103033239E+02  0.47000000000E+01 0.  1.
         11    1    6    6    0    0  0.62604662979E+02 -0.14350068388E+02 -0.20930900654E+01  0.64262347572E+02  0.00000000000E+00 0. -1.
        -12    1    6    6    0    0 -0.13837816041E+02 -0.43933118814E+02 -0.56945675367E+01  0.46411552235E+02  0.00000000000E+00 0.  1.
</event>
<event>
12    1  0.1623092E-001  0.1953114E+03  0.7818608E-02  0.1154091E+00
         21   -1    0    0  503  502  0.00000000000E+00  0.00000000000E+00  0.39786337156E+03  0.39786337156E+03  0.00000000000E+00 0. -1.
         21   -1    0    0  501  503 -0.00000000000E+00 -0.00000000000E+00 -0.97418629980E+02  0.97418629980E+02  0.00000000000E+00 0. -1.
          6    2    1    2  501    0 -0.12799792969E+01 -0.93382141355E+02  0.11167291582E+03  0.22365479488E+03  0.16979035448E+03 0.  0.
         24    2    3    3    0    0 -0.44081260701E+02 -0.49844217760E+02  0.12283750060E+03  0.16141141424E+03  0.80851651207E+02 0.  0.
         -6    2    1    2    0  502  0.12799792969E+01  0.93382141355E+02  0.18877182576E+03  0.27162720666E+03  0.17153621928E+03 0.  0.
        -24    2    5    5    0    0 -0.28345968191E+02  0.11789835030E+03  0.18054792091E+03  0.23202337002E+03  0.80831785640E+02 0.  0.
          5    1    3    3  501    0  0.42801281404E+02 -0.43537923594E+02 -0.11164584780E+02  0.62243380645E+02  0.47000000000E+01 0. -1.
        -13    1    4    4    0    0 -0.18370835192E+02  0.78668154026E+01 -0.33765548149E+01  0.20267597110E+02  0.00000000000E+00 0.  1.
         14    1    4    4    0    0 -0.25710425510E+02 -0.57711033163E+02  0.12621405541E+03  0.14114381713E+03  0.00000000000E+00 0. -1.
         -5    1    5    5    0  502  0.29625947488E+02 -0.24516208950E+02  0.82239048439E+01  0.39603836641E+02  0.47000000000E+01 0.  1.
         13    1    6    6    0    0 -0.27433130504E+00  0.58215222149E+02  0.25549336242E+02  0.63575592250E+02  0.00000000000E+00 0. -1.
        -14    1    6    6    0    0 -0.28071636886E+02  0.59683128156E+02  0.15499858467E+03  0.16844777777E+03  0.00000000000E+00 0.  1.
</event>
<event>
12    1  0.1623092E-001  0.1942516E+03  0.7818608E-02  0.1155073E+00
         21   -1    0    0  503  502  0.00000000000E+00  0.00000000000E+00  0.36129874846E+02  0.36129874846E+02  0.00000000000E+00 0.  1.
         21   -1    0    0  501  503 -0.00000000000E+00 -0.00000000000E+00 -0.12140878637E+04  0.12140878637E+04  0.00000000000E+00 0. -1.
          6    2    1    2  501    0  0.21951876544E+02  0.86960379284E+02 -0.82685017654E+03  0.84895676786E+03  0.17030087142E+03 0.  0.
         24    2    3    3    0    0  0.17436140444E+01  0.85424496577E+02 -0.30369022421E+03  0.32538331692E+03  0.79662825989E+02 0.  0.
         -6    2    1    2    0  502 -0.21951876544E+02 -0.86960379284E+02 -0.35110781231E+03  0.40126097068E+03  0.17230693044E+03 0.  0.
        -24    2    5    5    0    0 -0.16446682654E+02 -0.12218725600E+03 -0.21506280390E+03  0.26054290390E+03  0.80189626866E+02 0.  0.
          5    1    3    3  501    0  0.20208262500E+02  0.15358827070E+01 -0.52315995233E+03  0.52357345094E+03  0.47000000000E+01 0. -1.
        -13    1    4    4    0    0 -0.21168055863E+02  0.34598846094E+02 -0.22685547303E+03  0.23045297217E+03  0.00000000000E+00 0.  1.
         14    1    4    4    0    0  0.22911669908E+02  0.50825650483E+02 -0.76834751181E+02  0.94930344748E+02  0.00000000000E+00 0. -1.
         -5    1    5    5    0  502 -0.55051938903E+01  0.35226876711E+02 -0.13604500842E+03  0.14071806678E+03  0.47000000000E+01 0.  1.
         11    1    6    6    0    0 -0.40979235124E+02 -0.29412745482E+02 -0.62607073611E+02  0.80399334415E+02  0.00000000000E+00 0. -1.
        -12    1    6    6    0    0  0.24532552470E+02 -0.92774510513E+02 -0.15245573028E+03  0.18014356949E+03  0.00000000000E+00 0.  1.
</event>
<event>
12    1  0.1623092E-001  0.1779760E+03  0.7818608E-02  0.1170645E+00
         21   -1    0    0  501  502  0.00000000000E+00  0.00000000000E+00  0.12792990945E+03  0.12792990945E+03  0.00000000000E+00 0. -1.
         21   -1    0    0  502  503 -0.00000000000E+00 -0.00000000000E+00 -0.25077692258E+03  0.25077692258E+03  0.00000000000E+00 0. -1.
         -6    2    1    2    0  503 -0.54680565191E+02 -0.15919461827E+02 -0.94695928669E+02  0.19851817197E+03  0.16492044210E+03 0.  0.
        -24    2    3    3    0    0 -0.52080893916E+02  0.37667422154E+02 -0.10109978952E+03  0.14428338738E+03  0.80406928990E+02 0.  0.
          6    2    1    2  501    0  0.54680565191E+02  0.15919461827E+02 -0.28151084454E+02  0.18018866006E+03  0.16861813717E+03 0.  0.
         24    2    5    5    0    0  0.92601585538E+02 -0.39630234193E+00  0.13086503861E+02  0.12164947118E+03  0.77795414745E+02 0.  0.
          5    1    5    5  501    0 -0.37921020347E+02  0.16315764169E+02 -0.41237588315E+02  0.58539188879E+02  0.47000000000E+01 0. -1.
        -13    1    6    6    0    0  0.61380010859E+02  0.26522618366E+02 -0.18884627918E+02  0.69480818861E+02  0.00000000000E+00 0.  1.
         14    1    6    6    0    0  0.31221574679E+02 -0.26918920708E+02  0.31971131779E+02  0.52168652319E+02  0.00000000000E+00 0. -1.
         -5    1    3    3    0  503 -0.25996712752E+01 -0.53586883981E+02  0.64038608548E+01  0.54234784589E+02  0.47000000000E+01 0.  1.
         11    1    4    4    0    0  0.10380325508E+02  0.79832157756E+01 -0.64934620631E+02  0.66241888924E+02  0.00000000000E+00 0. -1.
        -12    1    4    4    0    0 -0.62461219424E+02  0.29684206379E+02 -0.36165168893E+02  0.78041498457E+02  0.00000000000E+00 0.  1.
</event>
<event>
12    1  0.1623092E-001  0.2215742E+03  0.7818608E-02  0.1132854E+00
         21   -1    0    0  501  502  0.00000000000E+00  0.00000000000E+00  0.33520506885E+03  0.33520506885E+03  0.00000000000E+00 0.  1.
         21   -1    0    0  502  503 -0.00000000000E+00 -0.00000000000E+00 -0.26450695200E+03  0.26450695200E+03  0.00000000000E+00 0.  1.
         -6    2    1    2    0  503  0.13625746271E+03 -0.26254474105E+02  0.23605253239E+03  0.32323923853E+03  0.17177722120E+03 0.  0.
        -24    2    3    3    0    0  0.13440441224E+03 -0.57830673262E+01  0.96665897786E+02  0.18226677243E+03  0.76019014997E+02 0.  0.
          6    2    1    2  501    0 -0.13625746271E+03  0.26254474105E+02 -0.16535441553E+03  0.27647278232E+03  0.17274178149E+03 0.  0.
         24    2    5    5    0    0 -0.66406194849E+02  0.81115949272E+02 -0.86344983802E+02  0.15750404112E+03  0.79765197936E+02 0.  0.
          5    1    5    5  501    0 -0.69851267860E+02 -0.54861475167E+02 -0.79009431732E+02  0.11896874120E+03  0.47000000000E+01 0. -1.
        -11    1    6    6    0    0  0.20479294474E+01  0.32218224357E+02 -0.62042977175E+02  0.69939538263E+02  0.00000000000E+00 0.  1.
         12    1    6    6    0    0 -0.68454124297E+02  0.48897724915E+02 -0.24302006627E+02  0.87564502860E+02  0.00000000000E+00 0. -1.
         -5    1    3    3    0  503  0.18530504711E+01 -0.20471406778E+02  0.13938663460E+03  0.14097246609E+03  0.47000000000E+01 0.  1.
         11    1    4    4    0    0  0.20308055843E+02  0.28531266369E+02  0.27266983317E+02  0.44383991167E+02  0.00000000000E+00 0. -1.
        -12    1    4    4    0    0  0.11409635640E+03 -0.34314333695E+02  0.69398914469E+02  0.13788278126E+03  0.00000000000E+00 0.  1.
</event>
<event>
12    1  0.1623092E-001  0.1806116E+03  0.7818608E-02  0.1170155E+00
         21   -1    0    0  503  502  0.00000000000E+00  0.00000000000E+00  0.22907712028E+03  0.22907712028E+03  0.00000000000E+00 0.  1.
         21   -1    0    0  501  503 -0.00000000000E+00 -0.00000000000E+00 -0.22761121639E+03  0.22761121639E+03  0.00000000000E+00 0.  1.
          6    2    1    2  501    0  0.27874345094E+02  0.46200199976E+02  0.14768480379E+03  0.22430826249E+03  0.15997486603E+03 0.  0.
         24    2    3    3    0    0 -0.24824468898E+02  0.34726764907E+02  0.32056127777E+02  0.96633341601E+02  0.80549394312E+02 0.  0.
         -6    2    1    2    0  502 -0.27874345094E+02 -0.46200199976E+02 -0.14621889990E+03  0.23238007418E+03  0.17236326347E+03 0.  0.
        -24    2    5    5    0    0 -0.10582813303E+02 -0.97023713884E+02 -0.92070161699E+02  0.15598503189E+03  0.79553871712E+02 0.  0.
          5    1    3    3  501    0  0.52698813992E+02  0.11473435069E+02  0.11562867601E+03  0.12767492089E+03  0.47000000000E+01 0. -1.
        -13    1    4    4    0    0 -0.29190048863E+02 -0.15733619499E+02 -0.54555581155E+01  0.33606083519E+02  0.00000000000E+00 0.  1.
         14    1    4    4    0    0  0.43655799648E+01  0.50460384406E+02  0.37511685892E+02  0.63027258082E+02  0.00000000000E+00 0. -1.
         -5    1    5    5    0  502 -0.17291531791E+02  0.50823513908E+02 -0.54148738203E+02  0.76395042291E+02  0.47000000000E+01 0.  1.
         11    1    6    6    0    0 -0.17280695248E+01 -0.43243006900E+02 -0.91788617368E+02  0.10147952576E+03  0.00000000000E+00 0. -1.
        -12    1    6    6    0    0 -0.88547437783E+01 -0.53780706984E+02 -0.28154433136E+00  0.54505506128E+02  0.00000000000E+00 0.  1.
</event>
<event>
12    1  0.1623092E-001  0.2678277E+03  0.7818608E-02  0.1102721E+00
         21   -1    0    0  501  502  0.00000000000E+00  0.00000000000E+00  0.23410384266E+04  0.23410384266E+04  0.00000000000E+00 0.  1.
         21   -1    0    0  502  503 -0.00000000000E+00 -0.00000000000E+00 -0.42441148075E+02  0.42441148075E+02  0.00000000000E+00 0.  1.
         -6    2    1    2    0  503  0.20065062043E+03  0.35384079629E+02  0.51893585411E+03  0.58397440316E+03  0.17383606732E+03 0.  0.
        -24    2    3    3    0    0  0.88038972064E+02 -0.65974257004E+01  0.12617835627E+03  0.17321367933E+03  0.79294479556E+02 0.  0.
          6    2    1    2  501    0 -0.20065062043E+03 -0.35384079629E+02  0.17796614244E+04  0.17995051715E+04  0.17178874284E+03 0.  0.
         24    2    5    5    0    0 -0.21202571854E+03 -0.17789194347E+02  0.14499115771E+04  0.14690569537E+04  0.10302131363E+03 0.  0.
          5    1    5    5  501    0  0.11375098115E+02 -0.17594885283E+02  0.32974984725E+03  0.33044821774E+03  0.47000000000E+01 0. -1.
        -11    1    6    6    0    0 -0.13050955417E+02 -0.96939140291E+01  0.22156608940E+02  0.27481170393E+02  0.00000000000E+00 0.  1.
         12    1    6    6    0    0 -0.19897476312E+03 -0.80952803176E+01  0.14277549682E+04  0.14415757833E+04  0.00000000000E+00 0. -1.
         -5    1    3    3    0  503  0.11261164836E+03  0.41981505330E+02  0.39275749784E+03  0.41076072383E+03  0.47000000000E+01 0.  1.
         11    1    4    4    0    0 -0.74364667294E+01  0.77828910019E+01 -0.36960150446E+01  0.11381342494E+02  0.00000000000E+00 0. -1.
        -12    1    4    4    0    0  0.95475438794E+02 -0.14380316702E+02  0.12987437131E+03  0.16183233684E+03  0.00000000000E+00 0.  1.
</event>
<event>
12    1  0.1623092E-001  0.2108318E+03  0.7818608E-02  0.1141100E+00
         21   -1    0    0  501  502  0.00000000000E+00  0.00000000000E+00  0.88880041791E+02  0.88880041791E+02  0.00000000000E+00 0.  1.
         21   -1    0    0  502  503 -0.00000000000E+00 -0.00000000000E+00 -0.78729326231E+03  0.78729326231E+03  0.00000000000E+00 0. -1.
         -6    2    1    2    0  503  0.11697029592E+03 -0.34939181913E+02 -0.61535402099E+03  0.65046952863E+03  0.17189310622E+03 0.  0.
        -24    2    3    3    0    0  0.18481763363E+01 -0.51678119882E+02 -0.25283843086E+03  0.26971640974E+03  0.78394041410E+02 0.  0.
          6    2    1    2  501    0 -0.11697029592E+03  0.34939181913E+02 -0.83059199526E+02  0.22570377547E+03  0.17070608388E+03 0.  0.
         24    2    5    5    0    0 -0.11343885440E+03  0.75598862265E+02 -0.33768684159E+02  0.16153738559E+03  0.79815043997E+02 0.  0.
          5    1    5    5  501    0 -0.35314415229E+01 -0.40659680351E+02 -0.49290515368E+02  0.64166389884E+02  0.47000000000E+01 0. -1.
        -11    1    6    6    0    0 -0.46224000530E+02  0.77468177323E+02 -0.12872941306E+02  0.91124581429E+02  0.00000000000E+00 0.  1.
         12    1    6    6    0    0 -0.67214853872E+02 -0.18693150586E+01 -0.20895742853E+02  0.70412804156E+02  0.00000000000E+00 0. -1.
         -5    1    3    3    0  503  0.11512211959E+03  0.16738937968E+02 -0.36251559013E+03  0.38075311890E+03  0.47000000000E+01 0.  1.
         11    1    4    4    0    0  0.25987271121E+02 -0.21812924796E+02 -0.20770214924E+03  0.21045504211E+03  0.00000000000E+00 0. -1.
        -12    1    4    4    0    0 -0.24139094784E+02 -0.29865195086E+02 -0.45136281621E+02  0.59261367628E+02  0.00000000000E+00 0.  1.
</event>
<event>
12    1  0.1623092E-001  0.2022101E+03  0.7818608E-02  0.1147938E+00
         21   -1    0    0  503  502  0.00000000000E+00  0.00000000000E+00  0.27996827577E+03  0.27996827577E+03  0.00000000000E+00 0. -1.
         21   -1    0    0  501  503 -0.00000000000E+00 -0.00000000000E+00 -0.24510842257E+03  0.24510842257E+03  0.00000000000E+00 0. -1.
          6    2    1    2  501    0 -0.35627752746E+02 -0.99940640697E+02 -0.14962635395E+03  0.25135403004E+03  0.17185265256E+03 0.  0.
         24    2    3    3    0    0 -0.83348385600E+02 -0.33927371340E+02 -0.92032098401E+02  0.15148311935E+03  0.79869946802E+02 0.  0.
         -6    2    1    2    0  502  0.35627752746E+02  0.99940640697E+02  0.18448620715E+03  0.27372266830E+03  0.17213793912E+03 0.  0.
        -24    2    5    5    0    0  0.85769830377E+02  0.89812296594E+02  0.15696332072E+03  0.21544393650E+03  0.79723856520E+02 0.  0.
          5    1    3    3  501    0  0.47720632855E+02 -0.66013269357E+02 -0.57594255547E+02  0.99870910696E+02  0.47000000000E+01 0. -1.
        -13    1    4    4    0    0  0.13928887158E+01 -0.12757039492E+02  0.10649874180E+02  0.16676390965E+02  0.00000000000E+00 0.  1.
         14    1    4    4    0    0 -0.84741274316E+02 -0.21170331848E+02 -0.10268197258E+03  0.13480672838E+03  0.00000000000E+00 0. -1.
         -5    1    5    5    0  502 -0.50142077631E+02  0.10128344104E+02  0.27522886429E+02  0.58278731805E+02  0.47000000000E+01 0.  1.
         11    1    6    6    0    0 -0.95128185825E+00  0.50406418477E+02  0.71385736147E+02  0.87393565473E+02  0.00000000000E+00 0. -1.
        -12    1    6    6    0    0  0.86721112235E+02  0.39405878117E+02  0.85577584578E+02  0.12805037102E+03  0.00000000000E+00 0.  1.
</event>
<event>
12    1  0.1623092E-001  0.2260209E+03  0.7818608E-02  0.1129602E+00
         21   -1    0    0  503  502  0.00000000000E+00  0.00000000000E+00  0.15685275076E+03  0.15685275076E+03  0.00000000000E+00 0.  1.
         21   -1    0    0  501  503 -0.00000000000E+00 -0.00000000000E+00 -0.49501003966E+03  0.49501003966E+03  0.00000000000E+00 0.  1.
          6    2    1    2  501    0  0.90293661745E+02  0.11579212951E+03 -0.36010464654E+03  0.42477885014E+03  0.17088286180E+03 0.  0.
         24    2    3    3    0    0  0.91450010034E+02  0.13118933244E+03 -0.21953012550E+03  0.28328080433E+03  0.80503371501E+02 0.  0.
         -6    2    1    2    0  502 -0.90293661745E+02 -0.11579212951E+03  0.21947357646E+02  0.22708394029E+03  0.17182743326E+03 0.  0.
        -24    2    5    5    0    0 -0.16067551770E+02 -0.26780393590E+02 -0.41286732417E+02  0.94973211430E+02  0.79623871514E+02 0.  0.
          5    1    3    3  501    0 -0.11563482894E+01 -0.15397202929E+02 -0.14057452104E+03  0.14149804580E+03  0.47000000000E+01 0. -1.
        -11    1    4    4    0    0  0.29567950345E+02  0.48787428506E+01 -0.78824752156E+02  0.84329160863E+02  0.00000000000E+00 0.  1.
         12    1    4    4    0    0  0.61882059689E+02  0.12631058958E+03 -0.14070537334E+03  0.19895164347E+03  0.00000000000E+00 0. -1.
         -5    1    5    5    0  502 -0.74226109974E+02 -0.89011735917E+02  0.63234090063E+02  0.13211072886E+03  0.47000000000E+01 0.  1.
         13    1    6    6    0    0 -0.42491803583E+02 -0.33514796082E+02 -0.12948653159E+02  0.55645867293E+02  0.00000000000E+00 0. -1.
        -14    1    6    6    0    0  0.26424251813E+02  0.67344024917E+01 -0.28338079259E+02  0.39327344137E+02  0.00000000000E+00 0.  1.
</event>
<event>
12    1  0.1623092E-001  0.2015898E+03  0.7818608E-02  0.1148612E+00
         21   -1    0    0  501  502  0.00000000000E+00  0.00000000000E+00  0.52980532487E+03  0.52980532487E+03  0.00000000000E+00 0. -1.
         21   -1    0    0  502  503 -0.00000000000E+00 -0.00000000000E+00 -0.12535301536E+03  0.12535301536E+03  0.00000000000E+00 0. -1.
         -6    2    1    2    0  503  0.86296256465E+02  0.59874178531E+02 -0.29370264767E+01  0.20062064895E+03  0.17090364983E+03 0.  0.
        -24    2    3    3    0    0  0.47133385490E+02 -0.23933223092E+02 -0.39380698146E+02  0.10108350897E+03  0.76633420935E+02 0.  0.
          6    2    1    2  501    0 -0.86296256465E+02 -0.59874178531E+02  0.40738933598E+03  0.45453769128E+03  0.17206533814E+03 0.  0.
         24    2    5    5    0    0 -0.10531985475E+03 -0.46397654132E+01  0.23782470442E+03  0.27513035598E+03  0.89567424436E+02 0.  0.
          5    1    5    5  501    0  0.19023598288E+02 -0.55234413118E+02  0.16956463156E+03  0.17940733531E+03  0.47000000000E+01 0. -1.
        -11    1    6    6    0    0 -0.47397385337E+02  0.41585318451E+01  0.23738784519E+02  0.53172694255E+02  0.00000000000E+00 0.  1.
         12    1    6    6    0    0 -0.57922469415E+02 -0.87982972583E+01  0.21408591990E+03  0.22195766172E+03  0.00000000000E+00 0. -1.
         -5    1    3    3    0  503  0.39162870975E+02  0.83807401623E+02  0.36443671669E+02  0.99537139976E+02  0.47000000000E+01 0.  1.
         13    1    4    4    0    0  0.49338095800E+02  0.12977507445E+02 -0.38813468117E+02  0.64102641942E+02  0.00000000000E+00 0. -1.
        -14    1    4    4    0    0 -0.22047103102E+01 -0.36910730537E+02 -0.56723002839E+00  0.36980867029E+02  0.00000000000E+00 0.  1.
</event>
<event>
12    1  0.1623092E-001  0.2359577E+03  0.7818608E-02  0.1123012E+00
         21   -1    0    0  501  502  0.00000000000E+00  0.00000000000E+00  0.41833454212E+03  0.41833454212E+03  0.00000000000E+00 0.  1.
         21   -1    0    0  502  503 -0.00000000000E+00 -0.00000000000E+00 -0.14661652028E+03  0.14661652028E+03  0.00000000000E+00 0. -1.
         -6    2    1    2    0  503 -0.14384910617E+03 -0.61861805312E+02  0.44290055886E+02  0.23723240639E+03  0.17262142766E+03 0.  0.
        -24    2    3    3    0    0 -0.15247570351E+03 -0.28249790091E+02 -0.86818220772E+01  0.17373204730E+03  0.77849594897E+02 0.  0.
          6    2    1    2  501    0  0.14384910617E+03  0.61861805312E+02  0.22742796595E+03  0.32771865601E+03  0.17651229278E+03 0.  0.
         24    2    5    5    0    0  0.14338941218E+03  0.55538484101E+02  0.24893710169E+03  0.30480733501E+03  0.85397799346E+02 0.  0.
          5    1    5    5  501    0  0.45969398972E+00  0.63233212114E+01 -0.21509135747E+02  0.22911321007E+02  0.47000000000E+01 0. -1.
        -11    1    6    6    0    0  0.74517317884E+02 -0.11320736447E+02  0.14439301166E+03  0.16288134195E+03  0.00000000000E+00 0.  1.
         12    1    6    6    0    0  0.68872094294E+02  0.66859220548E+02  0.10454409003E+03  0.14192599306E+03  0.00000000000E+00 0. -1.
         -5    1    3    3    0  503  0.86265973389E+01 -0.33612015221E+02  0.52971877963E+02  0.63500359084E+02  0.47000000000E+01 0.  1.
         13    1    4    4    0    0 -0.11319942308E+03 -0.30730974517E+01 -0.37029792985E+02  0.11914175960E+03  0.00000000000E+00 0. -1.
        -14    1    4    4    0    0 -0.39276280431E+02 -0.25176692639E+02  0.28347970907E+02  0.54590287701E+02  0.00000000000E+00 0.  1.
</event>
<event>
12    1  0.1623092E-001  0.2846381E+03  0.7818608E-02  0.1093330E+00
         21   -1    0    0  501  502  0.00000000000E+00  0.00000000000E+00  0.26104952493E+03  0.26104952493E+03  0.00000000000E+00 0. -1.
         21   -1    0    0  502  503 -0.00000000000E+00 -0.00000000000E+00 -0.46447349135E+03  0.46447349135E+03  0.00000000000E+00 0.  1.
         -6    2    1    2    0  503  0.19002612868E+03 -0.12142362647E+03 -0.31135255745E+03  0.42110980890E+03  0.17187038568E+03 0.  0.
        -24    2    3    3    0    0  0.10167525603E+03 -0.13417433733E+03 -0.26267592350E+03  0.31932591028E+03  0.68042528611E+02 0.  0.
          6    2    1    2  501    0 -0.19002612868E+03  0.12142362647E+03  0.10792859103E+03  0.30441320738E+03  0.17368129842E+03 0.  0.
         24    2    5    5    0    0 -0.16806650533E+03  0.11848176467E+03  0.28857775960E+02  0.22216259399E+03  0.78988405231E+02 0.  0.
          5    1    5    5  501    0 -0.21959623353E+02  0.29418617920E+01  0.79070815065E+02  0.82250613393E+02  0.47000000000E+01 0. -1.
        -13    1    6    6    0    0 -0.37002578990E+02  0.20995018393E+02 -0.25991433533E+02  0.49855152856E+02  0.00000000000E+00 0.  1.
         14    1    6    6    0    0 -0.13106392634E+03  0.97486746281E+02  0.54849209493E+02  0.17230744113E+03  0.00000000000E+00 0. -1.
         -5    1    3    3    0  503  0.88350872648E+02  0.12750710867E+02 -0.48676633943E+02  0.10178389861E+03  0.47000000000E+01 0.  1.
         11    1    4    4    0    0  0.32624988708E+02 -0.98575445218E+02 -0.15419640634E+03  0.18589792902E+03  0.00000000000E+00 0. -1.
        -12    1    4    4    0    0  0.69050267325E+02 -0.35598892115E+02 -0.10847951717E+03  0.13342798126E+03  0.00000000000E+00 0.  1.
</event>
<event>
12    1  0.1623092E-001  0.1949706E+03  0.7818608E-02  0.1154952E+00
         21   -1    0    0  501  502  0.00000000000E+00  0.00000000000E+00  0.65767860587E+03  0.65767860587E+03  0.00000000000E+00 0.  1.
         21   -1    0    0  502  503 -0.00000000000E+00 -0.00000000000E+00 -0.12439742572E+03  0.12439742572E+03  0.00000000000E+00 0. -1.
         -6    2    1    2    0  503 -0.52369841498E+02  0.67712946564E+02 -0.23320821357E+02  0.19231392660E+03  0.17062573729E+03 0.  0.
        -24    2    3    3    0    0 -0.40849628793E+02  0.60149834279E+02  0.36985614460E+02  0.13027464736E+03  0.10157191212E+03 0.  0.
          6    2    1    2  501    0  0.52369841498E+02 -0.67712946564E+02  0.55660200151E+03  0.58976210498E+03  0.17517393916E+03 0.  0.
         24    2    5    5    0    0 -0.32306468662E+02 -0.69828600162E+02  0.31519096490E+03  0.33387945202E+03  0.78806108947E+02 0.  0.
          5    1    5    5  501    0  0.84676310160E+02  0.21156535984E+01  0.24141103661E+03  0.25588265296E+03  0.47000000000E+01 0. -1.
        -11    1    6    6    0    0  0.23415098787E+02 -0.45386585281E+01  0.56791486730E+02  0.61596584624E+02  0.00000000000E+00 0.  1.
         12    1    6    6    0    0 -0.55721567448E+02 -0.65289941634E+02  0.25839947817E+03  0.27228286739E+03  0.00000000000E+00 0. -1.
         -5    1    3    3    0  503 -0.11520212705E+02  0.75631122854E+01 -0.60306435817E+02  0.62039279245E+02  0.47000000000E+01 0.  1.
         11    1    4    4    0    0  0.22381624102E+02  0.28576727947E+02 -0.18200272054E+02  0.40605620060E+02  0.00000000000E+00 0. -1.
        -12    1    4    4    0    0 -0.63231252895E+02  0.31573106331E+02  0.55185886514E+02  0.89669027297E+02  0.00000000000E+00 0.  1.
</event>
<event>
12    1  0.1623092E-001  0.2681306E+03  0.7818608E-02  0.1102477E+00
         21   -1    0    0  501  502  0.00000000000E+00  0.00000000000E+00  0.33515401241E+03  0.33515401241E+03  0.00000000000E+00 0.  1.
         21   -1    0    0  502  503 -0.00000000000E+00 -0.00000000000E+00 -0.31411002596E+03  0.31411002596E+03  0.00000000000E+00 0.  1.
         -6    2    1    2    0  503 -0.15557290829E+03 -0.13417923899E+03 -0.17291395140E+03  0.31833553011E+03  0.17097156832E+03 0.  0.
        -24    2    3    3    0    0 -0.37017755746E+02 -0.10048747008E+03 -0.46498858020E+02  0.14171920776E+03  0.80337688333E+02 0.  0.
          6    2    1    2  501    0  0.15557290829E+03  0.13417923899E+03  0.19395793785E+03  0.33092850825E+03  0.17229915249E+03 0.  0.
         24    2    5    5    0    0  0.17694651586E+03  0.14237616582E+03  0.19144451505E+03  0.30742472124E+03  0.79233293638E+02 0.  0.
          5    1    5    5  501    0 -0.21373607566E+02 -0.81969268267E+01  0.25134228067E+01  0.23503787014E+02  0.47000000000E+01 0. -1.
        -11    1    6    6    0    0  0.16366639918E+02  0.54950183726E+02  0.53092395929E+02  0.78142127558E+02  0.00000000000E+00 0.  1.
         12    1    6    6    0    0  0.16057987594E+03  0.87425982093E+02  0.13835211912E+03  0.22928259368E+03  0.00000000000E+00 0. -1.
         -5    1    3    3    0  503 -0.11855515254E+03 -0.33691768910E+02 -0.12641509338E+03  0.17661632235E+03  0.47000000000E+01 0.  1.
         11    1    4    4    0    0  0.40573067972E+01 -0.18278851904E+02  0.20670387910E+02  0.27889838683E+02  0.00000000000E+00 0. -1.
        -12    1    4    4    0    0 -0.41075062543E+02 -0.82208618179E+02 -0.67169245929E+02  0.11382936908E+03  0.00000000000E+00 0.  1.
</event>
<event>
12    1  0.1623092E-001  0.1726890E+03  0.7818608E-02  0.1175278E+00
         21   -1    0    0  503  502  0.00000000000E+00  0.00000000000E+00  0.35600012390E+02  0.35600012390E+02  0.00000000000E+00 0. -1.
         21   -1    0    0  501  503 -0.00000000000E+00 -0.00000000000E+00 -0.10796647047E+04  0.10796647047E+04  0.00000000000E+00 0. -1.
          6    2    1    2  501    0 -0.60202566195E+01 -0.43786052790E+00 -0.78720360121E+03  0.80575039471E+03  0.17177821049E+03 0.  0.
         24    2    3    3    0    0 -0.28525702357E+02 -0.49416805437E+02 -0.27971199586E+03  0.29538263354E+03  0.75870700653E+02 0.  0.
         -6    2    1    2    0  502  0.60202566195E+01  0.43786052790E+00 -0.25686109112E+03  0.30951432241E+03  0.17258348829E+03 0.  0.
        -24    2    5    5    0    0 -0.63715973720E+02 -0.73734202724E+01 -0.14787441370E+03  0.17980563424E+03  0.79681436007E+02 0.  0.
          5    1    3    3  501    0  0.22505445737E+02  0.48978944909E+02 -0.50749160536E+03  0.51036776117E+03  0.47000000000E+01 0. -1.
        -13    1    4    4    0    0 -0.26322635724E+01 -0.20631558926E+02 -0.10312316165E+02  0.23214949923E+02  0.00000000000E+00 0.  1.
         14    1    4    4    0    0 -0.25893438784E+02 -0.28785246511E+02 -0.26939967969E+03  0.27216768362E+03  0.00000000000E+00 0. -1.
         -5    1    5    5    0  502  0.69736230339E+02  0.78112808003E+01 -0.10898667743E+03  0.12970868817E+03  0.47000000000E+01 0.  1.
         11    1    6    6    0    0 -0.51836437039E+02 -0.41283907289E+02 -0.99472635596E+02  0.11952481934E+03  0.00000000000E+00 0. -1.
        -12    1    6    6    0    0 -0.11879536681E+02  0.33910487016E+02 -0.48401778099E+02  0.60280814897E+02  0.00000000000E+00 0.  1.
</event>
<event>
12    1  0.1623092E-001  0.2677630E+03  0.7818608E-02  0.1102575E+00
         21   -1    0    0  503  502  0.00000000000E+00  0.00000000000E+00  0.35394856689E+03  0.35394856689E+03  0.00000000000E+00 0.  1.
         21   -1    0    0  501  503 -0.00000000000E+00 -0.00000000000E+00 -0.33205323807E+03  0.33205323807E+03  0.00000000000E+00 0. -1.
          6    2    1    2  501    0 -0.13836562886E+03  0.15086380662E+03 -0.20328389900E+03  0.33618646932E+03  0.17260377505E+03 0.  0.
         24    2    3    3    0    0 -0.15966726127E+03  0.12687172458E+03 -0.12841017208E+03  0.25459269182E+03  0.82086525181E+02 0.  0.
         -6    2    1    2    0  502  0.13836562886E+03 -0.15086380662E+03  0.22517922782E+03  0.34981533564E+03  0.17251130111E+03 0.  0.
        -24    2    5    5    0    0  0.12087264734E+03 -0.16308503341E+03  0.23897511092E+03  0.32397391198E+03  0.81505012163E+02 0.  0.
          5    1    3    3  501    0  0.21301632404E+02  0.23992082044E+02 -0.74873726919E+02  0.81593777499E+02  0.47000000000E+01 0. -1.
        -13    1    4    4    0    0  0.86736607261E+01  0.63838560940E+01  0.39269486873E+00  0.10776837119E+02  0.00000000000E+00 0.  1.
         14    1    4    4    0    0 -0.16834092199E+03  0.12048786849E+03 -0.12880286695E+03  0.24381585470E+03  0.00000000000E+00 0. -1.
         -5    1    5    5    0  502  0.17492981521E+02  0.12221226786E+02 -0.13795883095E+02  0.25841423665E+02  0.47000000000E+01 0.  1.
         13    1    6    6    0    0 -0.36925386486E+01 -0.35741767634E+02  0.18153060219E+02  0.40257202965E+02  0.00000000000E+00 0. -1.
        -14    1    6    6    0    0  0.12456518599E+03 -0.12734326578E+03  0.22082205070E+03  0.28371670901E+03  0.00000000000E+00 0.  1.
</event>
<event>
12    1  0.1623092E-001  0.2921844E+03  0.7818608E-02  0.1089596E+00
         21   -1    0    0  501  502  0.00000000000E+00  0.00000000000E+00  0.46930415493E+03  0.46930415493E+03  0.00000000000E+00 0.  1.
         21   -1    0    0  502  503 -0.00000000000E+00 -0.00000000000E+00 -0.36376252917E+03  0.36376252917E+03  0.00000000000E+00 0. -1.
         -6    2    1    2    0  503  0.21981016392E+03 -0.79350595763E+02 -0.24334328825E+03  0.37799260569E+03  0.17043892987E+03 0.  0.
        -24    2    3    3    0    0  0.13864593567E+03 -0.18137086627E+02 -0.22334331162E+03  0.27427754067E+03  0.76120201529E+02 0.  0.
          6    2    1    2  501    0 -0.21981016392E+03  0.79350595763E+02  0.34888491401E+03  0.45507407841E+03  0.17538160795E+03 0.  0.
         24    2    5    5    0    0 -0.45037211110E+02  0.73778043347E+02  0.15660499445E+03  0.19513120808E+03  0.77971238366E+02 0.  0.
          5    1    5    5  501    0 -0.17477295281E+03  0.55725524158E+01  0.19227991955E+03  0.25994287033E+03  0.47000000000E+01 0. -1.
        -11    1    6    6    0    0 -0.57060790196E+02  0.45309079825E+02  0.14470846362E+03  0.16201662241E+03  0.00000000000E+00 0.  1.
         12    1    6    6    0    0  0.12023579086E+02  0.28468963522E+02  0.11896530829E+02  0.33114585666E+02  0.00000000000E+00 0. -1.
         -5    1    3    3    0  503  0.81164228249E+02 -0.61213509136E+02 -0.19999976626E+02  0.10371506502E+03  0.47000000000E+01 0.  1.
         13    1    4    4    0    0  0.13047906256E+03  0.90339634057E+01 -0.18586957544E+03  0.22727493777E+03  0.00000000000E+00 0. -1.
        -14    1    4    4    0    0  0.81668731017E+01 -0.27171050032E+02 -0.37473736176E+02  0.47002602897E+02  0.00000000000E+00 0.  1.
</event>
<event>
12    1  0.1623092E-001  0.1807310E+03  0.7818608E-02  0.1167448E+00
         21   -1    0    0  503  502  0.00000000000E+00  0.00000000000E+00  0.47580603517E+03  0.47580603517E+03  0.00000000000E+00 0.  1.
         21   -1    0    0  501  503 -0.00000000000E+00 -0.00000000000E+00 -0.69508332125E+02  0.69508332125E+02  0.00000000000E+00 0.  1.
          6    2    1    2  501    0  0.78215451622E+01  0.49611799401E+02  0.16353070263E+03  0.24266026399E+03  0.17210231203E+03 0.  0.
         24    2    3    3    0    0 -0.43186095536E+02  0.62433957500E+02  0.58495951877E+02  0.12509931803E+03  0.80405379726E+02 0.  0.
         -6    2    1    2    0  502 -0.78215451622E+01 -0.49611799401E+02  0.24276700041E+03  0.30265410331E+03  0.17361216130E+03 0.  0.
        -24    2    5    5    0    0 -0.37948825640E+02 -0.88426825318E+02  0.15476618034E+03  0.20175567121E+03  0.86564215964E+02 0.  0.
          5    1    3    3  501    0  0.51007640698E+02 -0.12822158099E+02  0.10503475075E+03  0.11756094596E+03  0.47000000000E+01 0. -1.
        -11    1    4    4    0    0  0.23199669787E+02  0.25270628255E+02  0.14775784899E+02  0.37351748955E+02  0.00000000000E+00 0.  1.
         12    1    4    4    0    0 -0.66385765323E+02  0.37163329245E+02  0.43720166979E+02  0.87747569076E+02  0.00000000000E+00 0. -1.
         -5    1    5    5    0  502  0.30127280478E+02  0.38815025917E+02  0.88000820076E+02  0.10089843210E+03  0.47000000000E+01 0.  1.
         11    1    6    6    0    0 -0.16380803420E+02 -0.45498415305E+02  0.10207442375E+02  0.49422954138E+02  0.00000000000E+00 0. -1.
        -12    1    6    6    0    0 -0.21568022220E+02 -0.42928410014E+02  0.14455873796E+03  0.15233271707E+03  0.00000000000E+00 0.  1.
</event>
<event>
12    1  0.1623092E-001  0.1906801E+03  0.7818608E-02  0.1157916E+00
         21   -1    0    0  501  502  0.00000000000E+00  0.00000000000E+00  0.10161660870E+04  0.10161660870E+04  0.00000000000E+00 0. -1.
         21   -1    0    0  502  503 -0.00000000000E+00 -0.00000000000E+00 -0.42345941586E+02  0.42345941586E+02  0.00000000000E+00 0.  1.
         -6    2    1    2    0  503 -0.11499752868E+02  0.79261125746E+02  0.27731558024E+03  0.33637802337E+03  0.17271847959E+03 0.  0.
        -24    2    3    3    0    0  0.61442324594E+02  0.44492102347E+02  0.15762351799E+03  0.19188680766E+03  0.78871205811E+02 0.  0.
          6    2    1    2  501    0  0.11499752868E+02 -0.79261125746E+02  0.69650456521E+03  0.72213400526E+03  0.17304433482E+03 0.  0.
         24    2    5    5    0    0 -0.17511856373E+02  0.20955737570E+02  0.35582602625E+03  0.36580683808E+03  0.80353430372E+02 0.  0.
          5    1    5    5  501    0  0.29011609241E+02 -0.10021686332E+03  0.34067853896E+03  0.35632716718E+03  0.47000000000E+01 0. -1.
        -13    1    6    6    0    0 -0.23876104592E+02  0.21499734222E+01  0.25928955873E+02  0.35312908530E+02  0.00000000000E+00 0.  1.
         14    1    6    6    0    0  0.63642482189E+01  0.18805764147E+02  0.32989707038E+03  0.33049392955E+03  0.00000000000E+00 0. -1.
         -5    1    3    3    0  503 -0.72942077462E+02  0.34769023399E+02  0.11969206225E+03  0.14449121571E+03  0.47000000000E+01 0.  1.
         13    1    4    4    0    0 -0.18037365631E+02  0.12100647440E+02  0.47808429081E+02  0.52511123761E+02  0.00000000000E+00 0. -1.
        -14    1    4    4    0    0  0.79479690225E+02  0.32391454907E+02  0.10981508891E+03  0.13937568390E+03  0.00000000000E+00 0.  1.
</event>
<event>
12    1  0.1623092E-001  0.2244563E+03  0.7818608E-02  0.1130650E+00
         21   -1    0    0  501  502  0.00000000000E+00  0.00000000000E+00  0.70925358514E+03  0.70925358514E+03  0.00000000000E+00 0. -1.
         21   -1    0    0  502  503 -0.00000000000E+00 -0.00000000000E+00 -0.35040177245E+03  0.35040177245E+03  0.00000000000E+00 0. -1.
         -6    2    1    2    0  503  0.39853484008E+02 -0.13863724009E+03 -0.29374971607E+03  0.36953263114E+03  0.17163008262E+03 0.  0.
        -24    2    3    3    0    0  0.58949057604E+02 -0.51512862560E+02 -0.78980908023E+02  0.13693205290E+03  0.79898916616E+02 0.  0.
          6    2    1    2  501    0 -0.39853484008E+02  0.13863724009E+03  0.65260152876E+03  0.69012272645E+03  0.17196522234E+03 0.  0.
         24    2    5    5    0    0  0.42405845996E+02  0.43027181560E+02  0.27103967025E+03  0.28822793607E+03  0.77222057432E+02 0.  0.
          5    1    5    5  501    0 -0.82259330005E+02  0.95610058530E+02  0.38156185851E+03  0.40189479038E+03  0.47000000000E+01 0. -1.
        -13    1    6    6    0    0 -0.20149245801E+02  0.34882152316E+01  0.31828798912E+02  0.37831629519E+02  0.00000000000E+00 0.  1.
         14    1    6    6    0    0  0.62555091797E+02  0.39538966329E+02  0.23921087134E+03  0.25039630655E+03  0.00000000000E+00 0. -1.
         -5    1    3    3    0  503 -0.19095573595E+02 -0.87124377530E+02 -0.21476880804E+03  0.23260057824E+03  0.47000000000E+01 0.  1.
         11    1    4    4    0    0  0.22219911052E+02 -0.62198297946E+02 -0.72605498089E+02  0.98152488850E+02  0.00000000000E+00 0. -1.
        -12    1    4    4    0    0  0.36729146551E+02  0.10685435386E+02 -0.63754099339E+01  0.38779564046E+02  0.00000000000E+00 0.  1.
</event>
<event>
12    1  0.1623092E-001  0.1973716E+03  0.7818608E-02  0.1151977E+00
         21   -1    0    0  501  502  0.00000000000E+00  0.00000000000E+00  0.40864196850E+03  0.40864196850E+03  0.00000000000E+00 0. -1.
         21   -1    0    0  502  503 -0.00000000000E+00 -0.00000000000E+00 -0.96124973621E+02  0.96124973621E+02  0.00000000000E+00 0. -1.
         -6    2    1    2    0  503  0.83429885728E+01  0.97490104491E+02  0.13325266110E+03  0.23814240643E+03  0.17141064178E+03 0.  0.
        -24    2    3    3    0    0  0.54953998193E+02  0.11897876010E+02  0.52189944695E+02  0.11128867260E+03  0.80621814363E+02 0.  0.
          6    2    1    2  501    0 -0.83429885728E+01 -0.97490104491E+02  0.17926433378E+03  0.26662453569E+03  0.17140307972E+03 0.  0.
         24    2    5    5    0    0  0.29853200640E+02  0.35267015244E+01  0.67183985807E+02  0.11090864579E+03  0.82966189196E+02 0.  0.
          5    1    5    5  501    0 -0.38196189213E+02 -0.10101680601E+03  0.11208034797E+03  0.15571588991E+03  0.47000000000E+01 0. -1.
        -11    1    6    6    0    0  0.57447578150E+02  0.13208273015E+02  0.46723039937E+02  0.75217851421E+02  0.00000000000E+00 0.  1.
         12    1    6    6    0    0 -0.27594377510E+02 -0.96815714908E+01  0.20460945871E+02  0.35690794368E+02  0.00000000000E+00 0. -1.
         -5    1    3    3    0  503 -0.46611009621E+02  0.85592228480E+02  0.81062716406E+02  0.12685373382E+03  0.47000000000E+01 0.  1.
         11    1    4    4    0    0  0.60683320852E+01  0.36147101557E+02  0.13058675673E+01  0.36676189761E+02  0.00000000000E+00 0. -1.
        -12    1    4    4    0    0  0.48885666108E+02 -0.24249225547E+02  0.50884077128E+02  0.74612482840E+02  0.00000000000E+00 0.  1.
</event>
<event>
12    1  0.1623092E-001  0.2634316E+03  0.7818608E-02  0.1105159E+00
         21   -1    0    0  501  502  0.00000000000E+00  0.00000000000E+00  0.39213130581E+03  0.39213130581E+03  0.00000000000E+00 0. -1.
         21   -1    0    0  502  503 -0.00000000000E+00 -0.00000000000E+00 -0.20187384136E+03  0.20187384136E+03  0.00000000000E+00 0. -1.
         -6    2    1    2    0  503  0.90338020571E+02  0.17780817814E+03 -0.98231472495E+01  0.26320539588E+03  0.17147559601E+03 0.  0.
        -24    2    3    3    0    0  0.10201591847E+03  0.19653691488E+03 -0.19718627160E+02  0.23856499407E+03  0.86547244925E+02 0.  0.
          6    2    1    2  501    0 -0.90338020571E+02 -0.17780817814E+03  0.20008061170E+03  0.33079975128E+03  0.17210321930E+03 0.  0.
         24    2    5    5    0    0 -0.45196205118E+02 -0.18821071388E+02  0.47413694843E+02  0.10575761941E+03  0.80868324568E+02 0.  0.
          5    1    5    5  501    0 -0.45141815453E+02 -0.15898710675E+03  0.15266691686E+03  0.22504213187E+03  0.47000000000E+01 0. -1.
        -11    1    6    6    0    0  0.11327596341E+02  0.27115670973E+01  0.43624560898E+02  0.45152733567E+02  0.00000000000E+00 0.  1.
         12    1    6    6    0    0 -0.56523801459E+02 -0.21532638485E+02  0.37891339447E+01  0.60604885839E+02  0.00000000000E+00 0. -1.
         -5    1    3    3    0  503 -0.11677897895E+02 -0.18728736740E+02  0.98954799100E+01  0.24640401819E+02  0.47000000000E+01 0.  1.
         11    1    4    4    0    0  0.11359662977E+03  0.14427791764E+03 -0.22276292617E+02  0.18497714731E+03  0.00000000000E+00 0. -1.
        -12    1    4    4    0    0 -0.11580711308E+02  0.52258997239E+02  0.25576654575E+01  0.53587846751E+02  0.00000000000E+00 0.  1.
</event>
<event>
12    1  0.1623092E-001  0.3369844E+03  0.7818608E-02  0.1068857E+00
         21   -1    0    0  501  502  0.00000000000E+00  0.00000000000E+00  0.22106306069E+03  0.22106306069E+03  0.00000000000E+00 0.  1.
         21   -1    0    0  502  503 -0.00000000000E+00 -0.00000000000E+00 -0.55513969616E+03  0.55513969616E+03  0.00000000000E+00 0. -1.
         -6    2    1    2    0  503 -0.19045720582E+03 -0.20596612888E+03 -0.28439358426E+03  0.43557553297E+03  0.17363853449E+03 0.  0.
        -24    2    3    3    0    0 -0.21321254050E+03 -0.18656855526E+03 -0.25899843610E+03  0.39606509550E+03  0.97570265628E+02 0.  0.
          6    2    1    2  501    0  0.19045720582E+03  0.20596612888E+03 -0.49683051212E+02  0.34062722388E+03  0.18671504111E+03 0.  0.
         24    2    5    5    0    0  0.17520690183E+03  0.85977282850E+02 -0.61448115895E+02  0.21901142848E+03  0.78106230497E+02 0.  0.
          5    1    5    5  501    0  0.15250303989E+02  0.11998884603E+03  0.11765064682E+02  0.12161579540E+03  0.47000000000E+01 0. -1.
        -13    1    6    6    0    0  0.73158793734E+02  0.75888760940E+02 -0.15130112046E+02  0.10649053211E+03  0.00000000000E+00 0.  1.
         14    1    6    6    0    0  0.10204810809E+03  0.10088521910E+02 -0.46318003849E+02  0.11252089637E+03  0.00000000000E+00 0. -1.
         -5    1    3    3    0  503  0.22755334682E+02 -0.19397573621E+02 -0.25395148161E+02  0.39510437468E+02  0.47000000000E+01 0.  1.
         11    1    4    4    0    0 -0.68522458819E+02 -0.63506585628E+02 -0.15099394281E+03  0.17756008715E+03  0.00000000000E+00 0. -1.
        -12    1    4    4    0    0 -0.14469008168E+03 -0.12306196964E+03 -0.10800449328E+03  0.21850500836E+03  0.00000000000E+00 0.  1.
</event>
<event>
12    1  0.1623092E-001  0.1730751E+03  0.7818608E-02  0.1178491E+00
         21   -1    0    0  501  502  0.00000000000E+00  0.00000000000E+00  0.76451068534E+03  0.76451068534E+03  0.00000000000E+00 0. -1.
         21   -1    0    0  502  503 -0.00000000000E+00 -0.00000000000E+00 -0.56771441565E+02  0.56771441565E+02  0.00000000000E+00 0. -1.
         -6    2    1    2    0  503  0.53503957295E+02 -0.53359663147E+01  0.96029709224E+02  0.18555926475E+03  0.14939675264E+03 0.  0.
        -24    2    3    3    0    0  0.39076227201E+02 -0.52996484421E+02  0.87991101042E+02  0.13489967925E+03  0.78229858150E+02 0.  0.
          6    2    1    2  501    0 -0.53503957295E+02  0.53359663147E+01  0.61170953455E+03  0.63572286215E+03  0.16451096261E+03 0.  0.
         24    2    5    5    0    0 -0.27406340524E+02 -0.55374550275E+02  0.29028125058E+03  0.30753833454E+03  0.80617457510E+02 0.  0.
          5    1    5    5  501    0 -0.26097616771E+02  0.60710516590E+02  0.32142828397E+03  0.32818452761E+03  0.47000000000E+01 0. -1.
        -11    1    6    6    0    0  0.14969484263E+02  0.12274987205E+02  0.87388776311E+02  0.89507312523E+02  0.00000000000E+00 0.  1.
         12    1    6    6    0    0 -0.42375824787E+02 -0.67649537480E+02  0.20289247427E+03  0.21803102202E+03  0.00000000000E+00 0. -1.
         -5    1    3    3    0  503  0.14427730094E+02  0.47660518107E+02  0.80386081824E+01  0.50659585504E+02  0.47000000000E+01 0.  1.
         13    1    4    4    0    0 -0.20194947517E+02 -0.21176065060E+02  0.79105123588E+01  0.30312338122E+02  0.00000000000E+00 0. -1.
        -14    1    4    4    0    0  0.59271174717E+02 -0.31820419362E+02  0.80080588683E+02  0.10458734113E+03  0.00000000000E+00 0.  1.
</event>
<event>
12    1  0.1623092E-001  0.2007383E+03  0.7818608E-02  0.1149318E+00
         21   -1    0    0  503  502  0.00000000000E+00  0.00000000000E+00  0.47974580966E+03  0.47974580966E+03  0.00000000000E+00 0. -1.
         21   -1    0    0  501  503 -0.00000000000E+00 -0.00000000000E+00 -0.19682601179E+03  0.19682601179E+03  0.00000000000E+00 0. -1.
          6    2    1    2  501    0 -0.83462140206E+02 -0.59075709175E+02 -0.11526348164E+03  0.23065055643E+03  0.17163374003E+03 0.  0.
         24    2    3    3    0    0 -0.34606627470E+02  0.30393504623E+02 -0.78721870710E+02  0.12225784139E+03  0.81415373648E+02 0.  0.
         -6    2    1    2    0  502  0.83462140206E+02  0.59075709175E+02  0.39818327952E+03  0.44592126502E+03  0.17274253167E+03 0.  0.
        -24    2    5    5    0    0  0.11393649252E+03  0.58467056491E+02  0.23128543283E+03  0.27619784932E+03  0.79952357744E+02 0.  0.
          5    1    3    3  501    0 -0.48855512735E+02 -0.89469213798E+02 -0.36541610934E+02  0.10839271503E+03  0.47000000000E+01 0. -1.
        -11    1    4    4    0    0 -0.58706587888E+02  0.34397093468E+02 -0.49349781376E+02  0.84053699635E+02  0.00000000000E+00 0.  1.
         12    1    4    4    0    0  0.24099960417E+02 -0.40035888445E+01 -0.29372089334E+02  0.38204141760E+02  0.00000000000E+00 0. -1.
         -5    1    5    5    0  502 -0.30474352316E+02  0.60865268327E+00  0.16689784669E+03  0.16972341570E+03  0.47000000000E+01 0.  1.
         13    1    6    6    0    0  0.76039218728E+02  0.26885885931E+02  0.20501261802E+03  0.22030657547E+03  0.00000000000E+00 0. -1.
        -14    1    6    6    0    0  0.37897273793E+02  0.31581170560E+02  0.26272814806E+02  0.55891273851E+02  0.00000000000E+00 0.  1.
</event>
<event>
12    1  0.1623092E-001  0.2106345E+03  0.7818608E-02  0.1141342E+00
         21   -1    0    0  503  502  0.00000000000E+00  0.00000000000E+00  0.31034477152E+03  0.31034477152E+03  0.00000000000E+00 0. -1.
         21   -1    0    0  501  503 -0.00000000000E+00 -0.00000000000E+00 -0.17848402270E+03  0.17848402270E+03  0.00000000000E+00 0. -1.
          6    2    1    2  501    0  0.12078959533E+03 -0.39782065407E+01 -0.44731887976E+02  0.21396179393E+03  0.17080033664E+03 0.  0.
         24    2    3    3    0    0  0.15194627490E+03  0.81004084471E+01 -0.51455255104E+02  0.17955357853E+03  0.80240620727E+02 0.  0.
         -6    2    1    2    0  502 -0.12078959533E+03  0.39782065407E+01  0.17659263679E+03  0.27486700028E+03  0.17251364006E+03 0.  0.
        -24    2    5    5    0    0 -0.90876153062E+01 -0.36502396153E+02  0.96449416158E+02  0.13147579641E+03  0.81045576602E+02 0.  0.
          5    1    3    3  501    0 -0.31156679566E+02 -0.12078614988E+02  0.67233671278E+01  0.34408215401E+02  0.47000000000E+01 0. -1.
        -11    1    4    4    0    0  0.70630382081E+02 -0.34982291047E+02 -0.34232978625E+02  0.85931998612E+02  0.00000000000E+00 0.  1.
         12    1    4    4    0    0  0.81315892814E+02  0.43082699494E+02 -0.17222276479E+02  0.93621579921E+02  0.00000000000E+00 0. -1.
         -5    1    5    5    0  502 -0.11170198002E+03  0.40480602693E+02  0.80143220634E+02  0.14339120388E+03  0.47000000000E+01 0.  1.
         11    1    6    6    0    0 -0.15553680772E+02 -0.47260664906E+02  0.19387198702E+02  0.53398042159E+02  0.00000000000E+00 0. -1.
        -12    1    6    6    0    0  0.64660654657E+01  0.10758268753E+02  0.77062217456E+02  0.78077754248E+02  0.00000000000E+00 0.  1.
</event>
<event>
12    1  0.1623092E-001  0.1783543E+03  0.7818608E-02  0.1169876E+00
         21   -1    0    0  503  502  0.00000000000E+00  0.00000000000E+00  0.28344512268E+03  0.28344512268E+03  0.00000000000E+00 0.  1.
         21   -1    0    0  501  503 -0.00000000000E+00 -0.00000000000E+00 -0.14686801251E+03  0.14686801251E+03  0.00000000000E+00 0. -1.
          6    2    1    2  501    0  0.27009106379E+02 -0.43390964461E+02 -0.38272472680E+02  0.18054796357E+03  0.16888018640E+03 0.  0.
         24    2    3    3    0    0 -0.16395333478E+02 -0.48360993887E+02 -0.76705536959E+02  0.12217128139E+03  0.80215272286E+02 0.  0.
         -6    2    1    2    0  502 -0.27009106379E+02  0.43390964461E+02  0.17484958284E+03  0.24976517162E+03  0.17087421312E+03 0.  0.
        -24    2    5    5    0    0  0.20372364174E+02  0.83245232576E+02  0.11063044637E+03  0.16043682266E+03  0.78460668056E+02 0.  0.
          5    1    3    3  501    0  0.43404439856E+02  0.49700294259E+01  0.38433064278E+02  0.58376682173E+02  0.47000000000E+01 0. -1.
        -13    1    4    4    0    0 -0.21168008687E+02 -0.55622671513E+01  0.10976475294E+02  0.24484820145E+02  0.00000000000E+00 0.  1.
         14    1    4    4    0    0  0.47726752093E+01 -0.42798726735E+02 -0.87682012253E+02  0.97686461250E+02  0.00000000000E+00 0. -1.
         -5    1    5    5    0  502 -0.47381470553E+02 -0.39854268116E+02  0.64219136477E+02  0.89328348964E+02  0.47000000000E+01 0.  1.
         13    1    6    6    0    0  0.11984824502E+02 -0.11558995618E+02  0.32786416290E+01  0.16970441626E+02  0.00000000000E+00 0. -1.
        -14    1    6    6    0    0  0.83875396716E+01  0.94804228194E+02  0.10735180474E+03  0.14346638103E+03  0.00000000000E+00 0.  1.
</event>
<event>
12    1  0.1623092E-001  0.2592089E+03  0.7818608E-02  0.1107704E+00
         21   -1    0    0  501  502  0.00000000000E+00  0.00000000000E+00  0.11434126669E+04  0.11434126669E+04  0.00000000000E+00 0. -1.
         21   -1    0    0  502  503 -0.00000000000E+00 -0.00000000000E+00 -0.14650406472E+03  0.14650406472E+03  0.00000000000E+00 0.  1.
         -6    2    1    2    0  503 -0.19345053661E+03 -0.15483004566E+02 -0.81685184820E+00  0.25921015603E+03  0.17183248877E+03 0.  0.
        -24    2    3    3    0    0 -0.50937910232E+02 -0.11301107208E+02  0.49553702280E+02  0.10792691285E+03  0.80437947422E+02 0.  0.
          6    2    1    2  501    0  0.19345053661E+03  0.15483004566E+02  0.99772545407E+03  0.10307065756E+04  0.17098868333E+03 0.  0.
         24    2    5    5    0    0  0.17795623650E+03 -0.31214723247E+02  0.64932452414E+03  0.67881731878E+03  0.80795009553E+02 0.  0.
          5    1    5    5  501    0  0.15494300105E+02  0.46697727814E+02  0.34840092992E+03  0.35188925685E+03  0.47000000000E+01 0. -1.
        -13    1    6    6    0    0  0.16070863881E+03  0.16954888448E+01  0.53278429595E+03  0.55649730213E+03  0.00000000000E+00 0.  1.
         14    1    6    6    0    0  0.17247597698E+02 -0.32910212092E+02  0.11654022820E+03  0.12232001666E+03  0.00000000000E+00 0. -1.
         -5    1    3    3    0  503 -0.14251262638E+03 -0.41818973580E+01 -0.50370554128E+02  0.15128324317E+03  0.47000000000E+01 0.  1.
         11    1    4    4    0    0 -0.63908344052E+02 -0.30295675195E+02  0.26972147807E+02  0.75694128784E+02  0.00000000000E+00 0. -1.
        -12    1    4    4    0    0  0.12970433820E+02  0.18994567986E+02  0.22581554473E+02  0.32232784070E+02  0.00000000000E+00 0.  1.
</event>
<event>
12    1  0.1623092E-001  0.2414298E+03  0.7818608E-02  0.1119083E+00
         21   -1    0    0  501  502  0.00000000000E+00  0.00000000000E+00  0.58968285640E+03  0.58968285640E+03  0.00000000000E+00 0.  1.
         21   -1    0    0  502  503 -0.00000000000E+00 -0.00000000000E+00 -0.12755912307E+03  0.12755912307E+03  0.00000000000E+00 0.  1.
         -6    2    1    2    0  503  0.98137903908E+02 -0.13711656079E+03  0.59714349575E+02  0.24870495898E+03  0.17278991188E+03 0.  0.
        -24    2    3    3    0    0  0.67726585835E+02 -0.56576363624E+02  0.97042485321E+02  0.15475257026E+03  0.82117834216E+02 0.  0.
          6    2    1    2  501    0 -0.98137903908E+02  0.13711656079E+03  0.40240938376E+03  0.46853702049E+03  0.17076776044E+03 0.  0.
         24    2    5    5    0    0 -0.60420060958E+02  0.41269145650E+01  0.14675040120E+03  0.17786110638E+03  0.80195247493E+02 0.  0.
          5    1    5    5  501    0 -0.37717842951E+02  0.13298964622E+03  0.25565898255E+03  0.29067591410E+03  0.47000000000E+01 0. -1.
        -13    1    6    6    0    0 -0.46133573761E+02  0.36778705320E+02  0.60350222254E+02  0.84398632211E+02  0.00000000000E+00 0.  1.
         14    1    6    6    0    0 -0.14286487197E+02 -0.32651790755E+02  0.86400178948E+02  0.93462474171E+02  0.00000000000E+00 0. -1.
         -5    1    3    3    0  503  0.30411318073E+02 -0.80540197165E+02 -0.37328135747E+02  0.93952388712E+02  0.47000000000E+01 0.  1.
         13    1    4    4    0    0  0.82685538201E+01 -0.19521865101E+02 -0.12582091004E+02  0.24653219127E+02  0.00000000000E+00 0. -1.
        -14    1    4    4    0    0  0.59458032015E+02 -0.37054498523E+02  0.10962457632E+03  0.13009935114E+03  0.00000000000E+00 0.  1.
</event>
<event>
12    1  0.1623092E-001  0.1821358E+03  0.7818608E-02  0.1165776E+00
         21   -1    0    0  501  502  0.00000000000E+00  0.00000000000E+00  0.45553104052E+02  0.45553104052E+02  0.00000000000E+00 0.  1.
         21   -1    0    0  502  503 -0.00000000000E+00 -0.00000000000E+00 -0.88512254959E+03  0.88512254959E+03  0.00000000000E+00 0. -1.
         -6    2    1    2    0  503 -0.31251127570E+02 -0.49506397181E+02 -0.61604816599E+03  0.64240857514E+03  0.17247005033E+03 0.  0.
        -24    2    3    3    0    0 -0.11181946014E+02  0.43215221548E+02 -0.22530510571E+03  0.24028633032E+03  0.70587099296E+02 0.  0.
          6    2    1    2  501    0  0.31251127570E+02  0.49506397181E+02 -0.22352127955E+03  0.28826707850E+03  0.17236191517E+03 0.  0.
         24    2    5    5    0    0  0.66276024765E+02  0.13291944662E+02 -0.73500615812E+02  0.12994298197E+03  0.83148366109E+02 0.  0.
          5    1    5    5  501    0 -0.35024897195E+02  0.36214452519E+02 -0.15002066373E+03  0.15832409653E+03  0.47000000000E+01 0. -1.
        -11    1    6    6    0    0  0.30369615632E+01  0.38798426672E+02 -0.24773942767E+02  0.46133385828E+02  0.00000000000E+00 0.  1.
         12    1    6    6    0    0  0.63239063202E+02 -0.25506482010E+02 -0.48726673045E+02  0.83809596141E+02  0.00000000000E+00 0. -1.
         -5    1    3    3    0  503 -0.20069181556E+02 -0.92721618729E+02 -0.39074306028E+03  0.40212224482E+03  0.47000000000E+01 0.  1.
         13    1    4    4    0    0 -0.72353030705E+01  0.10663255076E+02 -0.19565368363E+03  0.19607758296E+03  0.00000000000E+00 0. -1.
        -14    1    4    4    0    0 -0.39466429432E+01  0.32551966473E+02 -0.29651422080E+02  0.44208747360E+02  0.00000000000E+00 0.  1.
</event>
<event>
12    1  0.1623092E-001  0.2274040E+03  0.7818608E-02  0.1128848E+00
         21   -1    0    0  503  502  0.00000000000E+00  0.00000000000E+00  0.14555898290E+04  0.14555898290E+04  0.00000000000E+00 0. -1.
         21   -1    0    0  501  503 -0.00000000000E+00 -0.00000000000E+00 -0.35515981174E+02  0.35515981174E+02  0.00000000000E+00 0.  1.
          6    2    1    2  501    0  0.10524245659E+03 -0.10079781181E+03  0.64374672456E+03  0.68273159726E+03  0.17457495519E+03 0.  0.
         24    2    3    3    0    0  0.14375589510E+03 -0.86438438754E+02  0.53096893510E+03  0.56260501263E+03  0.80368085224E+02 0.  0.
         -6    2    1    2    0  502 -0.10524245659E+03  0.10079781181E+03  0.77632712330E+03  0.80837421294E+03  0.17189791229E+03 0.  0.
        -24    2    5    5    0    0 -0.13011462793E+03  0.63394628941E+02  0.44284537559E+03  0.47184815296E+03  0.74699112363E+02 0.  0.
          5    1    3    3  501    0 -0.38513438503E+02 -0.14359373058E+02  0.11277778946E+03  0.12012658463E+03  0.47000000000E+01 0. -1.
        -11    1    4    4    0    0  0.18720006422E+02 -0.50665016661E+02  0.12114087633E+03  0.13263670108E+03  0.00000000000E+00 0.  1.
         12    1    4    4    0    0  0.12503588868E+03 -0.35773422093E+02  0.40982805877E+03  0.42996831155E+03  0.00000000000E+00 0. -1.
         -5    1    5    5    0  502  0.24872171338E+02  0.37403182871E+02  0.33348174771E+03  0.33652605999E+03  0.47000000000E+01 0.  1.
         11    1    6    6    0    0 -0.43021071353E+02  0.31974646316E+02  0.27484999574E+03  0.28002805350E+03  0.00000000000E+00 0. -1.
        -12    1    6    6    0    0 -0.87093556580E+02  0.31419982625E+02  0.16799537984E+03  0.19182009945E+03  0.00000000000E+00 0.  1.
</event>
<event>
12    1  0.1623092E-001  0.2357983E+03  0.7818608E-02  0.1122630E+00
         21   -1    0    0  503  502  0.00000000000E+00  0.00000000000E+00  0.35529030022E+03  0.35529030022E+03  0.00000000000E+00 0. -1.
         21   -1    0    0  501  503 -0.00000000000E+00 -0.00000000000E+00 -0.17341932888E+03  0.17341932888E+03  0.00000000000E+00 0. -1.
          6    2    1    2  501    0  0.13349706954E+03  0.88301577439E+02  0.82850896557E+01  0.23590783601E+03  0.17310467419E+03 0.  0.
         24    2    3    3    0    0  0.10250186098E+03 -0.44055948651E+01  0.33644844087E+02  0.13481119959E+03  0.80722012053E+02 0.  0.
         -6    2    1    2    0  502 -0.13349706954E+03 -0.88301577439E+02  0.17358588169E+03  0.29280179309E+03  0.17315367615E+03 0.  0.
        -24    2    5    5    0    0 -0.15665230934E+03 -0.38885725736E+02  0.14014887161E+03  0.22862847175E+03  0.81100099824E+02 0.  0.
          5    1    3    3  501    0  0.30995208555E+02  0.92707172304E+02 -0.25359754431E+02  0.10109663642E+03  0.47000000000E+01 0. -1.
        -13    1    4    4    0    0  0.44887874578E+01 -0.57470926398E+01  0.36029368698E+02  0.36759946891E+02  0.00000000000E+00 0.  1.
         14    1    4    4    0    0  0.98013073526E+02  0.13414977747E+01 -0.23845246106E+01  0.98051252699E+02  0.00000000000E+00 0. -1.
         -5    1    5    5    0  502  0.23155239801E+02 -0.49415851703E+02  0.33437010081E+02  0.64173321348E+02  0.47000000000E+01 0.  1.
         13    1    6    6    0    0 -0.55348637471E+02 -0.53733725484E+02  0.72861461158E+02  0.10611115609E+03  0.00000000000E+00 0. -1.
        -14    1    6    6    0    0 -0.10130367187E+03  0.14847999747E+02  0.67287410453E+02  0.12251731566E+03  0.00000000000E+00 0.  1.
</event>
<event>
12    1  0.1623092E-001  0.2086297E+03  0.7818608E-02  0.1144027E+00
         21   -1    0    0  501  502  0.00000000000E+00  0.00000000000E+00  0.90640770402E+02  0.90640770402E+02  0.00000000000E+00 0.  1.
         21   -1    0    0  502  503 -0.00000000000E+00 -0.00000000000E+00 -0.51772371254E+03  0.51772371254E+03  0.00000000000E+00 0.  1.
         -6    2    1    2    0  503 -0.89219754535E+02  0.53694544245E+02 -0.30763279381E+03  0.36795920282E+03  0.17295308736E+03 0.  0.
        -24    2    3    3    0    0 -0.11442904834E+02  0.29831933602E+02 -0.56577145436E+02  0.10400903495E+03  0.81215895193E+02 0.  0.
          6    2    1    2  501    0  0.89219754535E+02 -0.53694544245E+02 -0.11945014832E+03  0.24040528012E+03  0.18078465669E+03 0.  0.
         24    2    5    5    0    0  0.40697484386E+02 -0.36694849627E+02 -0.15180048595E+03  0.17947881081E+03  0.78526802878E+02 0.  0.
          5    1    5    5  501    0  0.48522270149E+02 -0.16999694618E+02  0.32350337632E+02  0.60926469309E+02  0.47000000000E+01 0. -1.
        -11    1    6    6    0    0  0.54348142341E+02 -0.50752613787E+02 -0.13270132452E+03  0.15211571224E+03  0.00000000000E+00 0.  1.
         12    1    6    6    0    0 -0.13650657955E+02  0.14057764161E+02 -0.19099161436E+02  0.27363098570E+02  0.00000000000E+00 0. -1.
         -5    1    3    3    0  503 -0.77776849701E+02  0.23862610643E+02 -0.25105564838E+03  0.26395016787E+03  0.47000000000E+01 0.  1.
         11    1    4    4    0    0  0.21922078749E+02  0.42047057919E+02 -0.47969046702E+02  0.67450441495E+02  0.00000000000E+00 0. -1.
        -12    1    4    4    0    0 -0.33364983583E+02 -0.12215124317E+02 -0.86080987342E+01  0.36558593455E+02  0.00000000000E+00 0.  1.
</event>
<event>
12    1  0.1623092E-001  0.2229514E+03  0.7818608E-02  0.1132066E+00
         21   -1    0    0  503  502  0.00000000000E+00  0.00000000000E+00  0.17481886866E+03  0.17481886866E+03  0.00000000000E+00 0.  1.
         21   -1    0    0  501  503 -0.00000000000E+00 -0.00000000000E+00 -0.38432901419E+03  0.38432901419E+03  0.00000000000E+00 0. -1.
          6    2    1    2  501    0  0.13893487369E+03 -0.10056914161E+02 -0.24948560259E+03  0.33458991801E+03  0.17407844980E+03 0.  0.
         24    2    3    3    0    0  0.16610301012E+03 -0.10807672049E+01 -0.17639932913E+03  0.25596185547E+03  0.82512848153E+02 0.  0.
         -6    2    1    2    0  502 -0.13893487369E+03  0.10056914161E+02  0.39975457062E+02  0.22455796484E+03  0.17153484123E+03 0.  0.
        -24    2    5    5    0    0 -0.33112280914E+02  0.55468602996E+02  0.34475996253E+02  0.10917609151E+03  0.80979229274E+02 0.  0.
          5    1    3    3  501    0 -0.27168136422E+02 -0.89761469564E+01 -0.73086273456E+02  0.78628062538E+02  0.47000000000E+01 0. -1.
        -13    1    4    4    0    0  0.80114780934E+02  0.34945087499E+02 -0.56477779991E+02  0.10406381166E+03  0.00000000000E+00 0.  1.
         14    1    4    4    0    0  0.85988229181E+02 -0.36025854704E+02 -0.11992154914E+03  0.15189804381E+03  0.00000000000E+00 0. -1.
         -5    1    5    5    0  502 -0.10582259278E+03 -0.45411688835E+02  0.54994608085E+01  0.11538187334E+03  0.47000000000E+01 0.  1.
         11    1    6    6    0    0 -0.22074470147E+02  0.45707955099E+02 -0.18625279147E+02  0.54068478940E+02  0.00000000000E+00 0. -1.
        -12    1    6    6    0    0 -0.11037810766E+02  0.97606478973E+01  0.53101275400E+02  0.55107612569E+02  0.00000000000E+00 0.  1.
</event>
<event>
12    1  0.1623092E-001  0.2989537E+03  0.7818608E-02  0.1087301E+00
         21   -1    0    0  501  502  0.00000000000E+00  0.00000000000E+00  0.89841877579E+03  0.89841877579E+03  0.00000000000E+00 0. -1.
         21   -1    0    0  502  503 -0.00000000000E+00 -0.00000000000E+00 -0.96259650912E+02  0.96259650912E+02  0.00000000000E+00 0. -1.
         -6    2    1    2    0  503  0.22038978741E+03 -0.58211755415E+02  0.36607537582E+03  0.47263570450E+03  0.19342456288E+03 0.  0.
        -24    2    3    3    0    0  0.23701810773E+03 -0.85315141227E+02  0.34388045519E+03  0.43357422653E+03  0.79224906025E+02 0.  0.
          6    2    1    2  501    0 -0.22038978741E+03  0.58211755415E+02  0.43608374906E+03  0.52204272220E+03  0.17435395249E+03 0.  0.
         24    2    5    5    0    0 -0.10649994083E+03  0.64998860312E+02  0.13655467745E+03  0.20148583694E+03  0.79889131409E+02 0.  0.
          5    1    5    5  501    0 -0.11388984658E+03 -0.67871048976E+01  0.29952907161E+03  0.32055688526E+03  0.47000000000E+01 0. -1.
        -13    1    6    6    0    0 -0.36300589478E+02 -0.17100324697E+02  0.36126346546E+02  0.53993210832E+02  0.00000000000E+00 0.  1.
         14    1    6    6    0    0 -0.70199351350E+02  0.82099185010E+02  0.10042833090E+03  0.14749262611E+03  0.00000000000E+00 0. -1.
         -5    1    3    3    0  503 -0.16628320324E+02  0.27103385812E+02  0.22194920624E+02  0.39061477965E+02  0.47000000000E+01 0.  1.
         11    1    4    4    0    0  0.14465923839E+03 -0.13825974227E+02  0.16418415955E+03  0.21925759065E+03  0.00000000000E+00 0. -1.
        -12    1    4    4    0    0  0.92358869348E+02 -0.71489167000E+02  0.17969629565E+03  0.21431663588E+03  0.00000000000E+00 0.  1.
</event>
<event>
12    1  0.1623092E-001  0.2146821E+03  0.7818608E-02  0.1138017E+00
         21   -1    0    0  503  502  0.00000000000E+00  0.00000000000E+00  0.46740749608E+03  0.46740749608E+03  0.00000000000E+00 0.  1.
         21   -1    0    0  501  503 -0.00000000000E+00 -0.00000000000E+00 -0.10676234440E+03  0.10676234440E+03  0.00000000000E+00 0. -1.
          6    2    1    2  501    0  0.25375935090E+02 -0.12572267255E+03  0.99961584890E+02  0.23681367338E+03  0.17215768636E+03 0.  0.
         24    2    3    3    0    0  0.53419755446E+02 -0.86919306651E+02  0.70822508749E+01  0.13221530938E+03  0.83797933246E+02 0.  0.
         -6    2    1    2    0  502 -0.25375935090E+02  0.12572267255E+03  0.26068356678E+03  0.33735616710E+03  0.17147341780E+03 0.  0.
        -24    2    5    5    0    0  0.28839075511E+02  0.12238248502E+02  0.13813323216E+03  0.16168984593E+03  0.77983007428E+02 0.  0.
          5    1    3    3  501    0 -0.28043820355E+02 -0.38803365898E+02  0.92879334015E+02  0.10459836400E+03  0.47000000000E+01 0. -1.
        -11    1    4    4    0    0 -0.10143656091E+02  0.55398522901E+01 -0.13891703188E+02  0.18071058069E+02  0.00000000000E+00 0.  1.
         12    1    4    4    0    0  0.63563411536E+02 -0.92459158941E+02  0.20973954063E+02  0.11414425131E+03  0.00000000000E+00 0. -1.
         -5    1    5    5    0  502 -0.54215010601E+02  0.11348442405E+03  0.12255033463E+03  0.17566632117E+03  0.47000000000E+01 0.  1.
         13    1    6    6    0    0  0.45637651683E+02  0.84875259462E+01  0.37723431304E+02  0.59815471386E+02  0.00000000000E+00 0. -1.
        -14    1    6    6    0    0 -0.16798576172E+02  0.37507225561E+01  0.10040980085E+03  0.10187437454E+03  0.00000000000E+00 0.  1.
</event>
<event>
12    1  0.1623092E-001  0.2957633E+03  0.7818608E-02  0.1087448E+00
         21   -1    0    0  503  502  0.00000000000E+00  0.00000000000E+00  0.40539832053E+02  0.40539832053E+02  0.00000000000E+00 0.  1.
         21   -1    0    0  501  503 -0.00000000000E+00 -0.00000000000E+00 -0.21813683479E+04  0.21813683479E+04  0.00000000000E+00 0. -1.
          6    2    1    2  501    0 -0.75583804509E+01 -0.24029709270E+03 -0.94440384592E+03  0.98946835452E+03  0.17131601951E+03 0.  0.
         24    2    3    3    0    0 -0.83995249035E+01 -0.10603306994E+03 -0.26021461479E+03  0.29221335861E+03  0.79771155569E+02 0.  0.
         -6    2    1    2    0  502  0.75583804509E+01  0.24029709270E+03 -0.11964246700E+04  0.12324398255E+04  0.17226755535E+03 0.  0.
        -24    2    5    5    0    0 -0.41120687798E+02  0.21851154234E+03 -0.10594514627E+04  0.10853751751E+04  0.78509004110E+02 0.  0.
          5    1    3    3  501    0  0.84114445260E+00 -0.13426402276E+03 -0.68418923113E+03  0.69725499591E+03  0.47000000000E+01 0. -1.
        -11    1    4    4    0    0 -0.33621362611E+02 -0.97043407408E+02 -0.17521765283E+03  0.20309860858E+03  0.00000000000E+00 0.  1.
         12    1    4    4    0    0  0.25221837707E+02 -0.89896625276E+01 -0.84996961965E+02  0.89114750031E+02  0.00000000000E+00 0. -1.
         -5    1    5    5    0  502  0.48679068249E+02  0.21785550358E+02 -0.13697320723E+03  0.14706465037E+03  0.47000000000E+01 0.  1.
         13    1    6    6    0    0 -0.21022457538E+02  0.73118048176E+02 -0.54880049607E+03  0.55404889421E+03  0.00000000000E+00 0. -1.
        -14    1    6    6    0    0 -0.20098230260E+02  0.14539349416E+03 -0.51065096667E+03  0.53132628089E+03  0.00000000000E+00 0.  1.
</event>
<event>
12    1  0.1623092E-001  0.3435831E+03  0.7818608E-02  0.1065426E+00
         21   -1    0    0  501  502  0.00000000000E+00  0.00000000000E+00  0.67167917045E+03  0.67167917045E+03  0.00000000000E+00 0.  1.
         21   -1    0    0  502  503 -0.00000000000E+00 -0.00000000000E+00 -0.32479829565E+03  0.32479829565E+03  0.00000000000E+00 0. -1.
         -6    2    1    2    0  503 -0.16260387539E+03 -0.24931157073E+03 -0.16468241663E+03  0.38101137521E+03  0.17161902605E+03 0.  0.
        -24    2    3    3    0    0 -0.83221829698E+01 -0.94566121609E+02 -0.49466012999E+02  0.13393668144E+03  0.80499305005E+02 0.  0.
          6    2    1    2  501    0  0.16260387539E+03  0.24931157073E+03  0.51156329143E+03  0.61546609089E+03  0.16883491436E+03 0.  0.
         24    2    5    5    0    0  0.14540756966E+03  0.20225555924E+03  0.49691131557E+03  0.56305663044E+03  0.89784413932E+02 0.  0.
          5    1    5    5  501    0  0.17196305726E+02  0.47056011491E+02  0.14651975860E+02  0.52409460450E+02  0.47000000000E+01 0. -1.
        -13    1    6    6    0    0  0.13397360739E+03  0.16967761741E+03  0.34399108497E+03  0.40628719874E+03  0.00000000000E+00 0.  1.
         14    1    6    6    0    0  0.11433962272E+02  0.32577941830E+02  0.15292023060E+03  0.15676943170E+03  0.00000000000E+00 0. -1.
         -5    1    3    3    0  503 -0.15428169242E+03 -0.15474544912E+03 -0.11521640363E+03  0.24707469378E+03  0.47000000000E+01 0.  1.
         11    1    4    4    0    0 -0.39184002453E+02 -0.59295365811E+02 -0.82960271903E+01  0.71555227077E+02  0.00000000000E+00 0. -1.
        -12    1    4    4    0    0  0.30861819483E+02 -0.35270755798E+02 -0.41169985809E+02  0.62381454358E+02  0.00000000000E+00 0.  1.
</event>
<event>
12    1  0.1623092E-001  0.2265845E+03  0.7818608E-02  0.1129183E+00
         21   -1    0    0  501  502  0.00000000000E+00  0.00000000000E+00  0.45989115752E+03  0.45989115752E+03  0.00000000000E+00 0. -1.
         21   -1    0    0  502  503 -0.00000000000E+00 -0.00000000000E+00 -0.13352604128E+03  0.13352604128E+03  0.00000000000E+00 0.  1.
         -6    2    1    2    0  503 -0.94131391979E+02  0.11328751355E+03  0.42373139660E+02  0.23051246593E+03  0.17217936666E+03 0.  0.
        -24    2    3    3    0    0 -0.12194021954E+03  0.10229880293E+03  0.66985268467E+02  0.19150055063E+03  0.82770601523E+02 0.  0.
          6    2    1    2  501    0  0.94131391979E+02 -0.11328751355E+03  0.28399197658E+03  0.36290473287E+03  0.17132898965E+03 0.  0.
         24    2    5    5    0    0  0.96322373455E+02 -0.16415177992E+02  0.18813887049E+03  0.22652673705E+03  0.79816478955E+02 0.  0.
          5    1    5    5  501    0 -0.21909814758E+01 -0.96872335556E+02  0.95853106091E+02  0.13637799582E+03  0.47000000000E+01 0. -1.
        -11    1    6    6    0    0  0.44135008461E+02 -0.27223322207E+02  0.30585751046E+02  0.60203790669E+02  0.00000000000E+00 0.  1.
         12    1    6    6    0    0  0.52187364994E+02  0.10808144215E+02  0.15755311944E+03  0.16632294638E+03  0.00000000000E+00 0. -1.
         -5    1    3    3    0  503  0.27808827562E+02  0.10988710615E+02 -0.24612128807E+02  0.39011915305E+02  0.47000000000E+01 0.  1.
         11    1    4    4    0    0 -0.47407689017E+02  0.38599023112E+02  0.70598780229E+02  0.93389299885E+02  0.00000000000E+00 0. -1.
        -12    1    4    4    0    0 -0.74532530524E+02  0.63699779820E+02 -0.36135117612E+01  0.98111250745E+02  0.00000000000E+00 0.  1.
</event>
<event>
12    1  0.1623092E-001  0.2211597E+03  0.7818608E-02  0.1133044E+00
         21   -1    0    0  501  502  0.00000000000E+00  0.00000000000E+00  0.20492543923E+03  0.20492543923E+03  0.00000000000E+00 0.  1.
         21   -1    0    0  502  503 -0.00000000000E+00 -0.00000000000E+00 -0.45478075577E+03  0.45478075577E+03  0.00000000000E+00 0. -1.
         -6    2    1    2    0  503  0.78342183319E+02 -0.11461713571E+03 -0.35239090414E+03  0.41604203858E+03  0.17215412589E+03 0.  0.
        -24    2    3    3    0    0  0.15396556954E+00  0.29536842140E+01 -0.13756249089E+03  0.15892410410E+03  0.79527881954E+02 0.  0.
          6    2    1    2  501    0 -0.78342183319E+02  0.11461713571E+03  0.10253558760E+03  0.24366415642E+03  0.17200025847E+03 0.  0.
         24    2    5    5    0    0 -0.26624992678E+02  0.13338147582E+03  0.10478846226E+03  0.18840174866E+03  0.77557003214E+02 0.  0.
          5    1    5    5  501    0 -0.51717190641E+02 -0.18764340115E+02 -0.22528746557E+01  0.55262407765E+02  0.47000000000E+01 0. -1.
        -13    1    6    6    0    0 -0.19590495443E+02  0.32628369593E+02  0.73329633676E+02  0.82617390355E+02  0.00000000000E+00 0.  1.
         14    1    6    6    0    0 -0.70344972356E+01  0.10075310623E+03  0.31458828584E+02  0.10578435830E+03  0.00000000000E+00 0. -1.
         -5    1    3    3    0  503  0.78188217750E+02 -0.11757081992E+03 -0.21482841326E+03  0.25711793448E+03  0.47000000000E+01 0.  1.
         11    1    4    4    0    0  0.10976223036E+02 -0.41835013902E+01 -0.14398029938E+03  0.14445866456E+03  0.00000000000E+00 0. -1.
        -12    1    4    4    0    0 -0.10822257466E+02  0.71371856042E+01  0.64178084985E+01  0.14465439535E+02  0.00000000000E+00 0.  1.
</event>
<event>
12    1  0.1623092E-001  0.2343210E+03  0.7818608E-02  0.1124116E+00
         21   -1    0    0  501  502  0.00000000000E+00  0.00000000000E+00  0.33450542586E+04  0.33450542586E+04  0.00000000000E+00 0. -1.
         21   -1    0    0  502  503 -0.00000000000E+00 -0.00000000000E+00 -0.16287359376E+02  0.16287359376E+02  0.00000000000E+00 0. -1.
         -6    2    1    2    0  503 -0.74748076362E+00 -0.16056579898E+03  0.15461126578E+04  0.15633531608E+04  0.16681372994E+03 0.  0.
        -24    2    3    3    0    0  0.52124231370E+02 -0.13989315510E+03  0.99072604241E+03  0.10050529202E+04  0.79411907346E+02 0.  0.
          6    2    1    2  501    0  0.74748076362E+00  0.16056579898E+03  0.17826542415E+04  0.17979884572E+04  0.17065876142E+03 0.  0.
         24    2    5    5    0    0  0.53639897057E+02  0.56168045809E+02  0.66319871767E+03  0.67242226258E+03  0.79291059834E+02 0.  0.
          5    1    5    5  501    0 -0.52892416293E+02  0.10439775317E+03  0.11194555238E+04  0.11255661946E+04  0.47000000000E+01 0. -1.
        -11    1    6    6    0    0  0.22836785000E+02  0.10048391775E+02  0.48838565782E+03  0.48902253495E+03  0.00000000000E+00 0.  1.
         12    1    6    6    0    0  0.30803112056E+02  0.46119654034E+02  0.17481305985E+03  0.18339972763E+03  0.00000000000E+00 0. -1.
         -5    1    3    3    0  503 -0.52871712134E+02 -0.20672643886E+02  0.55538661534E+03  0.55830024059E+03  0.47000000000E+01 0.  1.
         13    1    4    4    0    0  0.21490318092E+02 -0.11068448725E+03  0.86669655788E+03  0.87399989299E+03  0.00000000000E+00 0. -1.
        -14    1    4    4    0    0  0.30633913278E+02 -0.29208667849E+02  0.12402948453E+03  0.13105302725E+03  0.00000000000E+00 0.  1.
</event>
<event>
12    1  0.1623092E-001  0.1788534E+03  0.7818608E-02  0.1169026E+00
         21   -1    0    0  503  502  0.00000000000E+00  0.00000000000E+00  0.54513978842E+03  0.54513978842E+03  0.00000000000E+00 0. -1.
         21   -1    0    0  501  503 -0.00000000000E+00 -0.00000000000E+00 -0.11145894841E+03  0.11145894841E+03  0.00000000000E+00 0. -1.
          6    2    1    2  501    0 -0.71795841102E+01 -0.45452456224E+02 -0.95291804240E+01  0.17866185150E+03  0.17237105238E+03 0.  0.
         24    2    3    3    0    0  0.18036087723E+01 -0.85796753816E+02 -0.35001571137E+02  0.12988385655E+03  0.90996539721E+02 0.  0.
         -6    2    1    2    0  502  0.71795841102E+01  0.45452456224E+02  0.44321002043E+03  0.47793688533E+03  0.17283249676E+03 0.  0.
        -24    2    5    5    0    0 -0.14632075693E+01  0.56762584440E+02  0.45056907316E+03  0.46123770854E+03  0.80644913832E+02 0.  0.
          5    1    3    3  501    0 -0.89831928825E+01  0.40344297592E+02  0.25472390713E+02  0.48777994948E+02  0.47000000000E+01 0. -1.
        -11    1    4    4    0    0 -0.14952211419E+02 -0.26912431898E+01  0.22712748921E+02  0.27325452965E+02  0.00000000000E+00 0.  1.
         12    1    4    4    0    0  0.16755820191E+02 -0.83105510626E+02 -0.57714320058E+02  0.10255840359E+03  0.00000000000E+00 0. -1.
         -5    1    5    5    0  502  0.86427916795E+01 -0.11310128216E+02 -0.73590527225E+01  0.16699176784E+02  0.47000000000E+01 0.  1.
         13    1    6    6    0    0 -0.22771299813E+02 -0.11170699432E+02  0.81184361554E+02  0.85054201436E+02  0.00000000000E+00 0. -1.
        -14    1    6    6    0    0  0.21308092244E+02  0.67933283872E+02  0.36938471160E+03  0.37618350711E+03  0.00000000000E+00 0.  1.
</event>
<event>
12    1  0.1623092E-001  0.2461253E+03  0.7818608E-02  0.1115805E+00
         21   -1    0    0  503  502  0.00000000000E+00  0.00000000000E+00  0.10376809196E+03  0.10376809196E+03  0.00000000000E+00 0. -1.
         21   -1    0    0  501  503 -0.00000000000E+00 -0.00000000000E+00 -0.58439926855E+03  0.58439926855E+03  0.00000000000E+00 0.  1.
          6    2    1    2  501    0  0.16320888311E+03  0.64196511111E+02 -0.25459733663E+03  0.35399827174E+03  0.17244315299E+03 0.  0.
         24    2    3    3    0    0  0.84954678141E+02  0.30442086647E+00 -0.21644073733E+03  0.24590601549E+03  0.80036152253E+02 0.  0.
         -6    2    1    2    0  502 -0.16320888311E+03 -0.64196511111E+02 -0.22603383997E+03  0.33416908877E+03  0.17268280607E+03 0.  0.
        -24    2    5    5    0    0 -0.18187289312E+02 -0.50790609561E+01 -0.43816216338E+02  0.93853696125E+02  0.80821291189E+02 0.  0.
          5    1    3    3  501    0  0.78254204967E+02  0.63892090244E+02 -0.38156599293E+02  0.10809225625E+03  0.47000000000E+01 0. -1.
        -13    1    4    4    0    0  0.66499413015E+02  0.28488402142E+02 -0.18927237695E+03  0.20262722834E+03  0.00000000000E+00 0.  1.
         14    1    4    4    0    0  0.18455265126E+02 -0.28183981275E+02 -0.27168360379E+02  0.43278787149E+02  0.00000000000E+00 0. -1.
         -5    1    5    5    0  502 -0.14502159380E+03 -0.59117450155E+02 -0.18221762363E+03  0.24031539265E+03  0.47000000000E+01 0.  1.
         13    1    6    6    0    0 -0.35368553180E+02 -0.28256332230E+02 -0.46476793870E+02  0.64880253032E+02  0.00000000000E+00 0. -1.
        -14    1    6    6    0    0  0.17181263868E+02  0.23177271274E+02  0.26605775317E+01  0.28973443092E+02  0.00000000000E+00 0.  1.
</event>
<event>
12    1  0.1623092E-001  0.1755483E+03  0.7818608E-02  0.1172340E+00
         21   -1    0    0  503  502  0.00000000000E+00  0.00000000000E+00  0.20632264867E+03  0.20632264867E+03  0.00000000000E+00 0. -1.
         21   -1    0    0  501  503 -0.00000000000E+00 -0.00000000000E+00 -0.24964985934E+03  0.24964985934E+03  0.00000000000E+00 0. -1.
          6    2    1    2  501    0 -0.29842622928E+02 -0.11599454011E+02 -0.16652303174E+03  0.24150942156E+03  0.17196438911E+03 0.  0.
         24    2    3    3    0    0  0.36033484863E+02  0.16505632915E+02 -0.43429071356E+02  0.99018121569E+02  0.79672179655E+02 0.  0.
         -6    2    1    2    0  502  0.29842622928E+02  0.11599454011E+02  0.12319582106E+03  0.21446308645E+03  0.17260381122E+03 0.  0.
        -24    2    5    5    0    0 -0.21926928103E+02 -0.45828615359E+02  0.89953637836E+02  0.13017072434E+03  0.79194118171E+02 0.  0.
          5    1    3    3  501    0 -0.65876107790E+02 -0.28105086926E+02 -0.12309396038E+03  0.14249129999E+03  0.47000000000E+01 0. -1.
        -13    1    4    4    0    0 -0.84390716193E+00  0.42225170995E+02 -0.30943619879E+02  0.52356325845E+02  0.00000000000E+00 0.  1.
         14    1    4    4    0    0  0.36877392024E+02 -0.25719538080E+02 -0.12485451477E+02  0.46661795723E+02  0.00000000000E+00 0. -1.
         -5    1    5    5    0  502  0.51769551030E+02  0.57428069370E+02  0.33242183226E+02  0.84292362116E+02  0.47000000000E+01 0.  1.
         11    1    6    6    0    0  0.17122181151E+02 -0.21352267428E+02  0.77851160678E+02  0.82522067537E+02  0.00000000000E+00 0. -1.
        -12    1    6    6    0    0 -0.39049109254E+02 -0.24476347931E+02  0.12102477158E+02  0.47648656801E+02  0.00000000000E+00 0.  1.
</event>
<event>
12    1  0.1623092E-001  0.1940003E+03  0.7818608E-02  0.1154968E+00
         21   -1    0    0  501  502  0.00000000000E+00  0.00000000000E+00  0.72622653181E+03  0.72622653181E+03  0.00000000000E+00 0.  1.
         21   -1    0    0  502  503 -0.00000000000E+00 -0.00000000000E+00 -0.91739362602E+02  0.91739362602E+02  0.00000000000E+00 0.  1.
         -6    2    1    2    0  503  0.72874713426E+02 -0.52192859068E+02  0.47061628912E+02  0.19933442728E+03  0.17171079928E+03 0.  0.
        -24    2    3    3    0    0  0.82825921730E+02 -0.62686903593E+02  0.86126430878E+02  0.15741426185E+03  0.81066062844E+02 0.  0.
          6    2    1    2  501    0 -0.72874713426E+02  0.52192859068E+02  0.58742554030E+03  0.61863146713E+03  0.17205030758E+03 0.  0.
         24    2    5    5    0    0 -0.58898370584E+02  0.42034132436E+02  0.17131696600E+03  0.20213780153E+03  0.79210489328E+02 0.  0.
          5    1    5    5  501    0 -0.13976342842E+02  0.10158726632E+02  0.41610857429E+03  0.41649366560E+03  0.47000000000E+01 0. -1.
        -13    1    6    6    0    0  0.40948647610E+01 -0.18607152477E+00  0.93116224598E+02  0.93206404412E+02  0.00000000000E+00 0.  1.
         14    1    6    6    0    0 -0.62993235345E+02  0.42220203960E+02  0.78200741406E+02  0.10893139712E+03  0.00000000000E+00 0. -1.
         -5    1    3    3    0  503 -0.99512083047E+01  0.10494044525E+02 -0.39064801966E+02  0.41920165432E+02  0.47000000000E+01 0.  1.
         11    1    4    4    0    0  0.21108991688E+02 -0.57086177158E+02  0.71204866844E+02  0.93672590521E+02  0.00000000000E+00 0. -1.
        -12    1    4    4    0    0  0.61716930043E+02 -0.56007264355E+01  0.14921564033E+02  0.63741671328E+02  0.00000000000E+00 0.  1.
</event>
<event>
12    1  0.1623092E-001  0.2856411E+03  0.7818608E-02  0.1092677E+00
         21   -1    0    0  503  502  0.00000000000E+00  0.00000000000E+00  0.18365668327E+03  0.18365668327E+03  0.00000000000E+00 0.  1.
         21   -1    0    0  501  503 -0.00000000000E+00 -0.00000000000E+00 -0.48516759412E+03  0.48516759412E+03  0.00000000000E+00 0.  1.
          6    2    1    2  501    0  0.17701801441E+03 -0.14252358645E+03 -0.53175563117E+02  0.29032555485E+03  0.17266423245E+03 0.  0.
         24    2    3    3    0    0  0.57015997776E+02 -0.12858368020E+03 -0.23903665837E+02  0.16593207049E+03  0.84720009208E+02 0.  0.
         -6    2    1    2    0  502 -0.17701801441E+03  0.14252358645E+03 -0.24833534773E+03  0.37849872253E+03  0.17303897799E+03 0.  0.
        -24    2    5    5    0    0 -0.33145740818E+02  0.78620962907E+02 -0.15746844989E+03  0.19667006823E+03  0.81258273929E+02 0.  0.
          5    1    3    3  501    0  0.12000201663E+03 -0.13939906250E+02 -0.29271897280E+02  0.12439348436E+03  0.47000000000E+01 0. -1.
        -13    1    4    4    0    0  0.71537212818E+02 -0.62204789338E+02 -0.24752719102E+02  0.97978088047E+02  0.00000000000E+00 0.  1.
         14    1    4    4    0    0 -0.14521215042E+02 -0.66378890862E+02  0.84905326560E+00  0.67953982443E+02  0.00000000000E+00 0. -1.
         -5    1    5    5    0  502 -0.14387227359E+03  0.63902623543E+02 -0.90866897841E+02  0.18182865430E+03  0.47000000000E+01 0.  1.
         11    1    6    6    0    0 -0.26113301185E+02 -0.97023583503E+01 -0.51400946734E+02  0.58464498471E+02  0.00000000000E+00 0. -1.
        -12    1    6    6    0    0 -0.70324396330E+01  0.88323321257E+02 -0.10606750316E+03  0.13820556975E+03  0.00000000000E+00 0.  1.
</event>
<event>
12    1  0.1623092E-001  0.2294699E+03  0.7818608E-02  0.1127344E+00
         21   -1    0    0  501  502  0.00000000000E+00  0.00000000000E+00  0.72787600074E+03  0.72787600074E+03  0.00000000000E+00 0. -1.
         21   -1    0    0  502  503 -0.00000000000E+00 -0.00000000000E+00 -0.21338932899E+03  0.21338932899E+03  0.00000000000E+00 0.  1.
         -6    2    1    2    0  503  0.12689106190E+03 -0.78324971769E+02 -0.12653080517E+03  0.26041304928E+03  0.17195571751E+03 0.  0.
        -24    2    3    3    0    0  0.61714658499E+02 -0.21671875412E+01 -0.43408718463E+01  0.10229777024E+03  0.81440744425E+02 0.  0.
          6    2    1    2  501    0 -0.12689106190E+03  0.78324971769E+02  0.64101747691E+03  0.68085228046E+03  0.17441410294E+03 0.  0.
         24    2    5    5    0    0 -0.37965131159E+02  0.65776526460E+02  0.18366900855E+03  0.21474607351E+03  0.81324466005E+02 0.  0.
          5    1    5    5  501    0 -0.88925930744E+02  0.12548445308E+02  0.45734846836E+03  0.46610620694E+03  0.47000000000E+01 0. -1.
        -13    1    6    6    0    0  0.12273035137E+02  0.27320014742E+01 -0.16229842127E+01  0.12677748274E+02  0.00000000000E+00 0.  1.
         14    1    6    6    0    0 -0.50238166296E+02  0.63044524986E+02  0.18529199276E+03  0.20206832524E+03  0.00000000000E+00 0. -1.
         -5    1    3    3    0  503  0.65176403404E+02 -0.76157784228E+02 -0.12218993332E+03  0.15811527903E+03  0.47000000000E+01 0.  1.
         11    1    4    4    0    0  0.62348540125E+00 -0.31627510985E+02  0.95958955909E+01  0.33057062746E+02  0.00000000000E+00 0. -1.
        -12    1    4    4    0    0  0.61091173098E+02  0.29460323444E+02 -0.13936767437E+02  0.69240707496E+02  0.00000000000E+00 0.  1.
</event>
<event>
12    1  0.1623092E-001  0.1951392E+03  0.7818608E-02  0.1154248E+00
         21   -1    0    0  503  502  0.00000000000E+00  0.00000000000E+00  0.63057089555E+03  0.63057089555E+03  0.00000000000E+00 0. -1.
         21   -1    0    0  501  503 -0.00000000000E+00 -0.00000000000E+00 -0.60597657872E+02  0.60597657872E+02  0.00000000000E+00 0. -1.
          6    2    1    2  501    0 -0.51544046163E+02 -0.72550607538E+02  0.24691196696E+03  0.31374583360E+03  0.17190273215E+03 0.  0.
         24    2    3    3    0    0 -0.54270981517E+02  0.12806577365E+02  0.18254187436E+03  0.20669965659E+03  0.79333878509E+02 0.  0.
         -6    2    1    2    0  502  0.51544046163E+02  0.72550607538E+02  0.32306127072E+03  0.37742271983E+03  0.17366331062E+03 0.  0.
        -24    2    5    5    0    0 -0.15037601514E+02  0.15519367893E+02  0.91564934465E+02  0.12983774088E+03  0.89480285503E+02 0.  0.
          5    1    3    3  501    0  0.27269353547E+01 -0.85357184903E+02  0.64370092601E+02  0.10704617701E+03  0.47000000000E+01 0. -1.
        -11    1    4    4    0    0  0.27503835632E+01  0.18098771733E+02  0.12199458742E+03  0.12336048601E+03  0.00000000000E+00 0.  1.
         12    1    4    4    0    0 -0.57021365080E+02 -0.52921943672E+01  0.60547286934E+02  0.83339170574E+02  0.00000000000E+00 0. -1.
         -5    1    5    5    0  502  0.66581647676E+02  0.57031239644E+02  0.23149633625E+03  0.24758497895E+03  0.47000000000E+01 0.  1.
         13    1    6    6    0    0  0.73301894345E+01  0.27715395080E+02  0.99185678370E+02  0.10324569529E+03  0.00000000000E+00 0. -1.
        -14    1    6    6    0    0 -0.22367790948E+02 -0.12196027187E+02 -0.76207439053E+01  0.26592045591E+02  0.00000000000E+00 0.  1.
</event>
<event>
12    1  0.1623092E-001  0.2070175E+03  0.7818608E-02  0.1144233E+00
         21   -1    0    0  501  502  0.00000000000E+00  0.00000000000E+00  0.11531090090E+03  0.11531090090E+03  0.00000000000E+00 0. -1.
         21   -1    0    0  502  503 -0.00000000000E+00 -0.00000000000E+00 -0.48217318262E+03  0.48217318262E+03  0.00000000000E+00 0. -1.
         -6    2    1    2    0  503  0.96873439122E+02 -0.60036683587E+02 -0.32759221715E+03  0.38677486230E+03  0.17114107277E+03 0.  0.
        -24    2    3    3    0    0  0.12673168447E+03 -0.43953386632E+02 -0.19671227931E+03  0.25149058611E+03  0.80987493012E+02 0.  0.
          6    2    1    2  501    0 -0.96873439122E+02  0.60036683587E+02 -0.39270064580E+02  0.21070922122E+03  0.17282179073E+03 0.  0.
         24    2    5    5    0    0 -0.34893700274E+02  0.36290389095E+02  0.42657208672E+02  0.10516518950E+03  0.81887221051E+02 0.  0.
          5    1    5    5  501    0 -0.61979738848E+02  0.23746294491E+02 -0.81927273251E+02  0.10554403172E+03  0.47000000000E+01 0. -1.
        -11    1    6    6    0    0 -0.38351836576E+02 -0.16293729531E+02  0.89817616325E+01  0.42626529683E+02  0.00000000000E+00 0.  1.
         12    1    6    6    0    0  0.34581363019E+01  0.52584118627E+02  0.33675447039E+02  0.62538659817E+02  0.00000000000E+00 0. -1.
         -5    1    3    3    0  503 -0.29858245350E+02 -0.16083296955E+02 -0.13087993784E+03  0.13528427619E+03  0.47000000000E+01 0.  1.
         11    1    4    4    0    0 -0.13635466074E+01 -0.27154573194E+02 -0.28459654835E+02  0.39359650125E+02  0.00000000000E+00 0. -1.
        -12    1    4    4    0    0  0.12809523108E+03 -0.16798813438E+02 -0.16825262447E+03  0.21213093598E+03  0.00000000000E+00 0.  1.
</event>
<event>
12    1  0.1623092E-001  0.1980063E+03  0.7818608E-02  0.1151677E+00
         21   -1    0    0  503  502  0.00000000000E+00  0.00000000000E+00  0.12048795543E+04  0.12048795543E+04  0.00000000000E+00 0. -1.
         21   -1    0    0  501  503 -0.00000000000E+00 -0.00000000000E+00 -0.10861153033E+03  0.10861153033E+03  0.00000000000E+00 0. -1.
          6    2    1    2  501    0 -0.94477034829E+01  0.96871074911E+02 -0.17003699773E+01  0.19801359058E+03  0.17243325242E+03 0.  0.
         24    2    3    3    0    0 -0.41881391545E+02  0.14570261175E+02  0.40390111408E+02  0.99936749858E+02  0.79935282598E+02 0.  0.
         -6    2    1    2    0  502  0.94477034829E+01 -0.96871074911E+02  0.10979683939E+04  0.11154774940E+04  0.17112037100E+03 0.  0.
        -24    2    5    5    0    0  0.23272827186E+01  0.11865778310E+02  0.61181332369E+03  0.61723734515E+03  0.80747657942E+02 0.  0.
          5    1    3    3  501    0  0.32433688062E+02  0.82300813736E+02 -0.42090481386E+02  0.98076840723E+02  0.47000000000E+01 0. -1.
        -13    1    4    4    0    0 -0.14596051858E+01 -0.25436369678E+02  0.34317202066E+02  0.42741194501E+02  0.00000000000E+00 0.  1.
         14    1    4    4    0    0 -0.40421786360E+02  0.40006630853E+02  0.60729093424E+01  0.57195555357E+02  0.00000000000E+00 0. -1.
         -5    1    5    5    0  502  0.71204207643E+01 -0.10873685322E+03  0.48615507024E+03  0.49824014889E+03  0.47000000000E+01 0.  1.
         11    1    6    6    0    0 -0.25970945410E+01  0.14834801521E+02  0.18318340769E+02  0.23714507053E+02  0.00000000000E+00 0. -1.
        -12    1    6    6    0    0  0.49243772596E+01 -0.29690232114E+01  0.59349498292E+03  0.59352283810E+03  0.00000000000E+00 0.  1.
</event>
<event>
12    1  0.1623092E-001  0.1875671E+03  0.7818608E-02  0.1160890E+00
         21   -1    0    0  503  502  0.00000000000E+00  0.00000000000E+00  0.42003014832E+03  0.42003014832E+03  0.00000000000E+00 0.  1.
         21   -1    0    0  501  503 -0.00000000000E+00 -0.00000000000E+00 -0.20202462015E+03  0.20202462015E+03  0.00000000000E+00 0.  1.
          6    2    1    2  501    0  0.97122273840E+01  0.70325822178E+02 -0.12950122750E+03  0.22715940726E+03  0.17260005723E+03 0.  0.
         24    2    3    3    0    0  0.57589091450E+01 -0.27789589946E+02 -0.81137608557E+02  0.11759941247E+03  0.80255117884E+02 0.  0.
         -6    2    1    2    0  502 -0.97122273840E+01 -0.70325822178E+02  0.34750675568E+03  0.39489536121E+03  0.17361265058E+03 0.  0.
        -24    2    5    5    0    0 -0.65048569524E+02 -0.75540242138E+02  0.25652770799E+03  0.28817808025E+03  0.85454645244E+02 0.  0.
          5    1    3    3  501    0  0.39533182390E+01  0.98115412124E+02 -0.48363618943E+02  0.10955999479E+03  0.47000000000E+01 0. -1.
        -11    1    4    4    0    0  0.31072382120E+02 -0.32429711251E+02 -0.80113055961E+02  0.91843784971E+02  0.00000000000E+00 0.  1.
         12    1    4    4    0    0 -0.25313472975E+02  0.46401213050E+01 -0.10245525963E+01  0.25755627497E+02  0.00000000000E+00 0. -1.
         -5    1    5    5    0  502  0.55336342140E+02  0.52144199599E+01  0.90979047692E+02  0.10671728096E+03  0.47000000000E+01 0.  1.
         13    1    6    6    0    0 -0.67231215553E+02 -0.76789647759E+02  0.14890106925E+03  0.18052206173E+03  0.00000000000E+00 0. -1.
        -14    1    6    6    0    0  0.21826460285E+01  0.12494056217E+01  0.10762663874E+03  0.10765601852E+03  0.00000000000E+00 0.  1.
</event>
<event>
12    1  0.1623092E-001  0.2431269E+03  0.7818608E-02  0.1117833E+00
         21   -1    0    0  503  502  0.00000000000E+00  0.00000000000E+00  0.55296976323E+03  0.55296976323E+03  0.00000000000E+00 0. -1.
         21   -1    0    0  501  503 -0.00000000000E+00 -0.00000000000E+00 -0.10773166229E+03  0.10773166229E+03  0.00000000000E+00 0. -1.
          6    2    1    2  501    0 -0.12986619757E+03  0.11239897128E+03  0.18924690829E+03  0.30809913610E+03  0.17208116502E+03 0.  0.
         24    2    3    3    0    0 -0.25534178993E+02  0.10110352717E+03  0.63499988516E+02  0.14424818252E+03  0.76820388665E+02 0.  0.
         -6    2    1    2    0  502  0.12986619757E+03 -0.11239897128E+03  0.25599119265E+03  0.35260228942E+03  0.17116695292E+03 0.  0.
        -24    2    5    5    0    0  0.72423173208E+02 -0.37810558254E+02  0.22553675304E+03  0.25354323987E+03  0.82113294760E+02 0.  0.
          5    1    3    3  501    0 -0.10433201858E+03  0.11295444105E+02  0.12574691977E+03  0.16385095358E+03  0.47000000000E+01 0. -1.
        -13    1    4    4    0    0  0.98728746464E+01  0.60850918762E+01  0.37943336593E+02  0.39676174068E+02  0.00000000000E+00 0.  1.
         14    1    4    4    0    0 -0.35407053639E+02  0.95018435299E+02  0.25556651923E+02  0.10457200845E+03  0.00000000000E+00 0. -1.
         -5    1    5    5    0  502  0.57443024365E+02 -0.74588413026E+02  0.30454439609E+02  0.99059049550E+02  0.47000000000E+01 0.  1.
         13    1    6    6    0    0  0.77238332809E+02 -0.11700534658E+01  0.13156949199E+03  0.15257018156E+03  0.00000000000E+00 0. -1.
        -14    1    6    6    0    0 -0.48151596011E+01 -0.36640504788E+02  0.93967261057E+02  0.10097305831E+03  0.00000000000E+00 0.  1.
</event>
<event>
12    1  0.1623092E-001  0.1952400E+03  0.7818608E-02  0.1153938E+00
         21   -1    0    0  503  502  0.00000000000E+00  0.00000000000E+00  0.10785399443E+03  0.10785399443E+03  0.00000000000E+00 0. -1.
         21   -1    0    0  501  503 -0.00000000000E+00 -0.00000000000E+00 -0.58531465384E+03  0.58531465384E+03  0.00000000000E+00 0. -1.
          6    2    1    2  501    0 -0.87901624698E+02 -0.28401903704E+02 -0.20317467563E+02  0.19629432870E+03  0.17200377970E+03 0.  0.
         24    2    3    3    0    0 -0.81203801304E+02  0.44238132791E+02 -0.19248107246E+02  0.12318708370E+03  0.79079063081E+02 0.  0.
         -6    2    1    2    0  502  0.87901624698E+02  0.28401903704E+02 -0.45714319184E+03  0.49687431957E+03  0.17137919313E+03 0.  0.
        -24    2    5    5    0    0 -0.11786586366E+02  0.45993585887E+02 -0.20889172802E+03  0.22873613505E+03  0.80188103114E+02 0.  0.
          5    1    3    3  501    0 -0.66978233933E+01 -0.72640036495E+02 -0.10693603171E+01  0.73107245001E+02  0.47000000000E+01 0. -1.
        -11    1    4    4    0    0 -0.62107121644E+02  0.69330915249E+01 -0.42198049776E+02  0.75405820212E+02  0.00000000000E+00 0.  1.
         12    1    4    4    0    0 -0.19096679661E+02  0.37305041266E+02  0.22949942530E+02  0.47781263483E+02  0.00000000000E+00 0. -1.
         -5    1    5    5    0  502  0.99688211063E+02 -0.17591682183E+02 -0.24825146382E+03  0.26813818452E+03  0.47000000000E+01 0.  1.
         11    1    6    6    0    0 -0.27462652607E+02  0.19938388183E+02 -0.18984810435E+03  0.19285756230E+03  0.00000000000E+00 0. -1.
        -12    1    6    6    0    0  0.15676066241E+02  0.26055197704E+02 -0.19043623680E+02  0.35878572757E+02  0.00000000000E+00 0.  1.
</event>
<event>
12    1  0.1623092E-001  0.3109883E+03  0.7818608E-02  0.1079882E+00
         21   -1    0    0  501  502  0.00000000000E+00  0.00000000000E+00  0.67431142481E+03  0.67431142481E+03  0.00000000000E+00 0.  1.
         21   -1    0    0  502  503 -0.00000000000E+00 -0.00000000000E+00 -0.25607454426E+03  0.25607454426E+03  0.00000000000E+00 0. -1.
         -6    2    1    2    0  503  0.19629590257E+03 -0.16814699699E+03 -0.99455326372E+02  0.32650436768E+03  0.17294000753E+03 0.  0.
        -24    2    3    3    0    0  0.20056136039E+03 -0.12337556989E+03 -0.12036039510E+03  0.27668683348E+03  0.81379288426E+02 0.  0.
          6    2    1    2  501    0 -0.19629590257E+03  0.16814699699E+03  0.51769220692E+03  0.60388160139E+03  0.17280704102E+03 0.  0.
         24    2    5    5    0    0 -0.21004446878E+03  0.15823328670E+03  0.51879618196E+03  0.58625737132E+03  0.73428707766E+02 0.  0.
          5    1    5    5  501    0  0.13748566210E+02  0.99137102886E+01 -0.11039750421E+01  0.17624230066E+02  0.47000000000E+01 0. -1.
        -11    1    6    6    0    0 -0.64879218393E+02  0.93748716787E+02  0.20626158555E+03  0.23567345322E+03  0.00000000000E+00 0.  1.
         12    1    6    6    0    0 -0.14516525039E+03  0.64484569911E+02  0.31253459641E+03  0.35058391810E+03  0.00000000000E+00 0. -1.
         -5    1    3    3    0  503 -0.42654578192E+01 -0.44771427099E+02  0.20905068727E+02  0.49817534196E+02  0.47000000000E+01 0.  1.
         13    1    4    4    0    0  0.33843534483E+02 -0.13579791421E+02 -0.56219944648E+02  0.67011026985E+02  0.00000000000E+00 0. -1.
        -14    1    4    4    0    0  0.16671782591E+03 -0.10979577847E+03 -0.64140450451E+02  0.20967580649E+03  0.00000000000E+00 0.  1.
</event>
<event>
12    1  0.1623092E-001  0.1884406E+03  0.7818608E-02  0.1159957E+00
         21   -1    0    0  503  502  0.00000000000E+00  0.00000000000E+00  0.78354592701E+02  0.78354592701E+02  0.00000000000E+00 0.  1.
         21   -1    0    0  501  503 -0.00000000000E+00 -0.00000000000E+00 -0.46706154292E+03  0.46706154292E+03  0.00000000000E+00 0. -1.
          6    2    1    2  501    0 -0.44843656088E+02  0.62031086454E+02 -0.14575203200E+03  0.23794752109E+03  0.17180383809E+03 0.  0.
         24    2    3    3    0    0 -0.54581990659E+02  0.20954279445E+02 -0.14268377560E+02  0.99773063901E+02  0.79578905186E+02 0.  0.
         -6    2    1    2    0  502  0.44843656088E+02 -0.62031086454E+02 -0.24295491822E+03  0.30746861453E+03  0.17219479510E+03 0.  0.
        -24    2    5    5    0    0 -0.80185565678E+01  0.15288686733E+02 -0.17145727247E+03  0.18954167020E+03  0.78932928916E+02 0.  0.
          5    1    3    3  501    0  0.97383345711E+01  0.41076807008E+02 -0.13148365444E+03  0.13817445719E+03  0.47000000000E+01 0. -1.
        -13    1    4    4    0    0  0.19345960328E+02  0.67488459038E+01 -0.13410398054E+02  0.24487790387E+02  0.00000000000E+00 0.  1.
         14    1    4    4    0    0 -0.73927950987E+02  0.14205433542E+02 -0.85797950667E+00  0.75285273514E+02  0.00000000000E+00 0. -1.
         -5    1    5    5    0  502  0.52862212656E+02 -0.77319773187E+02 -0.71497645749E+02  0.11792694433E+03  0.47000000000E+01 0.  1.
         13    1    6    6    0    0 -0.69260301519E+01 -0.28859350434E+02 -0.33833123074E+02  0.45005690952E+02  0.00000000000E+00 0. -1.
        -14    1    6    6    0    0 -0.10925264159E+01  0.44148037167E+02 -0.13762414939E+03  0.14453597924E+03  0.00000000000E+00 0.  1.
</event>
<event>
12    1  0.1623092E-001  0.1724751E+03  0.7818608E-02  0.1176412E+00
         21   -1    0    0  503  502  0.00000000000E+00  0.00000000000E+00  0.28610709133E+03  0.28610709133E+03  0.00000000000E+00 0. -1.
         21   -1    0    0  501  503 -0.00000000000E+00 -0.00000000000E+00 -0.20127860700E+03  0.20127860700E+03  0.00000000000E+00 0. -1.
          6    2    1    2  501    0 -0.17941952926E+02 -0.96906478860E+00 -0.12952688601E+03  0.21225686437E+03  0.16719123634E+03 0.  0.
         24    2    3    3    0    0  0.40441744361E+02  0.34037172011E+02 -0.70473942803E+02  0.12201589349E+03  0.84422970120E+02 0.  0.
         -6    2    1    2    0  502  0.17941952926E+02  0.96906478860E+00  0.21435537034E+03  0.27512883396E+03  0.17153657838E+03 0.  0.
        -24    2    5    5    0    0  0.23716802570E+02 -0.26548855561E+02  0.22745194641E+03  0.24375694952E+03  0.80098277484E+02 0.  0.
          5    1    3    3  501    0 -0.58383697287E+02 -0.35006236800E+02 -0.59052943210E+02  0.90240970881E+02  0.47000000000E+01 0. -1.
        -13    1    4    4    0    0 -0.23937201324E+02  0.23393988891E+02 -0.16413408538E+02  0.37278255100E+02  0.00000000000E+00 0.  1.
         14    1    4    4    0    0  0.64378945685E+02  0.10643183120E+02 -0.54060534265E+02  0.84737638387E+02  0.00000000000E+00 0. -1.
         -5    1    5    5    0  502 -0.57748496441E+01  0.27517920350E+02 -0.13096576070E+02  0.31371884444E+02  0.47000000000E+01 0.  1.
         13    1    6    6    0    0  0.25978177980E+01  0.16704205264E+02  0.16000772706E+03  0.16089826553E+03  0.00000000000E+00 0. -1.
        -14    1    6    6    0    0  0.21118984772E+02 -0.43253060826E+02  0.67444219349E+02  0.82858683988E+02  0.00000000000E+00 0.  1.
</event>
<event>
12    1  0.1623092E-001  0.2086706E+03  0.7818608E-02  0.1143161E+00
         21   -1    0    0  501  502  0.00000000000E+00  0.00000000000E+00  0.71573981569E+03  0.71573981569E+03  0.00000000000E+00 0.  1.
         21   -1    0    0  502  503 -0.00000000000E+00 -0.00000000000E+00 -0.98854669865E+02  0.98854669865E+02  0.00000000000E+00 0. -1.
         -6    2    1    2    0  503 -0.98620139594E+02 -0.57752658468E+02  0.52078708978E+02  0.21247345828E+03  0.17138108720E+03 0.  0.
        -24    2    3    3    0    0 -0.65217742960E+02 -0.11799216843E+01  0.89322922221E+02  0.13680697912E+03  0.80515954253E+02 0.  0.
          6    2    1    2  501    0  0.98620139594E+02  0.57752658468E+02  0.56480643685E+03  0.60212102728E+03  0.17459129100E+03 0.  0.
         24    2    5    5    0    0  0.94264991109E+02 -0.24273736955E+02  0.31491917673E+03  0.33903733407E+03  0.79354414908E+02 0.  0.
          5    1    5    5  501    0  0.43551484852E+01  0.82026395423E+02  0.24988726011E+03  0.26308369321E+03  0.47000000000E+01 0. -1.
        -11    1    6    6    0    0  0.41977684062E+02 -0.22922594338E+02  0.25523423811E+03  0.25967689075E+03  0.00000000000E+00 0.  1.
         12    1    6    6    0    0  0.52287307046E+02 -0.13511426162E+01  0.59684938629E+02  0.79360443318E+02  0.00000000000E+00 0. -1.
         -5    1    3    3    0  503 -0.33402396634E+02 -0.56572736784E+02 -0.37244213243E+02  0.75666479158E+02  0.47000000000E+01 0.  1.
         13    1    4    4    0    0 -0.26421824079E+01 -0.18610107398E+02 -0.74792469935E+01  0.20230085536E+02  0.00000000000E+00 0. -1.
        -14    1    4    4    0    0 -0.62575560552E+02  0.17430185713E+02  0.96802169214E+02  0.11657689358E+03  0.00000000000E+00 0.  1.
</event>
<event>
12    1  0.1623092E-001  0.2985272E+03  0.7818608E-02  0.1086005E+00
         21   -1    0    0  501  502  0.00000000000E+00  0.00000000000E+00  0.28911559159E+03  0.28911559159E+03  0.00000000000E+00 0. -1.
         21   -1    0    0  502  503 -0.00000000000E+00 -0.00000000000E+00 -0.82357576927E+03  0.82357576927E+03  0.00000000000E+00 0.  1.
         -6    2    1    2    0  503  0.21796529701E+03 -0.10923958436E+03 -0.70744113627E+03  0.76784859767E+03  0.17226825058E+03 0.  0.
        -24    2    3    3    0    0  0.19854021899E+03 -0.78858149887E+02 -0.41811514307E+03  0.47624615330E+03  0.79707586287E+02 0.  0.
          6    2    1    2  501    0 -0.21796529701E+03  0.10923958436E+03  0.17298095859E+03  0.34484276319E+03  0.17190684048E+03 0.  0.
         24    2    5    5    0    0 -0.12918699903E+03  0.60276265614E+02  0.88238914787E+01  0.15184373352E+03  0.51537844663E+02 0.  0.
          5    1    5    5  501    0 -0.88778297976E+02  0.48963318743E+02  0.16415706711E+03  0.19299902967E+03  0.47000000000E+01 0. -1.
        -13    1    6    6    0    0 -0.40089234228E+02 -0.37825333053E+01  0.12141108872E+02  0.42057826666E+02  0.00000000000E+00 0.  1.
         14    1    6    6    0    0 -0.89097764804E+02  0.64058798920E+02 -0.33172173932E+01  0.10978590685E+03  0.00000000000E+00 0. -1.
         -5    1    3    3    0  503  0.19425078023E+02 -0.30381434470E+02 -0.28932599320E+03  0.29160244436E+03  0.47000000000E+01 0.  1.
         13    1    4    4    0    0  0.59571749621E+02  0.11223583644E+02 -0.87166709605E+02  0.10617343098E+03  0.00000000000E+00 0. -1.
        -14    1    4    4    0    0  0.13896846936E+03 -0.90081733532E+02 -0.33094843347E+03  0.37007272232E+03  0.00000000000E+00 0.  1.
</event>
<event>
12    1  0.1623092E-001  0.2065346E+03  0.7818608E-02  0.1144778E+00
         21   -1    0    0  503  502  0.00000000000E+00  0.00000000000E+00  0.47627982256E+03  0.47627982256E+03  0.00000000000E+00 0. -1.
         21   -1    0    0  501  503 -0.00000000000E+00 -0.00000000000E+00 -0.92842883558E+02  0.92842883558E+02  0.00000000000E+00 0.  1.
          6    2    1    2  501    0 -0.10497389268E+03  0.38395228600E+02  0.25329056721E+03  0.32682205132E+03  0.17367449458E+03 0.  0.
         24    2    3    3    0    0 -0.10952503134E+03  0.65249471276E+02  0.12203576079E+03  0.19268861991E+03  0.77349540004E+02 0.  0.
         -6    2    1    2    0  502  0.10497389268E+03 -0.38395228600E+02  0.13014637179E+03  0.24230065480E+03  0.17110761965E+03 0.  0.
        -24    2    5    5    0    0  0.82016961680E+02 -0.83159963254E+02  0.12960242114E+03  0.19177058423E+03  0.79604069736E+02 0.  0.
          5    1    3    3  501    0  0.45511386640E+01 -0.26854242675E+02  0.13125480642E+03  0.13413343141E+03  0.47000000000E+01 0. -1.
        -11    1    4    4    0    0 -0.32269384110E+02 -0.13872713182E+02  0.48514355964E+02  0.59894975219E+02  0.00000000000E+00 0.  1.
         12    1    4    4    0    0 -0.77255647230E+02  0.79122184458E+02  0.73521404821E+02  0.13279364469E+03  0.00000000000E+00 0. -1.
         -5    1    5    5    0  502  0.22956930997E+02  0.44764734653E+02  0.54395065012E+00  0.50530070569E+02  0.47000000000E+01 0.  1.
         11    1    6    6    0    0  0.78934013553E+02 -0.49883889437E+02  0.12783415871E+03  0.15830525277E+03  0.00000000000E+00 0. -1.
        -12    1    6    6    0    0  0.30829481265E+01 -0.33276073817E+02  0.17682624313E+01  0.33465331462E+02  0.00000000000E+00 0.  1.
</event>
<event>
12    1  0.1623092E-001  0.2157239E+03  0.7818608E-02  0.1137650E+00
         21   -1    0    0  501  502  0.00000000000E+00  0.00000000000E+00  0.30191731809E+03  0.30191731809E+03  0.00000000000E+00 0.  1.
         21   -1    0    0  502  503 -0.00000000000E+00 -0.00000000000E+00 -0.21427420790E+03  0.21427420790E+03  0.00000000000E+00 0. -1.
         -6    2    1    2    0  503  0.94770303397E+02  0.84549682643E+02 -0.94947873919E+02  0.23569453784E+03  0.17437533416E+03 0.  0.
        -24    2    3    3    0    0  0.89881382643E+02  0.12340205047E+03 -0.63504550593E+02  0.18525466657E+03  0.83544805554E+02 0.  0.
          6    2    1    2  501    0 -0.94770303397E+02 -0.84549682643E+02  0.18259098411E+03  0.28049698815E+03  0.17090650555E+03 0.  0.
         24    2    5    5    0    0 -0.10068082560E+03 -0.10947302122E+03  0.10910638673E+03  0.20253428468E+03  0.83635888403E+02 0.  0.
          5    1    5    5  501    0  0.59105221981E+01  0.24923338579E+02  0.73484597389E+02  0.77962703468E+02  0.47000000000E+01 0. -1.
        -13    1    6    6    0    0 -0.90283771341E+02 -0.39588096389E+02  0.76170684010E+02  0.12458069612E+03  0.00000000000E+00 0.  1.
         14    1    6    6    0    0 -0.10397054254E+02 -0.69884924833E+02  0.32935702715E+02  0.77953588560E+02  0.00000000000E+00 0. -1.
         -5    1    3    3    0  503  0.48889207546E+01 -0.38852367825E+02 -0.31443323326E+02  0.50439871268E+02  0.47000000000E+01 0.  1.
         13    1    4    4    0    0 -0.24207969562E+01  0.35342176680E+02  0.11528922896E+02  0.37253802135E+02  0.00000000000E+00 0. -1.
        -14    1    4    4    0    0  0.92302179599E+02  0.88059873788E+02 -0.75033473488E+02  0.14800086444E+03  0.00000000000E+00 0.  1.
</event>
<event>
12    1  0.1623092E-001  0.2411140E+03  0.7818608E-02  0.1119469E+00
         21   -1    0    0  503  502  0.00000000000E+00  0.00000000000E+00  0.86267764285E+03  0.86267764285E+03  0.00000000000E+00 0. -1.
         21   -1    0    0  501  503 -0.00000000000E+00 -0.00000000000E+00 -0.81485962010E+02  0.81485962010E+02  0.00000000000E+00 0. -1.
          6    2    1    2  501    0 -0.78612725355E+02 -0.14658643866E+03  0.59339239249E+03  0.64050799867E+03  0.17455205613E+03 0.  0.
         24    2    3    3    0    0 -0.99740928943E+02 -0.64050239591E+02  0.26087206069E+03  0.29721441264E+03  0.78939780428E+02 0.  0.
         -6    2    1    2    0  502  0.78612725355E+02  0.14658643866E+03  0.18779928834E+03  0.30365560619E+03  0.17108655669E+03 0.  0.
        -24    2    5    5    0    0  0.40699443889E+02  0.14534868998E+03  0.81184569969E+02  0.19039600568E+03  0.82927788874E+02 0.  0.
          5    1    3    3  501    0  0.21128203588E+02 -0.82536199074E+02  0.33252033180E+03  0.34329358603E+03  0.47000000000E+01 0. -1.
        -11    1    4    4    0    0 -0.78113584213E+02 -0.35816823551E+01  0.14325771756E+03  0.16320947928E+03  0.00000000000E+00 0.  1.
         12    1    4    4    0    0 -0.21627344730E+02 -0.60468557236E+02  0.11761434313E+03  0.13400493336E+03  0.00000000000E+00 0. -1.
         -5    1    5    5    0  502  0.37913281466E+02  0.12377486876E+01  0.10661471838E+03  0.11325960051E+03  0.47000000000E+01 0.  1.
         11    1    6    6    0    0 -0.52924359888E+01  0.53560163843E+02  0.68249842527E+02  0.86918019045E+02  0.00000000000E+00 0. -1.
        -12    1    6    6    0    0  0.45991879878E+02  0.91788526134E+02  0.12934727442E+02  0.10347798664E+03  0.00000000000E+00 0.  1.
</event>
<event>
12    1  0.1623092E-001  0.1954834E+03  0.7818608E-02  0.1153773E+00
         21   -1    0    0  503  502  0.00000000000E+00  0.00000000000E+00  0.49255383028E+03  0.49255383028E+03  0.00000000000E+00 0. -1.
         21   -1    0    0  501  503 -0.00000000000E+00 -0.00000000000E+00 -0.77570917455E+02  0.77570917455E+02  0.00000000000E+00 0. -1.
          6    2    1    2  501    0 -0.23244532465E+02  0.85191968111E+02  0.19042151527E+03  0.27289945582E+03  0.17440120352E+03 0.  0.
         24    2    3    3    0    0  0.69856485812E+01  0.30068673939E+01  0.16364391377E+03  0.18120766465E+03  0.77453513000E+02 0.  0.
         -6    2    1    2    0  502  0.23244532465E+02 -0.85191968111E+02  0.22456139756E+03  0.29722529192E+03  0.17354271279E+03 0.  0.
        -24    2    5    5    0    0  0.51810779453E+02 -0.91826204540E+02  0.23237330758E+03  0.26651438998E+03  0.76916560493E+02 0.  0.
          5    1    3    3  501    0 -0.30230181046E+02  0.82185100717E+02  0.26777601504E+02  0.91691791172E+02  0.47000000000E+01 0. -1.
        -13    1    4    4    0    0  0.16141597016E+02 -0.13636312651E+02  0.53757353015E+01  0.21803639765E+02  0.00000000000E+00 0.  1.
         14    1    4    4    0    0 -0.91559484352E+01  0.16643180045E+02  0.15826817847E+03  0.15940402488E+03  0.00000000000E+00 0. -1.
         -5    1    5    5    0  502 -0.28566246988E+02  0.66342364289E+01 -0.78119100277E+01  0.30710901945E+02  0.47000000000E+01 0.  1.
         11    1    6    6    0    0  0.55835155230E+02 -0.35053732771E+02  0.16863266378E+03  0.18106160287E+03  0.00000000000E+00 0. -1.
        -12    1    6    6    0    0 -0.40243757766E+01 -0.56772471769E+02  0.63740643804E+02  0.85452787103E+02  0.00000000000E+00 0.  1.
</event>
<event>
12    1  0.1623092E-001  0.2278180E+03  0.7818608E-02  0.1128676E+00
         21   -1    0    0  501  502  0.00000000000E+00  0.00000000000E+00  0.84215389981E+02  0.84215389981E+02  0.00000000000E+00 0.  1.
         21   -1    0    0  502  503 -0.00000000000E+00 -0.00000000000E+00 -0.75144695812E+03  0.75144695812E+03  0.00000000000E+00 0. -1.
         -6    2    1    2    0  503  0.12596726072E+03 -0.81964288070E+02 -0.51395848219E+03  0.56108322441E+03  0.16755646214E+03 0.  0.
        -24    2    3    3    0    0 -0.41656514225E+01 -0.37694252039E+02 -0.18220391975E+03  0.20194872229E+03  0.78401586551E+02 0.  0.
          6    2    1    2  501    0 -0.12596726072E+03  0.81964288070E+02 -0.15327308595E+03  0.27457912369E+03  0.17121670771E+03 0.  0.
         24    2    5    5    0    0 -0.51156929763E+02  0.48458827391E+02 -0.58736984240E+01  0.10585487838E+03  0.78774777236E+02 0.  0.
          5    1    5    5  501    0 -0.74810330957E+02  0.33505460679E+02 -0.14739938752E+03  0.16872424531E+03  0.47000000000E+01 0. -1.
        -11    1    6    6    0    0 -0.61569590910E+02  0.50758775903E+02 -0.25286650022E+02  0.83705928854E+02  0.00000000000E+00 0.  1.
         12    1    6    6    0    0  0.10412661147E+02 -0.22999485123E+01  0.19412951598E+02  0.22148949525E+02  0.00000000000E+00 0. -1.
         -5    1    3    3    0  503  0.13013291214E+03 -0.44270036031E+02 -0.33175456244E+03  0.35913450212E+03  0.47000000000E+01 0.  1.
         11    1    4    4    0    0  0.34109050016E+02 -0.34043714496E+02 -0.11145356916E+03  0.12142610868E+03  0.00000000000E+00 0. -1.
        -12    1    4    4    0    0 -0.38274701439E+02 -0.36505375423E+01 -0.70750350591E+02  0.80522613615E+02  0.00000000000E+00 0.  1.
</event>
<event>
12    1  0.1623092E-001  0.1836200E+03  0.7818608E-02  0.1164646E+00
         21   -1    0    0  501  502  0.00000000000E+00  0.00000000000E+00  0.24702151947E+02  0.24702151947E+02  0.00000000000E+00 0.  1.
         21   -1    0    0  502  503 -0.00000000000E+00 -0.00000000000E+00 -0.24710387130E+04  0.24710387130E+04  0.00000000000E+00 0.  1.
         -6    2    1    2    0  503 -0.57460756401E+02  0.14521448669E+02 -0.20592839770E+04  0.20673415205E+04  0.17244666897E+03 0.  0.
        -24    2    3    3    0    0 -0.62936969631E+02 -0.17574304255E+02 -0.19609408010E+04  0.19636419712E+04  0.79567881269E+02 0.  0.
          6    2    1    2  501    0  0.57460756401E+02 -0.14521448669E+02 -0.38705258409E+03  0.42839934444E+03  0.17379207251E+03 0.  0.
         24    2    5    5    0    0  0.13648638182E+02  0.26456961806E+02 -0.33897191094E+03  0.35137614690E+03  0.87618400208E+02 0.  0.
          5    1    5    5  501    0  0.43812118219E+02 -0.40978410475E+02 -0.48080673152E+02  0.77023197536E+02  0.47000000000E+01 0. -1.
        -11    1    6    6    0    0 -0.35161924662E+02  0.66881926394E+01 -0.89202821113E+02  0.96115743566E+02  0.00000000000E+00 0.  1.
         12    1    6    6    0    0  0.48810562844E+02  0.19768769167E+02 -0.24976908982E+03  0.25526040334E+03  0.00000000000E+00 0. -1.
         -5    1    3    3    0  503  0.54762132293E+01  0.32095752924E+02 -0.98343175941E+02  0.10369954928E+03  0.47000000000E+01 0.  1.
         11    1    4    4    0    0  0.10315135632E+02  0.17248155760E+02 -0.26395207063E+03  0.26471606768E+03  0.00000000000E+00 0. -1.
        -12    1    4    4    0    0 -0.73252105263E+02 -0.34822460015E+02 -0.16969887304E+04  0.16989259035E+04  0.00000000000E+00 0.  1.
</event>
<event>
12    1  0.1623092E-001  0.1884538E+03  0.7818608E-02  0.1160741E+00
         21   -1    0    0  503  502  0.00000000000E+00  0.00000000000E+00  0.12403709577E+03  0.12403709577E+03  0.00000000000E+00 0. -1.
         21   -1    0    0  501  503 -0.00000000000E+00 -0.00000000000E+00 -0.31188345027E+03  0.31188345027E+03  0.00000000000E+00 0. -1.
          6    2    1    2  501    0  0.24328873071E+02  0.68238964521E+02 -0.16385184498E+03  0.24972438630E+03  0.17397238765E+03 0.  0.
         24    2    3    3    0    0  0.45951768039E+02 -0.18449639630E+02 -0.51635623817E+02  0.10620771838E+03  0.78497691743E+02 0.  0.
         -6    2    1    2    0  502 -0.24328873071E+02 -0.68238964521E+02 -0.23994509515E+02  0.18619615975E+03  0.16983763739E+03 0.  0.
        -24    2    5    5    0    0  0.41813042033E+02 -0.59401054249E+01 -0.25059719366E+02  0.95206460052E+02  0.81563871687E+02 0.  0.
          5    1    3    3  501    0 -0.21622894968E+02  0.86688604151E+02 -0.11221622116E+03  0.14351666791E+03  0.47000000000E+01 0. -1.
        -11    1    4    4    0    0 -0.15313298609E+02  0.13889747644E+02 -0.15700743187E+01  0.20733724636E+02  0.00000000000E+00 0.  1.
         12    1    4    4    0    0  0.61265066648E+02 -0.32339387274E+02 -0.50065549498E+02  0.85473993748E+02  0.00000000000E+00 0. -1.
         -5    1    5    5    0  502 -0.66141915104E+02 -0.62298859096E+02  0.10652098510E+01  0.90989699693E+02  0.47000000000E+01 0.  1.
         13    1    6    6    0    0  0.38729676857E+02  0.86294017577E+01  0.22330527718E+02  0.45531383817E+02  0.00000000000E+00 0. -1.
        -14    1    6    6    0    0  0.30833651755E+01 -0.14569507183E+02 -0.47390247083E+02  0.49675076235E+02  0.00000000000E+00 0.  1.
</event>
<event>
12    1  0.1623092E-001  0.2467716E+03  0.7818608E-02  0.1115497E+00
         21   -1    0    0  503  502  0.00000000000E+00  0.00000000000E+00  0.46556887572E+03  0.46556887572E+03  0.00000000000E+00 0.  1.
         21   -1    0    0  501  503 -0.00000000000E+00 -0.00000000000E+00 -0.16482573889E+03  0.16482573889E+03  0.00000000000E+00 0. -1.
          6    2    1    2  501    0 -0.11207480423E+03 -0.13621983778E+03  0.60264181127E+01  0.24600657576E+03  0.17136601662E+03 0.  0.
         24    2    3    3    0    0 -0.35306512471E+02 -0.21663665359E+02 -0.44467148503E+02  0.99077417560E+02  0.78250515363E+02 0.  0.
         -6    2    1    2    0  502  0.11207480423E+03  0.13621983778E+03  0.29471671871E+03  0.38438803885E+03  0.17256770896E+03 0.  0.
        -24    2    5    5    0    0  0.64507231243E+01  0.10421706093E+03  0.20345784358E+03  0.24110197350E+03  0.76369233922E+02 0.  0.
          5    1    3    3  501    0 -0.76768291757E+02 -0.11455617242E+03  0.50493566616E+02  0.14692915820E+03  0.47000000000E+01 0. -1.
        -13    1    4    4    0    0 -0.57306412111E+02 -0.34031443304E+00 -0.23428575989E+02  0.61911540571E+02  0.00000000000E+00 0.  1.
         14    1    4    4    0    0  0.21999899641E+02 -0.21323350926E+02 -0.21038572514E+02  0.37165876989E+02  0.00000000000E+00 0. -1.
         -5    1    5    5    0  502  0.10562408110E+03  0.32002776852E+02  0.91258875125E+02  0.14328606535E+03  0.47000000000E+01 0.  1.
         11    1    6    6    0    0  0.90310973201E+01  0.49970068139E+02  0.16975160689E+03  0.17718401866E+03  0.00000000000E+00 0. -1.
        -12    1    6    6    0    0 -0.25803741957E+01  0.54246992791E+02  0.33706236699E+02  0.63917954835E+02  0.00000000000E+00 0.  1.
</event>
<event>
12    1  0.1623092E-001  0.2973182E+03  0.7818608E-02  0.1086699E+00
         21   -1    0    0  501  502  0.00000000000E+00  0.00000000000E+00  0.19556552174E+04  0.19556552174E+04  0.00000000000E+00 0.  1.
         21   -1    0    0  502  503 -0.00000000000E+00 -0.00000000000E+00 -0.47267174019E+02  0.47267174019E+02  0.00000000000E+00 0. -1.
         -6    2    1    2    0  503  0.24119843452E+03  0.13090429699E+02  0.73689997811E+03  0.79429408031E+03  0.17185303055E+03 0.  0.
        -24    2    3    3    0    0  0.97102319549E+02 -0.49610707454E+02  0.28031828556E+03  0.31140273133E+03  0.80642650640E+02 0.  0.
          6    2    1    2  501    0 -0.24119843452E+03 -0.13090429699E+02  0.11714880653E+04  0.12086283111E+04  0.17334954045E+03 0.  0.
         24    2    5    5    0    0 -0.11644237800E+03  0.19734473667E+02  0.84849478871E+03  0.86079459419E+03  0.84116883416E+02 0.  0.
          5    1    5    5  501    0 -0.12475605653E+03 -0.32824903367E+02  0.32299327656E+03  0.34783371692E+03  0.47000000000E+01 0. -1.
        -13    1    6    6    0    0 -0.11942885785E+03 -0.55213207620E+01  0.69616713922E+03  0.70635856532E+03  0.00000000000E+00 0.  1.
         14    1    6    6    0    0  0.29864798578E+01  0.25255794429E+02  0.15232764949E+03  0.15443602887E+03  0.00000000000E+00 0. -1.
         -5    1    3    3    0  503  0.14409611498E+03  0.62701137154E+02  0.45658169255E+03  0.48289134898E+03  0.47000000000E+01 0.  1.
         13    1    4    4    0    0  0.65326999893E+02 -0.52509686868E+00  0.83134901424E+02  0.10573223007E+03  0.00000000000E+00 0. -1.
        -14    1    4    4    0    0  0.31775319656E+02 -0.49085610586E+02  0.19718338414E+03  0.20567050125E+03  0.00000000000E+00 0.  1.
</event>
<event>
12    1  0.1623092E-001  0.2148788E+03  0.7818608E-02  0.1137823E+00
         21   -1    0    0  503  502  0.00000000000E+00  0.00000000000E+00  0.12729649475E+03  0.12729649475E+03  0.00000000000E+00 0. -1.
         21   -1    0    0  501  503 -0.00000000000E+00 -0.00000000000E+00 -0.51022585209E+03  0.51022585209E+03  0.00000000000E+00 0.  1.
          6    2    1    2  501    0 -0.88937121080E+02  0.91231916261E+02 -0.36307289120E+03  0.42172809077E+03  0.17262556058E+03 0.  0.
         24    2    3    3    0    0 -0.27333287887E+02 -0.53311112275E+01 -0.23387507501E+03  0.24900398634E+03  0.80807828383E+02 0.  0.
         -6    2    1    2    0  502  0.88937121080E+02 -0.91231916261E+02 -0.19856466137E+02  0.21579425606E+03  0.17303123317E+03 0.  0.
        -24    2    5    5    0    0  0.12678420726E+03 -0.89206269587E+02 -0.28390261631E+02  0.17666088358E+03  0.79818964471E+02 0.  0.
          5    1    3    3  501    0 -0.61603833192E+02  0.96563027488E+02 -0.12919781619E+03  0.17272410443E+03  0.47000000000E+01 0. -1.
        -13    1    4    4    0    0 -0.41731853313E+02  0.26819374444E+02 -0.15142719910E+03  0.15934560883E+03  0.00000000000E+00 0.  1.
         14    1    4    4    0    0  0.14398565426E+02 -0.32150485671E+02 -0.82447875913E+02  0.89658377511E+02  0.00000000000E+00 0. -1.
         -5    1    5    5    0  502 -0.37847086176E+02 -0.20256466740E+01  0.85337954935E+01  0.39133372484E+02  0.47000000000E+01 0.  1.
         13    1    6    6    0    0  0.43125918723E+02 -0.12749284594E+02  0.24921874648E+02  0.51414870994E+02  0.00000000000E+00 0. -1.
        -14    1    6    6    0    0  0.83658288532E+02 -0.76456984993E+02 -0.53312136279E+02  0.12524601259E+03  0.00000000000E+00 0.  1.
</event>
<event>
12    1  0.1623092E-001  0.1856270E+03  0.7818608E-02  0.1163346E+00
         21   -1    0    0  503  502  0.00000000000E+00  0.00000000000E+00  0.60612891144E+03  0.60612891144E+03  0.00000000000E+00 0.  1.
         21   -1    0    0  501  503 -0.00000000000E+00 -0.00000000000E+00 -0.14328692624E+03  0.14328692624E+03  0.00000000000E+00 0.  1.
          6    2    1    2  501    0 -0.46943308154E+02 -0.35953266190E+02 -0.60604972754E+02  0.19526996334E+03  0.17595762084E+03 0.  0.
         24    2    3    3    0    0 -0.95157145716E+01 -0.61562057827E+02 -0.94118739957E+02  0.13868465109E+03  0.80589449982E+02 0.  0.
         -6    2    1    2    0  502  0.46943308154E+02  0.35953266190E+02  0.52344695795E+03  0.55414587434E+03  0.17200180442E+03 0.  0.
        -24    2    5    5    0    0  0.46310804693E+02  0.26105720170E+02  0.53178046138E+03  0.54040136624E+03  0.80106043927E+02 0.  0.
          5    1    3    3  501    0 -0.37427593583E+02  0.25608791637E+02  0.33513767203E+02  0.56585312252E+02  0.47000000000E+01 0. -1.
        -11    1    4    4    0    0  0.20386485432E+02 -0.21074209335E+02 -0.81757067136E+02  0.86855910069E+02  0.00000000000E+00 0.  1.
         12    1    4    4    0    0 -0.29902200003E+02 -0.40487848493E+02 -0.12361672821E+02  0.51828741018E+02  0.00000000000E+00 0. -1.
         -5    1    5    5    0  502  0.63250346091E+00  0.98475460207E+01 -0.83335034312E+01  0.13744508092E+02  0.47000000000E+01 0.  1.
         13    1    6    6    0    0  0.59005137141E+02  0.13636389904E+02  0.50251361277E+03  0.50614966992E+03  0.00000000000E+00 0. -1.
        -14    1    6    6    0    0 -0.12694332447E+02  0.12469330265E+02  0.29266848614E+02  0.34251696328E+02  0.00000000000E+00 0.  1.
</event>
<event>
12    1  0.1623092E-001  0.1754362E+03  0.7818608E-02  0.1172446E+00
         21   -1    0    0  503  502  0.00000000000E+00  0.00000000000E+00  0.33041593491E+04  0.33041593491E+04  0.00000000000E+00 0. -1.
         21   -1    0    0  501  503 -0.00000000000E+00 -0.00000000000E+00 -0.21208817921E+02  0.21208817921E+02  0.00000000000E+00 0. -1.
          6    2    1    2  501    0 -0.28158298059E+02 -0.16294831258E+02  0.39342114986E+03  0.43051792696E+03  0.17177622944E+03 0.  0.
         24    2    3    3    0    0 -0.68091588489E+02 -0.54722446526E+02  0.20818236223E+03  0.23710942730E+03  0.72456704257E+02 0.  0.
         -6    2    1    2    0  502  0.28158298059E+02  0.16294831258E+02  0.28895293813E+04  0.28948502401E+04  0.17239331660E+03 0.  0.
        -24    2    5    5    0    0  0.83398282244E+02  0.20420065328E+02  0.17646803326E+04  0.17686282612E+04  0.81098688527E+02 0.  0.
          5    1    3    3  501    0  0.39933290431E+02  0.38427615268E+02  0.18523878763E+03  0.19340849966E+03  0.47000000000E+01 0. -1.
        -13    1    4    4    0    0 -0.45338740199E+02  0.83839282905E+01  0.93430024693E+02  0.10418762465E+03  0.00000000000E+00 0.  1.
         14    1    4    4    0    0 -0.22752848290E+02 -0.63106374816E+02  0.11475233754E+03  0.13292180264E+03  0.00000000000E+00 0. -1.
         -5    1    5    5    0  502 -0.55239984186E+02 -0.41252340698E+01  0.11248490487E+04  0.11262219789E+04  0.47000000000E+01 0.  1.
         11    1    6    6    0    0  0.70368238464E+02  0.43816704258E+02  0.15603569373E+04  0.15625573155E+04  0.00000000000E+00 0. -1.
        -12    1    6    6    0    0  0.13030043781E+02 -0.23396638930E+02  0.20432339533E+03  0.20607094563E+03  0.00000000000E+00 0.  1.
</event>
<event>
12    1  0.1623092E-001  0.2865691E+03  0.7818608E-02  0.1092243E+00
         21   -1    0    0  503  502  0.00000000000E+00  0.00000000000E+00  0.18056227279E+04  0.18056227279E+04  0.00000000000E+00 0.  1.
         21   -1    0    0  501  503 -0.00000000000E+00 -0.00000000000E+00 -0.69447151934E+02  0.69447151934E+02  0.00000000000E+00 0.  1.
          6    2    1    2  501    0  0.20844651731E+03  0.92999749093E+02  0.31677601846E+03  0.42716375166E+03  0.17327123521E+03 0.  0.
         24    2    3    3    0    0  0.18570355772E+03  0.12447867071E+03  0.29456549704E+03  0.38217973251E+03  0.96497487449E+02 0.  0.
         -6    2    1    2    0  502 -0.20844651731E+03 -0.92999749093E+02  0.14193995575E+04  0.14479061281E+04  0.17215733574E+03 0.  0.
        -24    2    5    5    0    0 -0.16018414229E+03 -0.96890328464E+02  0.13355476158E+04  0.13509647460E+04  0.79822400747E+02 0.  0.
          5    1    3    3  501    0  0.22742959586E+02 -0.31478921618E+02  0.22210521421E+02  0.44984019148E+02  0.47000000000E+01 0. -1.
        -11    1    4    4    0    0  0.19677542635E+03  0.11628782765E+03  0.26780892575E+03  0.35208670521E+03  0.00000000000E+00 0.  1.
         12    1    4    4    0    0 -0.11071868628E+02  0.81908430579E+01  0.26756571291E+02  0.30093027301E+02  0.00000000000E+00 0. -1.
         -5    1    5    5    0  502 -0.48262375016E+02  0.38905793709E+01  0.83851941660E+02  0.96941382135E+02  0.47000000000E+01 0.  1.
         13    1    6    6    0    0 -0.28182957670E+02  0.97548169666E+00  0.40804559475E+03  0.40901887250E+03  0.00000000000E+00 0. -1.
        -14    1    6    6    0    0 -0.13200118462E+03 -0.97865810160E+02  0.92750202107E+03  0.94194587351E+03  0.00000000000E+00 0.  1.
</event>
<event>
12    1  0.1623092E-001  0.2083261E+03  0.7818608E-02  0.1143169E+00
         21   -1    0    0  503  502  0.00000000000E+00  0.00000000000E+00  0.28705628429E+03  0.28705628429E+03  0.00000000000E+00 0.  1.
         21   -1    0    0  501  503 -0.00000000000E+00 -0.00000000000E+00 -0.15850167859E+03  0.15850167859E+03  0.00000000000E+00 0.  1.
          6    2    1    2  501    0  0.10833386101E+03  0.41165952780E+02  0.13130493377E+02  0.20739309110E+03  0.17148942612E+03 0.  0.
         24    2    3    3    0    0  0.94122227267E+02  0.65288097355E+02 -0.41706872535E+02  0.14564298913E+03  0.79692457266E+02 0.  0.
         -6    2    1    2    0  502 -0.10833386101E+03 -0.41165952780E+02  0.11542411232E+03  0.23816487178E+03  0.17311533536E+03 0.  0.
        -24    2    5    5    0    0  0.11789931772E+02 -0.36531184183E+01  0.31327169339E+02  0.86733949735E+02  0.79931462720E+02 0.  0.
          5    1    3    3  501    0  0.14211633739E+02 -0.24122144575E+02  0.54837365911E+02  0.61750101964E+02  0.47000000000E+01 0. -1.
        -13    1    4    4    0    0  0.64153744080E+02  0.25711258239E+02  0.14534705986E+02  0.70625982173E+02  0.00000000000E+00 0.  1.
         14    1    4    4    0    0  0.29968483187E+02  0.39576839116E+02 -0.56241578520E+02  0.75017006961E+02  0.00000000000E+00 0. -1.
         -5    1    5    5    0  502 -0.12012379278E+03 -0.37512834362E+02  0.84096942981E+02  0.15143092205E+03  0.47000000000E+01 0.  1.
         11    1    6    6    0    0  0.22253707934E+02 -0.37378227348E+02  0.26899640756E+02  0.51146359296E+02  0.00000000000E+00 0. -1.
        -12    1    6    6    0    0 -0.10463776162E+02  0.33725108930E+02  0.44275285825E+01  0.35587590439E+02  0.00000000000E+00 0.  1.
</event>
<event>
12    1  0.1623092E-001  0.1880559E+03  0.7818608E-02  0.1160528E+00
         21   -1    0    0  501  502  0.00000000000E+00  0.00000000000E+00  0.67571965997E+03  0.67571965997E+03  0.00000000000E+00 0.  1.
         21   -1    0    0  502  503 -0.00000000000E+00 -0.00000000000E+00 -0.56897431065E+02  0.56897431065E+02  0.00000000000E+00 0.  1.
         -6    2    1    2    0  503 -0.75518166758E+02  0.50067651658E+01  0.20063941852E+03  0.27409567027E+03  0.17071672146E+03 0.  0.
        -24    2    3    3    0    0 -0.31991534175E+02 -0.64504346619E+02  0.10065821401E+03  0.14469438101E+03  0.74967451984E+02 0.  0.
          6    2    1    2  501    0  0.75518166758E+02 -0.50067651658E+01  0.41818281038E+03  0.45852142077E+03  0.17215391135E+03 0.  0.
         24    2    5    5    0    0  0.14219432632E+02  0.62612388379E+02  0.15435610843E+03  0.17931450217E+03  0.64848893857E+02 0.  0.
          5    1    5    5  501    0  0.61298734126E+02 -0.67619153545E+02  0.26382670195E+03  0.27920691860E+03  0.47000000000E+01 0. -1.
        -11    1    6    6    0    0  0.73471261604E+01 -0.55473331730E+01  0.70198626038E+02  0.70799719390E+02  0.00000000000E+00 0.  1.
         12    1    6    6    0    0  0.68723064713E+01  0.68159721552E+02  0.84157482394E+02  0.10851478278E+03  0.00000000000E+00 0. -1.
         -5    1    3    3    0  503 -0.43526632583E+02  0.69511111785E+02  0.99981204518E+02  0.12940128926E+03  0.47000000000E+01 0.  1.
         13    1    4    4    0    0  0.16179554894E+02  0.70035082685E+01  0.14834606032E+02  0.23041108063E+02  0.00000000000E+00 0. -1.
        -14    1    4    4    0    0 -0.48171089069E+02 -0.71507854888E+02  0.85823607974E+02  0.12165327295E+03  0.00000000000E+00 0.  1.
</event>
<event>
12    1  0.1623092E-001  0.1798210E+03  0.7818608E-02  0.1167998E+00
         21   -1    0    0  501  502  0.00000000000E+00  0.00000000000E+00  0.79351714492E+03  0.79351714492E+03  0.00000000000E+00 0. -1.
         21   -1    0    0  502  503 -0.00000000000E+00 -0.00000000000E+00 -0.63187937880E+02  0.63187937880E+02  0.00000000000E+00 0. -1.
         -6    2    1    2    0  503  0.51994302896E+02 -0.59666307450E+01  0.10973183893E+03  0.21058073015E+03  0.17194231364E+03 0.  0.
        -24    2    3    3    0    0  0.72300307098E+02  0.29082536981E+02  0.21422613678E+02  0.11331106771E+03  0.79418771875E+02 0.  0.
          6    2    1    2  501    0 -0.51994302896E+02  0.59666307450E+01  0.62059736811E+03  0.64612435265E+03  0.17203655882E+03 0.  0.
         24    2    5    5    0    0  0.25875417945E+01  0.63349196048E+02  0.36807928932E+03  0.38143697727E+03  0.77407934933E+02 0.  0.
          5    1    5    5  501    0 -0.54581844690E+02 -0.57382565303E+02  0.25251807879E+03  0.26468737538E+03  0.47000000000E+01 0. -1.
        -11    1    6    6    0    0 -0.33224759926E+02  0.95664346259E+01  0.10533697691E+03  0.11086604552E+03  0.00000000000E+00 0.  1.
         12    1    6    6    0    0  0.35812301720E+02  0.53782761422E+02  0.26274231241E+03  0.27057093176E+03  0.00000000000E+00 0. -1.
         -5    1    3    3    0  503 -0.20306004202E+02 -0.35049167726E+02  0.88309225254E+02  0.97269662434E+02  0.47000000000E+01 0.  1.
         13    1    4    4    0    0  0.67013725170E+01  0.10180522778E+02 -0.26993399996E+02  0.29617479316E+02  0.00000000000E+00 0. -1.
        -14    1    4    4    0    0  0.65598934581E+02  0.18902014203E+02  0.48416013674E+02  0.83693588399E+02  0.00000000000E+00 0.  1.
</event>
<event>
12    1  0.1623092E-001  0.1995158E+03  0.7818608E-02  0.1150667E+00
         21   -1    0    0  503  502  0.00000000000E+00  0.00000000000E+00  0.13150993308E+03  0.13150993308E+03  0.00000000000E+00 0. -1.
         21   -1    0    0  501  503 -0.00000000000E+00 -0.00000000000E+00 -0.31597841989E+03  0.31597841989E+03  0.00000000000E+00 0. -1.
          6    2    1    2  501    0 -0.68477057455E+02  0.68787976077E+02 -0.14355959891E+03  0.24382173746E+03  0.17151906065E+03 0.  0.
         24    2    3    3    0    0 -0.16113729357E+02  0.44805027824E+02 -0.43567430795E+01  0.93101383797E+02  0.79885816404E+02 0.  0.
         -6    2    1    2    0  502  0.68477057455E+02 -0.68787976077E+02 -0.40908887904E+02  0.20366661551E+03  0.17431483044E+03 0.  0.
        -24    2    5    5    0    0  0.75297653377E+02 -0.10850425051E+03 -0.10678895668E+02  0.15307170060E+03  0.76642010206E+02 0.  0.
          5    1    3    3  501    0 -0.52363328099E+02  0.23982948253E+02 -0.13920285583E+03  0.15072035366E+03  0.47000000000E+01 0. -1.
        -11    1    4    4    0    0 -0.35688232318E+02  0.83134021169E+01  0.23190620376E+02  0.43365509961E+02  0.00000000000E+00 0.  1.
         12    1    4    4    0    0  0.19574502961E+02  0.36491625707E+02 -0.27547363455E+02  0.49735873836E+02  0.00000000000E+00 0. -1.
         -5    1    5    5    0  502 -0.68205959218E+01  0.39716274436E+02 -0.30229992235E+02  0.50594914906E+02  0.47000000000E+01 0.  1.
         11    1    6    6    0    0  0.20822581539E+02 -0.71063685479E+02 -0.35935043160E+02  0.82310112518E+02  0.00000000000E+00 0. -1.
        -12    1    6    6    0    0  0.54475071838E+02 -0.37440565034E+02  0.25256147492E+02  0.70761588082E+02  0.00000000000E+00 0.  1.
</event>
<event>
12    1  0.1623092E-001  0.2037014E+03  0.7818608E-02  0.1146735E+00
         21   -1    0    0  503  502  0.00000000000E+00  0.00000000000E+00  0.38699016894E+03  0.38699016894E+03  0.00000000000E+00 0. -1.
         21   -1    0    0  501  503 -0.00000000000E+00 -0.00000000000E+00 -0.41606363685E+03  0.41606363685E+03  0.00000000000E+00 0. -1.
          6    2    1    2  501    0 -0.56197191819E+02 -0.93290845272E+02 -0.36059082668E+03  0.41395483765E+03  0.17167282005E+03 0.  0.
         24    2    3    3    0    0  0.15232433307E+02  0.13148837383E+02 -0.57714648619E+02  0.85035901392E+02  0.59120258046E+02 0.  0.
         -6    2    1    2    0  502  0.56197191819E+02  0.93290845272E+02  0.33151735877E+03  0.38909896815E+03  0.17214221350E+03 0.  0.
        -24    2    5    5    0    0  0.66564103286E+02  0.12498874348E+03  0.30071868124E+03  0.34346040834E+03  0.86489080287E+02 0.  0.
          5    1    3    3  501    0 -0.71429625126E+02 -0.10643968265E+03 -0.30287617806E+03  0.32891893626E+03  0.47000000000E+01 0. -1.
        -13    1    4    4    0    0  0.31706737109E+02 -0.10357373658E+02 -0.35730150363E+02  0.48879811908E+02  0.00000000000E+00 0.  1.
         14    1    4    4    0    0 -0.16474303802E+02  0.23506211040E+02 -0.21984498255E+02  0.36156089484E+02  0.00000000000E+00 0. -1.
         -5    1    5    5    0  502 -0.10366911467E+02 -0.31697898204E+02  0.30798677533E+02  0.45638559812E+02  0.47000000000E+01 0.  1.
         13    1    6    6    0    0 -0.16661531016E+02  0.25504348435E+01  0.20521024460E+02  0.26556049755E+02  0.00000000000E+00 0. -1.
        -14    1    6    6    0    0  0.83225634302E+02  0.12243830863E+03  0.28019765678E+03  0.31690435859E+03  0.00000000000E+00 0.  1.
</event>
<event>
12    1  0.1623092E-001  0.2499831E+03  0.7818608E-02  0.1114244E+00
         21   -1    0    0  501  502  0.00000000000E+00  0.00000000000E+00  0.20716605854E+03  0.20716605854E+03  0.00000000000E+00 0. -1.
         21   -1    0    0  502  503 -0.00000000000E+00 -0.00000000000E+00 -0.29556420921E+03  0.29556420921E+03  0.00000000000E+00 0.  1.
         -6    2    1    2    0  503  0.15824292490E+03 -0.69204736998E+02 -0.58426274675E+02  0.25672003709E+03  0.18072473259E+03 0.  0.
        -24    2    3    3    0    0  0.70626644924E+02 -0.10049129177E+03 -0.70480472351E+02  0.16278998489E+03  0.80289846814E+02 0.  0.
          6    2    1    2  501    0 -0.15824292490E+03  0.69204736998E+02 -0.29971875992E+02  0.24601023066E+03  0.17260533403E+03 0.  0.
         24    2    5    5    0    0 -0.13061677762E+03  0.11403822249E+03 -0.38576347313E+02  0.19244370790E+03  0.74033690657E+02 0.  0.
          5    1    5    5  501    0 -0.27626147275E+02 -0.44833485490E+02  0.86044713201E+01  0.53566522765E+02  0.47000000000E+01 0. -1.
        -11    1    6    6    0    0 -0.78447451327E+01  0.34288539567E+02 -0.29249409608E+02  0.45746824308E+02  0.00000000000E+00 0.  1.
         12    1    6    6    0    0 -0.12277203249E+03  0.79749682921E+02 -0.93269377044E+01  0.14669688359E+03  0.00000000000E+00 0. -1.
         -5    1    3    3    0  503  0.87616279972E+02  0.31286554774E+02  0.12054197676E+02  0.93930052206E+02  0.47000000000E+01 0.  1.
         11    1    4    4    0    0 -0.17269600508E+02 -0.21925498354E+02 -0.21036996039E+02  0.34950275852E+02  0.00000000000E+00 0. -1.
        -12    1    4    4    0    0  0.87896245431E+02 -0.78565793417E+02 -0.49443476313E+02  0.12783970903E+03  0.00000000000E+00 0.  1.
</event>
<event>
12    1  0.1623092E-001  0.1839853E+03  0.7818608E-02  0.1164169E+00
         21   -1    0    0  501  502  0.00000000000E+00  0.00000000000E+00  0.16302576506E+04  0.16302576506E+04  0.00000000000E+00 0.  1.
         21   -1    0    0  502  503 -0.00000000000E+00 -0.00000000000E+00 -0.26529989552E+02  0.26529989552E+02  0.00000000000E+00 0.  1.
         -6    2    1    2    0  503  0.23061461432E+02 -0.65198070424E+02  0.41178030342E+03  0.45072416791E+03  0.16972518335E+03 0.  0.
        -24    2    3    3    0    0 -0.22865178250E+02  0.19072994227E+02  0.22004116940E+03  0.23625539609E+03  0.80696347299E+02 0.  0.
          6    2    1    2  501    0 -0.23061461432E+02  0.65198070424E+02  0.11919473576E+04  0.12060634722E+04  0.17049333221E+03 0.  0.
         24    2    5    5    0    0 -0.30772595502E+02  0.35627322286E+02  0.11523207685E+04  0.11558016846E+04  0.76276613645E+02 0.  0.
          5    1    5    5  501    0  0.77111340699E+01  0.29570748138E+02  0.39626589088E+02  0.50261787641E+02  0.47000000000E+01 0. -1.
        -13    1    6    6    0    0  0.10022359503E+02  0.45961020272E+02  0.66932458923E+03  0.67097560971E+03  0.00000000000E+00 0.  1.
         14    1    6    6    0    0 -0.40794955005E+02 -0.10333697986E+02  0.48299617930E+03  0.48482607488E+03  0.00000000000E+00 0. -1.
         -5    1    3    3    0  503  0.45926639682E+02 -0.84271064651E+02  0.19173913402E+03  0.21446877182E+03  0.47000000000E+01 0.  1.
         13    1    4    4    0    0 -0.20261754744E+02 -0.21524970897E+02  0.30799333587E+02  0.42690303663E+02  0.00000000000E+00 0. -1.
        -14    1    4    4    0    0 -0.26034235062E+01  0.40597965124E+02  0.18924183581E+03  0.19356509243E+03  0.00000000000E+00 0.  1.
</event>
<event>
12    1  0.1623092E-001  0.1852406E+03  0.7818608E-02  0.1163914E+00
         21   -1    0    0  503  502  0.00000000000E+00  0.00000000000E+00  0.94261691852E+03  0.94261691852E+03  0.00000000000E+00 0. -1.
         21   -1    0    0  501  503 -0.00000000000E+00 -0.00000000000E+00 -0.45346169502E+02  0.45346169502E+02  0.00000000000E+00 0. -1.
          6    2    1    2  501    0 -0.35341522355E+02 -0.42930507201E+02  0.22292585423E+03  0.28984480090E+03  0.17669753953E+03 0.  0.
         24    2    3    3    0    0 -0.41990806369E+02  0.41442406409E+01  0.35591481776E+02  0.96514767112E+02  0.79170348905E+02 0.  0.
         -6    2    1    2    0  502  0.35341522355E+02  0.42930507201E+02  0.67434489479E+03  0.69811828712E+03  0.17186056568E+03 0.  0.
        -24    2    5    5    0    0  0.62971783935E+02  0.10215018764E+02  0.22875190482E+03  0.25044771935E+03  0.79541397957E+02 0.  0.
          5    1    3    3  501    0  0.66492840133E+01 -0.47074747841E+02  0.18733437245E+03  0.19333003379E+03  0.47000000000E+01 0. -1.
        -11    1    4    4    0    0  0.20699537655E+02  0.68209860754E+01  0.24506284860E+02  0.32795650745E+02  0.00000000000E+00 0.  1.
         12    1    4    4    0    0 -0.62690344024E+02 -0.26767454345E+01  0.11085196916E+02  0.63719116367E+02  0.00000000000E+00 0. -1.
         -5    1    5    5    0  502 -0.27630261580E+02  0.32715488437E+02  0.44559298998E+03  0.44767056778E+03  0.47000000000E+01 0.  1.
         13    1    6    6    0    0  0.10475037278E+02  0.40170778279E+02  0.94648545145E+02  0.10335262421E+03  0.00000000000E+00 0. -1.
        -14    1    6    6    0    0  0.52496746658E+02 -0.29955759515E+02  0.13410335967E+03  0.14709509514E+03  0.00000000000E+00 0.  1.
</event>
<event>
12    1  0.1623092E-001  0.2932584E+03  0.7818608E-02  0.1089347E+00
         21   -1    0    0  501  502  0.00000000000E+00  0.00000000000E+00  0.27282300054E+04  0.27282300054E+04  0.00000000000E+00 0. -1.
         21   -1    0    0  502  503 -0.00000000000E+00 -0.00000000000E+00 -0.32688283610E+02  0.32688283610E+02  0.00000000000E+00 0.  1.
         -6    2    1    2    0  503 -0.15202165328E+02 -0.23044407296E+03  0.16538712939E+04  0.16787548085E+04  0.17202288703E+03 0.  0.
        -24    2    3    3    0    0  0.44230279467E+02 -0.71299129188E+02  0.59954464915E+03  0.61081937391E+03  0.81281226413E+02 0.  0.
          6    2    1    2  501    0  0.15202165328E+02  0.23044407296E+03  0.10416704279E+04  0.10821634805E+04  0.18073445058E+03 0.  0.
         24    2    5    5    0    0  0.53042404657E+02  0.16323437462E+03  0.91019998382E+03  0.92966562831E+03  0.79719584575E+02 0.  0.
          5    1    5    5  501    0 -0.37840239329E+02  0.67209698346E+02  0.13147044409E+03  0.15249785222E+03  0.47000000000E+01 0. -1.
        -13    1    6    6    0    0  0.31691406128E+01  0.99929384464E+02  0.36119071270E+03  0.37477280621E+03  0.00000000000E+00 0.  1.
         14    1    6    6    0    0  0.49873264044E+02  0.63304990153E+02  0.54900927112E+03  0.55489282210E+03  0.00000000000E+00 0. -1.
         -5    1    3    3    0  503 -0.59432444795E+02 -0.15914494378E+03  0.10543266447E+04  0.10679354346E+04  0.47000000000E+01 0.  1.
         11    1    4    4    0    0  0.45140778344E+02 -0.48088799608E+02  0.56706852303E+03  0.57089134897E+03  0.00000000000E+00 0. -1.
        -12    1    4    4    0    0 -0.91049887664E+00 -0.23210329580E+02  0.32476126123E+02  0.39928024937E+02  0.00000000000E+00 0.  1.
</event>
<event>
12    1  0.1623092E-001  0.2531955E+03  0.7818608E-02  0.1111323E+00
         21   -1    0    0  501  502  0.00000000000E+00  0.00000000000E+00  0.33642072011E+02  0.33642072011E+02  0.00000000000E+00 0. -1.
         21   -1    0    0  502  503 -0.00000000000E+00 -0.00000000000E+00 -0.24071447885E+04  0.24071447885E+04  0.00000000000E+00 0.  1.
         -6    2    1    2    0  503  0.64067346420E+02  0.17461254748E+03 -0.17441430074E+04  0.17624052685E+04  0.17159059790E+03 0.  0.
        -24    2    3    3    0    0  0.66067692148E+02  0.50857054369E+02 -0.48977943781E+03  0.50194127522E+03  0.71482628229E+02 0.  0.
          6    2    1    2  501    0 -0.64067346420E+02 -0.17461254748E+03 -0.62935970908E+03  0.67838159208E+03  0.17179573465E+03 0.  0.
         24    2    5    5    0    0 -0.55189635588E+02 -0.29719293711E+02 -0.18643171603E+03  0.21224838605E+03  0.79771300249E+02 0.  0.
          5    1    5    5  501    0 -0.88777108320E+01 -0.14489325377E+03 -0.44292799305E+03  0.46613320603E+03  0.47000000000E+01 0. -1.
        -11    1    6    6    0    0 -0.19148464898E+02 -0.17631331430E+02 -0.16799428559E+03  0.16999884572E+03  0.00000000000E+00 0.  1.
         12    1    6    6    0    0 -0.36041170690E+02 -0.12087962281E+02 -0.18437430446E+02  0.42249540332E+02  0.00000000000E+00 0. -1.
         -5    1    3    3    0  503 -0.20003457272E+01  0.12375549311E+03 -0.12543635696E+04  0.12604639932E+04  0.47000000000E+01 0.  1.
         13    1    4    4    0    0  0.25573100118E+02 -0.12218612674E+02 -0.22428813322E+03  0.22607176880E+03  0.00000000000E+00 0. -1.
        -14    1    4    4    0    0  0.40494592030E+02  0.63075667043E+02 -0.26549130459E+03  0.27586950642E+03  0.00000000000E+00 0.  1.
</event>
<event>
12    1  0.1623092E-001  0.3267721E+03  0.7818608E-02  0.1073644E+00
         21   -1    0    0  503  502  0.00000000000E+00  0.00000000000E+00  0.80250014830E+03  0.80250014830E+03  0.00000000000E+00 0. -1.
         21   -1    0    0  501  503 -0.00000000000E+00 -0.00000000000E+00 -0.16583046249E+03  0.16583046249E+03  0.00000000000E+00 0.  1.
          6    2    1    2  501    0 -0.15678032844E+03  0.22913753673E+03  0.87358172579E+02  0.32917248010E+03  0.15374976168E+03 0.  0.
         24    2    3    3    0    0 -0.11812941683E+03  0.87080656350E+02  0.27021144630E+02  0.16999742812E+03  0.81433306948E+02 0.  0.
         -6    2    1    2    0  502  0.15678032844E+03 -0.22913753673E+03  0.54931151323E+03  0.63915813069E+03  0.17232497015E+03 0.  0.
        -24    2    5    5    0    0  0.33258187176E+02 -0.14672796506E+03  0.21327715343E+03  0.27174795411E+03  0.75661110523E+02 0.  0.
          5    1    3    3  501    0 -0.38650911610E+02  0.14205688038E+03  0.60337027949E+02  0.15917505198E+03  0.47000000000E+01 0. -1.
        -11    1    4    4    0    0 -0.51342792033E+02  0.73206389334E+02 -0.13842712975E+02  0.90481370654E+02  0.00000000000E+00 0.  1.
         12    1    4    4    0    0 -0.66786624796E+02  0.13874267016E+02  0.40863857605E+02  0.79516057468E+02  0.00000000000E+00 0. -1.
         -5    1    5    5    0  502  0.12352214126E+03 -0.82409571668E+02  0.33603435980E+03  0.36741017657E+03  0.47000000000E+01 0.  1.
         11    1    6    6    0    0 -0.21980883352E+02 -0.18532255315E+02  0.33690032646E+02  0.44290202299E+02  0.00000000000E+00 0. -1.
        -12    1    6    6    0    0  0.55239070528E+02 -0.12819570974E+03  0.17958712078E+03  0.22745775181E+03  0.00000000000E+00 0.  1.
</event>
<event>
12    1  0.1623092E-001  0.1769342E+03  0.7818608E-02  0.1172539E+00
         21   -1    0    0  503  502  0.00000000000E+00  0.00000000000E+00  0.12965077003E+03  0.12965077003E+03  0.00000000000E+00 0.  1.
         21   -1    0    0  501  503 -0.00000000000E+00 -0.00000000000E+00 -0.32534669996E+03  0.32534669996E+03  0.00000000000E+00 0. -1.
          6    2    1    2  501    0  0.36802946777E+02 -0.17556000103E+02 -0.22095310964E+03  0.28306533021E+03  0.17217152632E+03 0.  0.
         24    2    3    3    0    0 -0.50124709548E+02 -0.33970963326E+01 -0.93012772038E+02  0.12766998930E+03  0.71583682742E+02 0.  0.
         -6    2    1    2    0  502 -0.36802946777E+02  0.17556000103E+02  0.25257179717E+02  0.17193213978E+03  0.16510622499E+03 0.  0.
        -24    2    5    5    0    0 -0.57539108044E+01  0.71016595619E+02  0.27165788185E+02  0.10990141599E+03  0.79144657722E+02 0.  0.
          5    1    3    3  501    0  0.86927656325E+02 -0.14158903771E+02 -0.12794033760E+03  0.15539534091E+03  0.47000000000E+01 0. -1.
        -11    1    4    4    0    0 -0.31090000164E+02 -0.34965640863E+02 -0.33057146806E+02  0.57288385439E+02  0.00000000000E+00 0.  1.
         12    1    4    4    0    0 -0.19034709384E+02  0.31568544531E+02 -0.59955625232E+02  0.70381603861E+02  0.00000000000E+00 0. -1.
         -5    1    5    5    0  502 -0.31049035973E+02 -0.53460595516E+02 -0.19086084680E+01  0.62030723791E+02  0.47000000000E+01 0.  1.
         13    1    6    6    0    0 -0.25915765422E+02  0.54049846781E+02 -0.13501213792E+02  0.61443434216E+02  0.00000000000E+00 0. -1.
        -14    1    6    6    0    0  0.20161854617E+02  0.16966748838E+02  0.40667001977E+02  0.48457981773E+02  0.00000000000E+00 0.  1.
</event>
<event>
12    1  0.1623092E-001  0.1816529E+03  0.7818608E-02  0.1166720E+00
         21   -1    0    0  503  502  0.00000000000E+00  0.00000000000E+00  0.25345274490E+03  0.25345274490E+03  0.00000000000E+00 0. -1.
         21   -1    0    0  501  503 -0.00000000000E+00 -0.00000000000E+00 -0.14202239205E+03  0.14202239205E+03  0.00000000000E+00 0. -1.
          6    2    1    2  501    0 -0.37806290446E+02 -0.42826567466E+02 -0.51701921338E+01  0.17961993042E+03  0.17021503471E+03 0.  0.
         24    2    3    3    0    0  0.57048254160E+01  0.32622687854E+02 -0.79092771398E+01  0.92353671661E+02  0.85847884124E+02 0.  0.
         -6    2    1    2    0  502  0.37806290446E+02  0.42826567466E+02  0.11660054499E+03  0.21585520653E+03  0.17243651764E+03 0.  0.
        -24    2    5    5    0    0  0.40219812446E+02  0.92763687980E+02  0.91464972007E+02  0.15969981389E+03  0.83159210736E+02 0.  0.
          5    1    3    3  501    0 -0.43511115862E+02 -0.75449255320E+02  0.27390850061E+01  0.87266258764E+02  0.47000000000E+01 0. -1.
        -11    1    4    4    0    0  0.20886409767E+02  0.29027804882E+02 -0.41820619367E+02  0.55025628333E+02  0.00000000000E+00 0.  1.
         12    1    4    4    0    0 -0.15181584351E+02  0.35948829717E+01  0.33911342227E+02  0.37328043327E+02  0.00000000000E+00 0. -1.
         -5    1    5    5    0  502 -0.24135219996E+01 -0.49937120514E+02  0.25135572979E+02  0.56155392641E+02  0.47000000000E+01 0.  1.
         11    1    6    6    0    0  0.47500174115E+02  0.38250400956E+02  0.10593883642E+02  0.61899839134E+02  0.00000000000E+00 0. -1.
        -12    1    6    6    0    0 -0.72803616687E+01  0.54513287025E+02  0.80871088365E+02  0.97799974753E+02  0.00000000000E+00 0.  1.
</event>
<event>
12    1  0.1623092E-001  0.2205019E+03  0.7818608E-02  0.1133814E+00
         21   -1    0    0  501  502  0.00000000000E+00  0.00000000000E+00  0.11091859024E+04  0.11091859024E+04  0.00000000000E+00 0.  1.
         21   -1    0    0  502  503 -0.00000000000E+00 -0.00000000000E+00 -0.45702626841E+02  0.45702626841E+02  0.00000000000E+00 0. -1.
         -6    2    1    2    0  503  0.35813433693E+02  0.12990186022E+03  0.40340199153E+03  0.45895146134E+03  0.17247081426E+03 0.  0.
        -24    2    3    3    0    0 -0.43434836469E+02  0.86256692059E+02  0.27514663488E+03  0.30192689148E+03  0.78277552166E+02 0.  0.
          6    2    1    2  501    0 -0.35813433693E+02 -0.12990186022E+03  0.66008128407E+03  0.69593706795E+03  0.17453940999E+03 0.  0.
         24    2    5    5    0    0  0.24544190016E+02 -0.15925627963E+02  0.33357730172E+03  0.34485222812E+03  0.82420871944E+02 0.  0.
          5    1    5    5  501    0 -0.60357623710E+02 -0.11397623226E+03  0.32650398236E+03  0.35108483982E+03  0.47000000000E+01 0. -1.
        -13    1    6    6    0    0 -0.20683195395E+02 -0.31589300905E+02  0.11298809783E+03  0.11913013370E+03  0.00000000000E+00 0.  1.
         14    1    6    6    0    0  0.45227385412E+02  0.15663672942E+02  0.22058920388E+03  0.22572209442E+03  0.00000000000E+00 0. -1.
         -5    1    3    3    0  503  0.79248270163E+02  0.43645168159E+02  0.12825535665E+03  0.15702456985E+03  0.47000000000E+01 0.  1.
         13    1    4    4    0    0 -0.13530101588E+02 -0.74867482224E+01  0.83723313784E+01  0.17584395942E+02  0.00000000000E+00 0. -1.
        -14    1    4    4    0    0 -0.29904734881E+02  0.93743440282E+02  0.26677430350E+03  0.28434249554E+03  0.00000000000E+00 0.  1.
</event>
<event>
12    1  0.1623092E-001  0.2131667E+03  0.7818608E-02  0.1139750E+00
         21   -1    0    0  503  502  0.00000000000E+00  0.00000000000E+00  0.47462894198E+03  0.47462894198E+03  0.00000000000E+00 0. -1.
         21   -1    0    0  501  503 -0.00000000000E+00 -0.00000000000E+00 -0.94895056841E+02  0.94895056841E+02  0.00000000000E+00 0. -1.
          6    2    1    2  501    0 -0.11016900838E+02  0.12293952075E+03  0.21247600397E+03  0.29857156735E+03  0.16959784992E+03 0.  0.
         24    2    3    3    0    0  0.47475330469E+02  0.67644744381E+02  0.17504752756E+03  0.20967930523E+03  0.80585704019E+02 0.  0.
         -6    2    1    2    0  502  0.11016900838E+02 -0.12293952075E+03  0.16725788116E+03  0.27095243147E+03  0.17379448623E+03 0.  0.
        -24    2    5    5    0    0  0.41398373524E+02 -0.13776243067E+03  0.17046137335E+03  0.23667262833E+03  0.79148850677E+02 0.  0.
          5    1    3    3  501    0 -0.58492231307E+02  0.55294776367E+02  0.37428476412E+02  0.88892262112E+02  0.47000000000E+01 0. -1.
        -13    1    4    4    0    0  0.12674471355E+02  0.26537855222E+02  0.31924046637E+01  0.29581944349E+02  0.00000000000E+00 0.  1.
         14    1    4    4    0    0  0.34800859114E+02  0.41106889159E+02  0.17185512290E+03  0.18009736089E+03  0.00000000000E+00 0. -1.
         -5    1    5    5    0  502 -0.30381472686E+02  0.14822909919E+02 -0.32034921894E+01  0.34279803139E+02  0.47000000000E+01 0.  1.
         11    1    6    6    0    0  0.39343377741E+02 -0.68301141949E+02  0.38928665572E+02  0.87911252789E+02  0.00000000000E+00 0. -1.
        -12    1    6    6    0    0  0.20549957826E+01 -0.69461288718E+02  0.13153270778E+03  0.14876137555E+03  0.00000000000E+00 0.  1.
</event>
<event>
12    1  0.1623092E-001  0.1800150E+03  0.7818608E-02  0.1168046E+00
         21   -1    0    0  501  502  0.00000000000E+00  0.00000000000E+00  0.20869937920E+04  0.20869937920E+04  0.00000000000E+00 0.  1.
         21   -1    0    0  502  503 -0.00000000000E+00 -0.00000000000E+00 -0.18182782800E+02  0.18182782800E+02  0.00000000000E+00 0.  1.
         -6    2    1    2    0  503  0.26566898505E+02  0.49120527477E+02  0.62789062520E+03  0.65318605839E+03  0.17113375864E+03 0.  0.
        -24    2    3    3    0    0 -0.41722990709E+02  0.51820455756E+01  0.39482747636E+03  0.40633667008E+03  0.86331291050E+02 0.  0.
          6    2    1    2  501    0 -0.26566898505E+02 -0.49120527477E+02  0.14409203840E+04  0.14519905164E+04  0.17001847077E+03 0.  0.
         24    2    5    5    0    0  0.16399592276E+02 -0.22731629067E+02  0.12821385858E+04  0.12853284550E+04  0.86047721227E+02 0.  0.
          5    1    5    5  501    0 -0.42966490781E+02 -0.26388898411E+02  0.15878179818E+03  0.16666206144E+03  0.47000000000E+01 0. -1.
        -11    1    6    6    0    0  0.22559184330E+02  0.29928458973E+02  0.52890689678E+03  0.53023309489E+03  0.00000000000E+00 0.  1.
         12    1    6    6    0    0 -0.61595920541E+01 -0.52660088039E+02  0.75323168906E+03  0.75509536010E+03  0.00000000000E+00 0. -1.
         -5    1    3    3    0  503  0.68289889214E+02  0.43938481902E+02  0.23306314884E+03  0.24684938831E+03  0.47000000000E+01 0.  1.
         13    1    4    4    0    0 -0.44877741079E+02  0.37847842863E+02  0.30733560378E+03  0.31289238438E+03  0.00000000000E+00 0. -1.
        -14    1    4    4    0    0  0.31547503697E+01 -0.32665797288E+02  0.87491872582E+02  0.93444285702E+02  0.00000000000E+00 0.  1.
</event>
<event>
12    1  0.1623092E-001  0.2089683E+03  0.7818608E-02  0.1143105E+00
         21   -1    0    0  503  502  0.00000000000E+00  0.00000000000E+00  0.48946352887E+02  0.48946352887E+02  0.00000000000E+00 0.  1.
         21   -1    0    0  501  503 -0.00000000000E+00 -0.00000000000E+00 -0.96254756446E+03  0.96254756446E+03  0.00000000000E+00 0.  1.
          6    2    1    2  501    0 -0.75494269265E+01  0.11645306004E+03 -0.60402353885E+03  0.63798878701E+03  0.16901759621E+03 0.  0.
         24    2    3    3    0    0  0.19221249889E+02  0.13689845831E+02 -0.39169407496E+03  0.40053807935E+03  0.80309627860E+02 0.  0.
         -6    2    1    2    0  502  0.75494269265E+01 -0.11645306004E+03 -0.30957767273E+03  0.37350513034E+03  0.17334773693E+03 0.  0.
        -24    2    5    5    0    0 -0.39132186497E+02 -0.18411496924E+02 -0.19734570541E+03  0.21726996907E+03  0.79941233263E+02 0.  0.
          5    1    3    3  501    0 -0.26770676815E+02  0.10276321421E+03 -0.21232946389E+03  0.23745070766E+03  0.47000000000E+01 0. -1.
        -13    1    4    4    0    0 -0.24199291924E+01  0.41548522364E+02 -0.13058664775E+03  0.13705841214E+03  0.00000000000E+00 0.  1.
         14    1    4    4    0    0  0.21641179081E+02 -0.27858676534E+02 -0.26110742721E+03  0.26347966721E+03  0.00000000000E+00 0. -1.
         -5    1    5    5    0  502  0.46681613424E+02 -0.98041563117E+02 -0.11223196732E+03  0.15623516128E+03  0.47000000000E+01 0.  1.
         13    1    6    6    0    0 -0.39867187806E+02 -0.34234907744E+01 -0.31976135622E+02  0.51220954716E+02  0.00000000000E+00 0. -1.
        -14    1    6    6    0    0  0.73500130939E+00 -0.14988006150E+02 -0.16536956979E+03  0.16604901435E+03  0.00000000000E+00 0.  1.
</event>
<event>
12    1  0.1623092E-001  0.2978612E+03  0.7818608E-02  0.1086405E+00
         21   -1    0    0  501  502  0.00000000000E+00  0.00000000000E+00  0.92635526435E+03  0.92635526435E+03  0.00000000000E+00 0. -1.
         21   -1    0    0  502  503 -0.00000000000E+00 -0.00000000000E+00 -0.21066349713E+03  0.21066349713E+03  0.00000000000E+00 0.  1.
         -6    2    1    2    0  503  0.23142308120E+03 -0.72823819396E+02  0.77829908803E+03  0.83334913425E+03  0.17280439215E+03 0.  0.
        -24    2    3    3    0    0  0.22285885202E+03 -0.59129206038E+02  0.77934479779E+03  0.81649469966E+03  0.78249279876E+02 0.  0.
          6    2    1    2  501    0 -0.23142308120E+03  0.72823819396E+02 -0.62607320809E+02  0.30366962723E+03  0.17156810513E+03 0.  0.
         24    2    5    5    0    0 -0.21242997796E+03  0.66632718171E+02  0.35369036022E+01  0.23441490805E+03  0.73290004512E+02 0.  0.
          5    1    5    5  501    0 -0.18993103235E+02  0.61911012250E+01 -0.66144224411E+02  0.69254719174E+02  0.47000000000E+01 0. -1.
        -11    1    6    6    0    0 -0.16433736631E+03  0.48609312391E+02 -0.28721085811E+02  0.17376575033E+03  0.00000000000E+00 0.  1.
         12    1    6    6    0    0 -0.48092611651E+02  0.18023405780E+02  0.32257989414E+02  0.60649157721E+02  0.00000000000E+00 0. -1.
         -5    1    3    3    0  503  0.85642291770E+01 -0.13694613358E+02 -0.10457097619E+01  0.16854434589E+02  0.47000000000E+01 0.  1.
         13    1    4    4    0    0  0.31890610120E+02  0.18215657675E+02  0.14210286605E+03  0.14677208774E+03  0.00000000000E+00 0. -1.
        -14    1    4    4    0    0  0.19096824190E+03 -0.77344863713E+02  0.63724193174E+03  0.66972261193E+03  0.00000000000E+00 0.  1.
</event>
<event>
12    1  0.1623092E-001  0.1840910E+03  0.7818608E-02  0.1164000E+00
         21   -1    0    0  501  502  0.00000000000E+00  0.00000000000E+00  0.56517940201E+02  0.56517940201E+02  0.00000000000E+00 0. -1.
         21   -1    0    0  502  503 -0.00000000000E+00 -0.00000000000E+00 -0.99476469484E+03  0.99476469484E+03  0.00000000000E+00 0. -1.
         -6    2    1    2    0  503 -0.37588984087E+02 -0.54133973199E+02 -0.80129922574E+03  0.82217391949E+03  0.17188974939E+03 0.  0.
        -24    2    3    3    0    0 -0.60226706056E+02 -0.22904523620E+02 -0.24007617552E+03  0.25960734826E+03  0.74883455391E+02 0.  0.
          6    2    1    2  501    0  0.37588984087E+02  0.54133973199E+02 -0.13694752891E+03  0.22910871555E+03  0.17144316577E+03 0.  0.
         24    2    5    5    0    0  0.22517093929E+02  0.10219680434E+03 -0.11009296105E+03  0.17183345541E+03  0.80343450192E+02 0.  0.
          5    1    5    5  501    0  0.15071890157E+02 -0.48062831139E+02 -0.26854567851E+02  0.57275260143E+02  0.47000000000E+01 0. -1.
        -11    1    6    6    0    0  0.20877152930E+02  0.15722429147E+02 -0.73341683059E+02  0.77859185500E+02  0.00000000000E+00 0.  1.
         12    1    6    6    0    0  0.16399409999E+01  0.86474375191E+02 -0.36751277996E+02  0.93974269912E+02  0.00000000000E+00 0. -1.
         -5    1    3    3    0  503  0.22637721969E+02 -0.31229449579E+02 -0.56122305022E+03  0.56256657124E+03  0.47000000000E+01 0.  1.
         11    1    4    4    0    0 -0.28563166057E+01 -0.36118760202E+01 -0.15569194469E+03  0.15576002643E+03  0.00000000000E+00 0. -1.
        -12    1    4    4    0    0 -0.57370389450E+02 -0.19292647600E+02 -0.84384230831E+02  0.10384732182E+03  0.00000000000E+00 0.  1.
</event>
<event>
12    1  0.1623092E-001  0.1896980E+03  0.7818608E-02  0.1159392E+00
         21   -1    0    0  503  502  0.00000000000E+00  0.00000000000E+00  0.30994416569E+03  0.30994416569E+03  0.00000000000E+00 0. -1.
         21   -1    0    0  501  503 -0.00000000000E+00 -0.00000000000E+00 -0.11464491527E+03  0.11464491527E+03  0.00000000000E+00 0. -1.
          6    2    1    2  501    0 -0.19039772638E+02  0.75290362683E+02  0.87477579908E+02  0.20889632482E+03  0.17307280515E+03 0.  0.
         24    2    3    3    0    0 -0.65257154295E+02  0.81328026069E+02  0.94146095173E+02  0.16157763040E+03  0.79819166855E+02 0.  0.
         -6    2    1    2    0  502  0.19039772638E+02 -0.75290362683E+02  0.10782167051E+03  0.21569275614E+03  0.16990203284E+03 0.  0.
        -24    2    5    5    0    0 -0.50116235326E+02 -0.38395480961E+02  0.88692503970E+02  0.13487319943E+03  0.79615134625E+02 0.  0.
          5    1    3    3  501    0  0.46217381657E+02 -0.60376633866E+01 -0.66685152658E+01  0.47318694426E+02  0.47000000000E+01 0. -1.
        -13    1    4    4    0    0 -0.63764764584E+02  0.62624242879E+02  0.29273634894E+02  0.94046194492E+02  0.00000000000E+00 0.  1.
         14    1    4    4    0    0 -0.14923897111E+01  0.18703783191E+02  0.64872460280E+02  0.67531435905E+02  0.00000000000E+00 0. -1.
         -5    1    5    5    0  502  0.69156007964E+02 -0.36894881722E+02  0.19129166538E+02  0.80819556712E+02  0.47000000000E+01 0.  1.
         11    1    6    6    0    0 -0.20953023915E+02 -0.52307673206E+02  0.85508311147E+02  0.10240504462E+03  0.00000000000E+00 0. -1.
        -12    1    6    6    0    0 -0.29163211411E+02  0.13912192246E+02  0.31841928236E+01  0.32468154810E+02  0.00000000000E+00 0.  1.
</event>
<event>
12    1  0.1623092E-001  0.2796759E+03  0.7818608E-02  0.1096073E+00
         21   -1    0    0  503  502  0.00000000000E+00  0.00000000000E+00  0.33376633943E+03  0.33376633943E+03  0.00000000000E+00 0.  1.
         21   -1    0    0  501  503 -0.00000000000E+00 -0.00000000000E+00 -0.83769464075E+03  0.83769464075E+03  0.00000000000E+00 0. -1.
          6    2    1    2  501    0 -0.19756697009E+03  0.96653598771E+02 -0.74938578703E+03  0.79934811899E+03  0.17030482001E+03 0.  0.
         24    2    3    3    0    0 -0.13857821977E+03  0.35856624227E+02 -0.29985456511E+03  0.34188079311E+03  0.80499043369E+02 0.  0.
         -6    2    1    2    0  502  0.19756697009E+03 -0.96653598771E+02  0.24545748570E+03  0.37211286118E+03  0.17275409790E+03 0.  0.
        -24    2    5    5    0    0  0.78496420553E+02 -0.57761465429E+01  0.16241378943E+03  0.20078028231E+03  0.87974035150E+02 0.  0.
          5    1    3    3  501    0 -0.58988750323E+02  0.60796974544E+02 -0.44953122191E+03  0.45746732588E+03  0.47000000000E+01 0. -1.
        -13    1    4    4    0    0 -0.94351527870E+01 -0.17836960405E+02 -0.17191317987E+02  0.26508879243E+02  0.00000000000E+00 0.  1.
         14    1    4    4    0    0 -0.12914306698E+03  0.53693584632E+02 -0.28266324713E+03  0.31537191387E+03  0.00000000000E+00 0. -1.
         -5    1    5    5    0  502  0.11907054954E+03 -0.90877452228E+02  0.83043696278E+02  0.17133257887E+03  0.47000000000E+01 0.  1.
         13    1    6    6    0    0  0.52705851287E+02 -0.12314331132E+02  0.22930849993E+02  0.58782424180E+02  0.00000000000E+00 0. -1.
        -14    1    6    6    0    0  0.25790569266E+02  0.65381845892E+01  0.13948293943E+03  0.14199785813E+03  0.00000000000E+00 0.  1.
</event>
<event>
12    1  0.1623092E-001  0.1867960E+03  0.7818608E-02  0.1161518E+00
         21   -1    0    0  503  502  0.00000000000E+00  0.00000000000E+00  0.11027114924E+04  0.11027114924E+04  0.00000000000E+00 0. -1.
         21   -1    0    0  501  503 -0.00000000000E+00 -0.00000000000E+00 -0.31595858131E+02  0.31595858131E+02  0.00000000000E+00 0.  1.
          6    2    1    2  501    0 -0.69047487377E+02 -0.28762325437E+02  0.51343131845E+03  0.54635561728E+03  0.17116633692E+03 0.  0.
         24    2    3    3    0    0 -0.90280504272E+02  0.77084400472E+01  0.22396768231E+03  0.25379409488E+03  0.77716988994E+02 0.  0.
         -6    2    1    2    0  502  0.69047487377E+02  0.28762325437E+02  0.55768431586E+03  0.58795173329E+03  0.17053040094E+03 0.  0.
        -24    2    5    5    0    0  0.32439632202E+02  0.20272899314E+02  0.53769217253E+03  0.54512672644E+03  0.81160059767E+02 0.  0.
          5    1    3    3  501    0  0.21233016895E+02 -0.36470765484E+02  0.28946363614E+03  0.29256152240E+03  0.47000000000E+01 0. -1.
        -11    1    4    4    0    0 -0.13440479714E+02  0.22642416199E+02  0.12431846180E+03  0.12707637644E+03  0.00000000000E+00 0.  1.
         12    1    4    4    0    0 -0.76840024558E+02 -0.14933976151E+02  0.99649220511E+02  0.12671771844E+03  0.00000000000E+00 0. -1.
         -5    1    5    5    0  502  0.36607855175E+02  0.84894261229E+01  0.19992143335E+02  0.42825006848E+02  0.47000000000E+01 0.  1.
         11    1    6    6    0    0  0.81937646100E+01 -0.18560295758E+02  0.38941064223E+03  0.38993880371E+03  0.00000000000E+00 0. -1.
        -12    1    6    6    0    0  0.24245867592E+02  0.38833195072E+02  0.14828153030E+03  0.15518792274E+03  0.00000000000E+00 0.  1.
</event>
<event>
12    1  0.1623092E-001  0.1763665E+03  0.7818608E-02  0.1171843E+00
         21   -1    0    0  503  502  0.00000000000E+00  0.00000000000E+00  0.95408922722E+02  0.95408922722E+02  0.00000000000E+00 0. -1.
         21   -1    0    0  501  503 -0.00000000000E+00 -0.00000000000E+00 -0.34034454530E+03  0.34034454530E+03  0.00000000000E+00 0. -1.
          6    2    1    2  501    0 -0.77083222126E+01 -0.34871517946E+02 -0.17297669725E+03  0.24703459210E+03  0.17271279891E+03 0.  0.
         24    2    3    3    0    0  0.61368803419E+02 -0.27505099788E+02 -0.12663564674E+03  0.16339550815E+03  0.78350778616E+02 0.  0.
         -6    2    1    2    0  502  0.77083222126E+01  0.34871517946E+02 -0.71958925329E+02  0.18871887592E+03  0.17076675965E+03 0.  0.
        -24    2    5    5    0    0  0.53068186343E+02 -0.60821154441E+00 -0.86449007835E+02  0.12915058763E+03  0.79936481080E+02 0.  0.
          5    1    3    3  501    0 -0.69077125631E+02 -0.73664181578E+01 -0.46341050506E+02  0.83639083950E+02  0.47000000000E+01 0. -1.
        -13    1    4    4    0    0  0.84747542946E+01 -0.19117918503E+01 -0.97358413805E+02  0.97745266622E+02  0.00000000000E+00 0.  1.
         14    1    4    4    0    0  0.52894049124E+02 -0.25593307938E+02 -0.29277232937E+02  0.65650241526E+02  0.00000000000E+00 0. -1.
         -5    1    5    5    0  502 -0.45359864130E+02  0.35479729491E+02  0.14490082506E+02  0.59568288289E+02  0.47000000000E+01 0.  1.
         13    1    6    6    0    0  0.90394349164E+01  0.35548130328E+02 -0.48034465364E+02  0.60437495119E+02  0.00000000000E+00 0. -1.
        -14    1    6    6    0    0  0.44028751426E+02 -0.36156341872E+02 -0.38414542471E+02  0.68713092515E+02  0.00000000000E+00 0.  1.
</event>
<event>
12    1  0.1623092E-001  0.1978073E+03  0.7818608E-02  0.1151681E+00
         21   -1    0    0  501  502  0.00000000000E+00  0.00000000000E+00  0.19053145355E+03  0.19053145355E+03  0.00000000000E+00 0. -1.
         21   -1    0    0  502  503 -0.00000000000E+00 -0.00000000000E+00 -0.20888726004E+03  0.20888726004E+03  0.00000000000E+00 0. -1.
         -6    2    1    2    0  503 -0.96256332479E+02  0.16115546799E+02 -0.36498602083E+02  0.20114641907E+03  0.17205447266E+03 0.  0.
        -24    2    3    3    0    0 -0.37389308491E+01 -0.20757925897E+02 -0.55290162185E+02  0.99685415116E+02  0.80220376843E+02 0.  0.
          6    2    1    2  501    0  0.96256332479E+02 -0.16115546799E+02  0.18142795599E+02  0.19827229452E+03  0.17163259990E+03 0.  0.
         24    2    5    5    0    0 -0.18395179125E+02 -0.34699040636E+01  0.13106720766E+01  0.81609139340E+02  0.79422357767E+02 0.  0.
          5    1    5    5  501    0  0.11465151160E+03 -0.12645642735E+02  0.16832123522E+02  0.11666315518E+03  0.47000000000E+01 0. -1.
        -11    1    6    6    0    0  0.60391398553E+01 -0.70082023063E+01  0.37040880445E+02  0.38178697383E+02  0.00000000000E+00 0.  1.
         12    1    6    6    0    0 -0.24434318981E+02  0.35382982427E+01 -0.35730208368E+02  0.43430441957E+02  0.00000000000E+00 0. -1.
         -5    1    3    3    0  503 -0.92517401630E+02  0.36873472695E+02  0.18791560102E+02  0.10146100396E+03  0.47000000000E+01 0.  1.
         13    1    4    4    0    0 -0.22382745779E+02  0.49562852965E+01 -0.62965821954E+02  0.67009303883E+02  0.00000000000E+00 0. -1.
        -14    1    4    4    0    0  0.18643814930E+02 -0.25714211193E+02  0.76756597685E+01  0.32676111233E+02  0.00000000000E+00 0.  1.
</event>
<event>
12    1  0.1623092E-001  0.2003440E+03  0.7818608E-02  0.1149598E+00
         21   -1    0    0  503  502  0.00000000000E+00  0.00000000000E+00  0.47340939600E+03  0.47340939600E+03  0.00000000000E+00 0. -1.
         21   -1    0    0  501  503 -0.00000000000E+00 -0.00000000000E+00 -0.11997741736E+03  0.11997741736E+03  0.00000000000E+00 0.  1.
          6    2    1    2  501    0 -0.10303200997E+03 -0.52483923287E+01  0.15128762876E+02  0.20021157517E+03  0.17091709881E+03 0.  0.
         24    2    3    3    0    0 -0.12422173886E+03  0.29761983583E+02  0.36668940205E+02  0.15372716626E+03  0.77269750874E+02 0.  0.
         -6    2    1    2    0  502  0.10303200997E+03  0.52483923287E+01  0.33830321576E+03  0.39317523820E+03  0.17173980737E+03 0.  0.
        -24    2    5    5    0    0  0.45451184398E+02 -0.90549018920E+01  0.31718485409E+03  0.33002295479E+03  0.78492787027E+02 0.  0.
          5    1    3    3  501    0  0.21189728888E+02 -0.35010375912E+02 -0.21540177329E+02  0.46484408905E+02  0.47000000000E+01 0. -1.
        -13    1    4    4    0    0  0.44826771549E+01  0.15855149776E+02 -0.58273711257E+01  0.17476796707E+02  0.00000000000E+00 0.  1.
         14    1    4    4    0    0 -0.12870441601E+03  0.13906833807E+02  0.42496311331E+02  0.13625036956E+03  0.00000000000E+00 0. -1.
         -5    1    5    5    0  502  0.57580825571E+02  0.14303294221E+02  0.21118361671E+02  0.63152283400E+02  0.47000000000E+01 0.  1.
         11    1    6    6    0    0  0.37134720833E+02  0.31972593459E+02  0.15788771521E+03  0.16531716438E+03  0.00000000000E+00 0. -1.
        -12    1    6    6    0    0  0.83164635648E+01 -0.41027495351E+02  0.15929713888E+03  0.16470579042E+03  0.00000000000E+00 0.  1.
</event>
<event>
12    1  0.1623092E-001  0.3383134E+03  0.7818608E-02  0.1067701E+00
         21   -1    0    0  501  502  0.00000000000E+00  0.00000000000E+00  0.13908368113E+03  0.13908368113E+03  0.00000000000E+00 0. -1.
         21   -1    0    0  502  503 -0.00000000000E+00 -0.00000000000E+00 -0.82845450228E+03  0.82845450228E+03  0.00000000000E+00 0.  1.
         -6    2    1    2    0  503 -0.27292162172E+03  0.99268252488E+02 -0.39791866893E+03  0.52229804477E+03  0.17353841917E+03 0.  0.
        -24    2    3    3    0    0 -0.52543316028E+02  0.45696922316E+02 -0.82024525413E+02  0.13339229147E+03  0.78844605942E+02 0.  0.
          6    2    1    2  501    0  0.27292162172E+03 -0.99268252488E+02 -0.29145215222E+03  0.44524013864E+03  0.17015882719E+03 0.  0.
         24    2    5    5    0    0  0.28202255051E+03 -0.97129377054E+02 -0.30095841567E+03  0.43110292754E+03  0.79391002575E+02 0.  0.
          5    1    5    5  501    0 -0.91009287880E+01 -0.21388754337E+01  0.95062634496E+01  0.14137211100E+02  0.47000000000E+01 0. -1.
        -13    1    6    6    0    0  0.19069813392E+03 -0.43989791180E+02 -0.23791096149E+03  0.30806250276E+03  0.00000000000E+00 0.  1.
         14    1    6    6    0    0  0.91324416591E+02 -0.53139585874E+02 -0.63047454178E+02  0.12304042478E+03  0.00000000000E+00 0. -1.
         -5    1    3    3    0  503 -0.22037830569E+03  0.53571330172E+02 -0.31589414352E+03  0.38890575330E+03  0.47000000000E+01 0.  1.
         11    1    4    4    0    0 -0.66011699131E+02  0.41358867097E+02 -0.37079933512E+02  0.86272949289E+02  0.00000000000E+00 0. -1.
        -12    1    4    4    0    0  0.13468383103E+02  0.43380552184E+01 -0.44944591901E+02  0.47119342182E+02  0.00000000000E+00 0.  1.
</event>
<event>
12    1  0.1623092E-001  0.2266240E+03  0.7818608E-02  0.1129447E+00
         21   -1    0    0  501  502  0.00000000000E+00  0.00000000000E+00  0.10681374168E+03  0.10681374168E+03  0.00000000000E+00 0. -1.
         21   -1    0    0  502  503 -0.00000000000E+00 -0.00000000000E+00 -0.69324866294E+03  0.69324866294E+03  0.00000000000E+00 0. -1.
         -6    2    1    2    0  503 -0.14232891822E+03 -0.18996774716E+02 -0.51814934660E+03  0.56554148524E+03  0.17532834263E+03 0.  0.
        -24    2    3    3    0    0 -0.63674875069E+02  0.50603860427E+02 -0.20010908358E+03  0.23057520959E+03  0.80660036834E+02 0.  0.
          6    2    1    2  501    0  0.14232891822E+03  0.18996774716E+02 -0.68285574663E+02  0.23452091938E+03  0.17239125125E+03 0.  0.
         24    2    5    5    0    0  0.97475726575E+02 -0.50149755397E+02 -0.16149791205E+02  0.13688239551E+03  0.80370760889E+02 0.  0.
          5    1    5    5  501    0  0.44853191646E+02  0.69146530114E+02 -0.52135783458E+02  0.97638523874E+02  0.47000000000E+01 0. -1.
        -11    1    6    6    0    0 -0.11842762666E+02  0.80371547616E+00  0.74096749233E+01  0.13992864918E+02  0.00000000000E+00 0.  1.
         12    1    6    6    0    0  0.10931848924E+03 -0.50953470873E+02 -0.23559466129E+02  0.12288953059E+03  0.00000000000E+00 0. -1.
         -5    1    3    3    0  503 -0.78654043152E+02 -0.69600635143E+02 -0.31804026302E+03  0.33496627565E+03  0.47000000000E+01 0.  1.
         11    1    4    4    0    0 -0.81060801111E+02  0.34277164119E+02 -0.17534946420E+03  0.19619687065E+03  0.00000000000E+00 0. -1.
        -12    1    4    4    0    0  0.17385926042E+02  0.16326696308E+02 -0.24759619375E+02  0.34378338940E+02  0.00000000000E+00 0.  1.
</event>
<event>
12    1  0.1623092E-001  0.2022416E+03  0.7818608E-02  0.1148113E+00
         21   -1    0    0  503  502  0.00000000000E+00  0.00000000000E+00  0.71903553943E+03  0.71903553943E+03  0.00000000000E+00 0.  1.
         21   -1    0    0  501  503 -0.00000000000E+00 -0.00000000000E+00 -0.62434069702E+02  0.62434069702E+02  0.00000000000E+00 0.  1.
          6    2    1    2  501    0 -0.64360538670E+02 -0.82602369491E+02  0.20919191338E+03  0.29096892590E+03  0.17302089131E+03 0.  0.
         24    2    3    3    0    0 -0.21724181283E+02  0.78080807303E-01  0.17246123663E+03  0.19084326262E+03  0.78780242431E+02 0.  0.
         -6    2    1    2    0  502  0.64360538670E+02  0.82602369491E+02  0.44740955635E+03  0.49050068324E+03  0.17161054385E+03 0.  0.
        -24    2    5    5    0    0  0.22720338052E+02  0.87734200620E+02  0.17661739916E+03  0.21643732488E+03  0.86243296533E+02 0.  0.
          5    1    3    3  501    0 -0.42636357387E+02 -0.82680450298E+02  0.36730676756E+02  0.10012566328E+03  0.47000000000E+01 0. -1.
        -11    1    4    4    0    0  0.12937098268E+01 -0.15120028932E+02 -0.99479187437E+00  0.15207845702E+02  0.00000000000E+00 0.  1.
         12    1    4    4    0    0 -0.23017891110E+02  0.15198109739E+02  0.17345602850E+03  0.17563541691E+03  0.00000000000E+00 0. -1.
         -5    1    5    5    0  502  0.41640200619E+02 -0.51318311290E+01  0.27079215719E+03  0.27406335836E+03  0.47000000000E+01 0.  1.
         11    1    6    6    0    0  0.29282067099E+02 -0.32309876048E+01  0.21410829939E+02  0.36418434524E+02  0.00000000000E+00 0. -1.
        -12    1    6    6    0    0 -0.65617290470E+01  0.90965188225E+02  0.15520656922E+03  0.18001889036E+03  0.00000000000E+00 0.  1.
</event>
<event>
12    1  0.1623092E-001  0.1962902E+03  0.7818608E-02  0.1152943E+00
         21   -1    0    0  503  502  0.00000000000E+00  0.00000000000E+00  0.29052841508E+03  0.29052841508E+03  0.00000000000E+00 0. -1.
         21   -1    0    0  501  503 -0.00000000000E+00 -0.00000000000E+00 -0.21392821866E+03  0.21392821866E+03  0.00000000000E+00 0.  1.
          6    2    1    2  501    0 -0.86512601816E+02 -0.24142181824E+02  0.19389510975E+03  0.27579111359E+03  0.17435065109E+03 0.  0.
         24    2    3    3    0    0 -0.68485776057E+02  0.48193741367E+02  0.14688033558E+03  0.18753052657E+03  0.81122914074E+02 0.  0.
         -6    2    1    2    0  502  0.86512601816E+02  0.24142181824E+02 -0.11729491333E+03  0.22866552014E+03  0.17453523482E+03 0.  0.
        -24    2    5    5    0    0  0.87605616508E+02  0.31134235216E+02 -0.15067979651E+03  0.19421666071E+03  0.79822462845E+02 0.  0.
          5    1    3    3  501    0 -0.18026825759E+02 -0.72335923190E+02  0.47014774168E+02  0.88260587018E+02  0.47000000000E+01 0. -1.
        -11    1    4    4    0    0  0.91442380907E+01  0.26681824969E+01 -0.51740209200E+01  0.10840054455E+02  0.00000000000E+00 0.  1.
         12    1    4    4    0    0 -0.77630014148E+02  0.45525558870E+02  0.15205435650E+03  0.17669047212E+03  0.00000000000E+00 0. -1.
         -5    1    5    5    0  502 -0.10930146925E+01 -0.69920533922E+01  0.33384883175E+02  0.34448859435E+02  0.47000000000E+01 0.  1.
         13    1    6    6    0    0  0.31694716773E+01  0.34244710805E+02 -0.23973923689E+02  0.41922485445E+02  0.00000000000E+00 0. -1.
        -14    1    6    6    0    0  0.84436144831E+02 -0.31104755891E+01 -0.12670587282E+03  0.15229417526E+03  0.00000000000E+00 0.  1.
</event>
<event>
12    1  0.1623092E-001  0.1982663E+03  0.7818608E-02  0.1151658E+00
         21   -1    0    0  501  502  0.00000000000E+00  0.00000000000E+00  0.16173182290E+03  0.16173182290E+03  0.00000000000E+00 0.  1.
         21   -1    0    0  502  503 -0.00000000000E+00 -0.00000000000E+00 -0.30576610786E+03  0.30576610786E+03  0.00000000000E+00 0.  1.
         -6    2    1    2    0  503  0.33670761134E+02  0.88128851281E+02 -0.17970949504E+03  0.26604755543E+03  0.17200402484E+03 0.  0.
        -24    2    3    3    0    0  0.53845883612E+01  0.13213971877E+02 -0.16415637273E+02  0.84115368310E+02  0.81254656446E+02 0.  0.
          6    2    1    2  501    0 -0.33670761134E+02 -0.88128851281E+02  0.35675210083E+02  0.20145037533E+03  0.17438210494E+03 0.  0.
         24    2    5    5    0    0 -0.33605902590E+02 -0.51026885967E+02  0.89988036927E+02  0.13550696629E+03  0.80815786463E+02 0.  0.
          5    1    5    5  501    0 -0.64858543945E-01 -0.37101965314E+02 -0.54312826844E+02  0.65943409046E+02  0.47000000000E+01 0. -1.
        -11    1    6    6    0    0 -0.52567476101E+01 -0.67083493464E+02  0.70894571223E+02  0.97743893516E+02  0.00000000000E+00 0.  1.
         12    1    6    6    0    0 -0.28349154980E+02  0.16056607497E+02  0.19093465704E+02  0.37763072770E+02  0.00000000000E+00 0. -1.
         -5    1    3    3    0  503  0.28286172773E+02  0.74914879404E+02 -0.16329385777E+03  0.18193218712E+03  0.47000000000E+01 0.  1.
         13    1    4    4    0    0  0.30791137078E+02 -0.17285390976E+02  0.96761021444E+01  0.36612918710E+02  0.00000000000E+00 0. -1.
        -14    1    4    4    0    0 -0.25406548717E+02  0.30499362853E+02 -0.26091739417E+02  0.47502449600E+02  0.00000000000E+00 0.  1.
</event>
<event>
12    1  0.1623092E-001  0.3197576E+03  0.7818608E-02  0.1075810E+00
         21   -1    0    0  503  502  0.00000000000E+00  0.00000000000E+00  0.88179635199E+02  0.88179635199E+02  0.00000000000E+00 0. -1.
         21   -1    0    0  501  503 -0.00000000000E+00 -0.00000000000E+00 -0.12048100010E+04  0.12048100010E+04  0.00000000000E+00 0.  1.
          6    2    1    2  501    0 -0.26334315956E+03 -0.60886848684E+02 -0.68614733463E+03  0.75699608368E+03  0.17084518681E+03 0.  0.
         24    2    3    3    0    0 -0.15867948212E+03 -0.12962486880E+02 -0.55444773291E+03  0.58201578501E+03  0.77349087642E+02 0.  0.
         -6    2    1    2    0  502  0.26334315956E+03  0.60886848684E+02 -0.43048303116E+03  0.53599355251E+03  0.17004887587E+03 0.  0.
        -24    2    5    5    0    0  0.10380745650E+03  0.67351137569E+02 -0.13832175233E+03  0.20301648058E+03  0.82283780071E+02 0.  0.
          5    1    3    3  501    0 -0.10466367744E+03 -0.47924361805E+02 -0.13169960172E+03  0.17498029867E+03  0.47000000000E+01 0. -1.
        -11    1    4    4    0    0 -0.15105322923E+03  0.98603922434E+01 -0.44803150976E+03  0.47291282403E+03  0.00000000000E+00 0.  1.
         12    1    4    4    0    0 -0.76262528924E+01 -0.22822879123E+02 -0.10641622315E+03  0.10910296098E+03  0.00000000000E+00 0. -1.
         -5    1    5    5    0  502  0.15953570306E+03 -0.64642888852E+01 -0.29216127883E+03  0.33297707193E+03  0.47000000000E+01 0.  1.
         13    1    6    6    0    0  0.79580130832E+02  0.84620425298E+02 -0.12428707109E+03  0.17012022114E+03  0.00000000000E+00 0. -1.
        -14    1    6    6    0    0  0.24227325665E+02 -0.17269287728E+02 -0.14034681239E+02  0.32896259438E+02  0.00000000000E+00 0.  1.
</event>
<event>
12    1  0.1623092E-001  0.2435929E+03  0.7818608E-02  0.1117585E+00
         21   -1    0    0  501  502  0.00000000000E+00  0.00000000000E+00  0.48358143754E+02  0.48358143754E+02  0.00000000000E+00 0. -1.
         21   -1    0    0  502  503 -0.00000000000E+00 -0.00000000000E+00 -0.12522267022E+04  0.12522267022E+04  0.00000000000E+00 0. -1.
         -6    2    1    2    0  503 -0.13326503844E+03  0.10680042482E+03 -0.49974071985E+03  0.55551202224E+03  0.17229892211E+03 0.  0.
        -24    2    3    3    0    0 -0.44020111899E+02 -0.12512541285E+02 -0.15101023010E+03  0.17625579582E+03  0.78534591261E+02 0.  0.
          6    2    1    2  501    0  0.13326503844E+03 -0.10680042482E+03 -0.70412783861E+03  0.74507282373E+03  0.17369973618E+03 0.  0.
         24    2    5    5    0    0  0.11222056866E+03 -0.50370398102E+02 -0.25661721419E+03  0.29350326476E+03  0.71841066035E+02 0.  0.
          5    1    5    5  501    0  0.21044469772E+02 -0.56430026714E+02 -0.44751062442E+03  0.45156955898E+03  0.47000000000E+01 0. -1.
        -13    1    6    6    0    0  0.50884007073E+02  0.12007031118E+02 -0.12468229713E+03  0.13519994892E+03  0.00000000000E+00 0.  1.
         14    1    6    6    0    0  0.61336561592E+02 -0.62377429220E+02 -0.13193491706E+03  0.15830331583E+03  0.00000000000E+00 0. -1.
         -5    1    3    3    0  503 -0.89244926538E+02  0.11931296610E+03 -0.34873048976E+03  0.37925622642E+03  0.47000000000E+01 0.  1.
         11    1    4    4    0    0 -0.18503470048E+02 -0.36987924930E+02 -0.12687659693E+03  0.13344720245E+03  0.00000000000E+00 0. -1.
        -12    1    4    4    0    0 -0.25516641851E+02  0.24475383645E+02 -0.24133633166E+02  0.42808593363E+02  0.00000000000E+00 0.  1.
</event>
<event>
12    1  0.1623092E-001  0.1875598E+03  0.7818608E-02  0.1160697E+00
         21   -1    0    0  503  502  0.00000000000E+00  0.00000000000E+00  0.51311905653E+02  0.51311905653E+02  0.00000000000E+00 0.  1.
         21   -1    0    0  501  503 -0.00000000000E+00 -0.00000000000E+00 -0.13101080783E+04  0.13101080783E+04  0.00000000000E+00 0. -1.
          6    2    1    2  501    0  0.54071532396E+02 -0.51717859632E+02 -0.10994178598E+04  0.11152896636E+04  0.17190967321E+03 0.  0.
         24    2    3    3    0    0  0.63923462410E+02  0.25664913716E+02 -0.67512967224E+03  0.68386445547E+03  0.84413401041E+02 0.  0.
         -6    2    1    2    0  502 -0.54071532396E+02  0.51717859632E+02 -0.15937831288E+03  0.24613032035E+03  0.17198901232E+03 0.  0.
        -24    2    5    5    0    0 -0.52104739809E+02  0.57840564861E+02 -0.18689617317E+03  0.21748283482E+03  0.79423982775E+02 0.  0.
          5    1    3    3  501    0 -0.98519300135E+01 -0.77382773348E+02 -0.42428818758E+03  0.43142520818E+03  0.47000000000E+01 0. -1.
        -13    1    4    4    0    0  0.35484607262E+02 -0.37424499753E+01 -0.83271944673E+02  0.90594591747E+02  0.00000000000E+00 0.  1.
         14    1    4    4    0    0  0.28438855148E+02  0.29407363691E+02 -0.59185772756E+03  0.59326986372E+03  0.00000000000E+00 0. -1.
         -5    1    5    5    0  502 -0.19667925868E+01 -0.61227052283E+01  0.27517860292E+02  0.28647485534E+02  0.47000000000E+01 0.  1.
         13    1    6    6    0    0 -0.35345453566E+02 -0.11351033095E+02 -0.89045991356E+02  0.96474533514E+02  0.00000000000E+00 0. -1.
        -14    1    6    6    0    0 -0.16759286244E+02  0.69191597955E+02 -0.97850181818E+02  0.12100830131E+03  0.00000000000E+00 0.  1.
</event>
<event>
12    1  0.1623092E-001  0.1950335E+03  0.7818608E-02  0.1154502E+00
         21   -1    0    0  501  502  0.00000000000E+00  0.00000000000E+00  0.32827131279E+02  0.32827131279E+02  0.00000000000E+00 0. -1.
         21   -1    0    0  502  503 -0.00000000000E+00 -0.00000000000E+00 -0.16829435882E+04  0.16829435882E+04  0.00000000000E+00 0. -1.
         -6    2    1    2    0  503 -0.15135785876E+02 -0.89202215115E+02 -0.13133399599E+04  0.13277424168E+04  0.17277716305E+03 0.  0.
        -24    2    3    3    0    0  0.38974750071E+02 -0.10658374186E+03 -0.95114147094E+03  0.96108194316E+03  0.78289709108E+02 0.  0.
          6    2    1    2  501    0  0.15135785876E+02  0.89202215115E+02 -0.33677649706E+03  0.38802830265E+03  0.17018057320E+03 0.  0.
         24    2    5    5    0    0 -0.13127987027E+02 -0.60670380191E+01 -0.87342422857E+02  0.11948683691E+03  0.80244952304E+02 0.  0.
          5    1    5    5  501    0  0.28263772903E+02  0.95269253134E+02 -0.24943407420E+03  0.26854146574E+03  0.47000000000E+01 0. -1.
        -13    1    6    6    0    0 -0.37168926786E+02  0.67642048954E+01 -0.83907487077E+02  0.92020378036E+02  0.00000000000E+00 0.  1.
         14    1    6    6    0    0  0.24040939759E+02 -0.12831242914E+02 -0.34349357796E+01  0.27466458873E+02  0.00000000000E+00 0. -1.
         -5    1    3    3    0  503 -0.54110535947E+02  0.17381526743E+02 -0.36219848894E+03  0.36666047369E+03  0.47000000000E+01 0.  1.
         11    1    4    4    0    0 -0.14220847894E+02 -0.68105019563E+02 -0.58244742648E+03  0.58658804183E+03  0.00000000000E+00 0. -1.
        -12    1    4    4    0    0  0.53195597965E+02 -0.38478722295E+02 -0.36869404446E+03  0.37449390133E+03  0.00000000000E+00 0.  1.
</event>
<event>
12    1  0.1623092E-001  0.1934371E+03  0.7818608E-02  0.1155958E+00
         21   -1    0    0  501  502  0.00000000000E+00  0.00000000000E+00  0.60220475423E+02  0.60220475423E+02  0.00000000000E+00 0. -1.
         21   -1    0    0  502  503 -0.00000000000E+00 -0.00000000000E+00 -0.11164881958E+04  0.11164881958E+04  0.00000000000E+00 0. -1.
         -6    2    1    2    0  503 -0.29045881449E+02  0.82802206350E+02 -0.92122053500E+03  0.94079414391E+03  0.16954786492E+03 0.  0.
        -24    2    3    3    0    0 -0.62486517957E+02  0.10552761605E+03 -0.64328947823E+03  0.65989828645E+03  0.81263478826E+02 0.  0.
          6    2    1    2  501    0  0.29045881449E+02 -0.82802206350E+02 -0.13504718536E+03  0.23591452729E+03  0.17238924940E+03 0.  0.
         24    2    5    5    0    0  0.43706867853E+02 -0.10123338143E+03 -0.15389552417E+03  0.20538580945E+03  0.79630462444E+02 0.  0.
          5    1    5    5  501    0 -0.14660986403E+02  0.18431175081E+02  0.18848338816E+02  0.30528717846E+02  0.47000000000E+01 0. -1.
        -13    1    6    6    0    0  0.59684702947E+02 -0.82519567024E+02 -0.86432175713E+02  0.13357493667E+03  0.00000000000E+00 0.  1.
         14    1    6    6    0    0 -0.15977835095E+02 -0.18713814407E+02 -0.67463348459E+02  0.71810872779E+02  0.00000000000E+00 0. -1.
         -5    1    3    3    0  503  0.33440636507E+02 -0.22725409701E+02 -0.27793105678E+03  0.28089585746E+03  0.47000000000E+01 0.  1.
         11    1    4    4    0    0 -0.13260883713E+02  0.42676811787E+02 -0.42723731757E+03  0.42956825630E+03  0.00000000000E+00 0. -1.
        -12    1    4    4    0    0 -0.49225634243E+02  0.62850804264E+02 -0.21605216066E+03  0.23033003015E+03  0.00000000000E+00 0.  1.
</event>
<event>
12    1  0.1623092E-001  0.2315233E+03  0.7818608E-02  0.1125642E+00
         21   -1    0    0  501  502  0.00000000000E+00  0.00000000000E+00  0.40120210555E+03  0.40120210555E+03  0.00000000000E+00 0.  1.
         21   -1    0    0  502  503 -0.00000000000E+00 -0.00000000000E+00 -0.19614420951E+03  0.19614420951E+03  0.00000000000E+00 0.  1.
         -6    2    1    2    0  503  0.15424460236E+03 -0.16369691977E+02 -0.66488678945E+02  0.24049816416E+03  0.17134543579E+03 0.  0.
        -24    2    3    3    0    0  0.23712961113E+02  0.34991996537E+02 -0.37061560774E+02  0.97094615748E+02  0.79164769777E+02 0.  0.
          6    2    1    2  501    0 -0.15424460236E+03  0.16369691977E+02  0.27154657499E+03  0.35684815090E+03  0.17188279797E+03 0.  0.
         24    2    5    5    0    0 -0.18273429094E+03  0.10112622216E+01  0.23824159597E+03  0.31016994027E+03  0.77804177662E+02 0.  0.
          5    1    5    5  501    0  0.28489688578E+02  0.15358429755E+02  0.33304979016E+02  0.46678210624E+02  0.47000000000E+01 0. -1.
        -13    1    6    6    0    0 -0.12459402091E+03  0.34526483817E+02  0.13407320458E+03  0.18625620075E+03  0.00000000000E+00 0.  1.
         14    1    6    6    0    0 -0.58140270032E+02 -0.33515221596E+02  0.10416839140E+03  0.12391373953E+03  0.00000000000E+00 0. -1.
         -5    1    3    3    0  503  0.13053164125E+03 -0.51361688514E+02 -0.29427118170E+02  0.14340354841E+03  0.47000000000E+01 0.  1.
         11    1    4    4    0    0  0.12667807260E+02  0.39843769252E+02 -0.58849932483E+02  0.72189430267E+02  0.00000000000E+00 0. -1.
        -12    1    4    4    0    0  0.11045153852E+02 -0.48517727146E+01  0.21788371709E+02  0.24905185481E+02  0.00000000000E+00 0.  1.
</event>
<event>
12    1  0.1623092E-001  0.1879570E+03  0.7818608E-02  0.1160462E+00
         21   -1    0    0  501  502  0.00000000000E+00  0.00000000000E+00  0.62419366868E+03  0.62419366868E+03  0.00000000000E+00 0.  1.
         21   -1    0    0  502  503 -0.00000000000E+00 -0.00000000000E+00 -0.25315081510E+03  0.25315081510E+03  0.00000000000E+00 0.  1.
         -6    2    1    2    0  503 -0.45333980435E+02 -0.58935265816E+02 -0.20113273354E+03  0.27528568391E+03  0.17262472570E+03 0.  0.
        -24    2    3    3    0    0 -0.54563839638E+02 -0.99869832574E+02 -0.12067063346E+03  0.18441727022E+03  0.80604787212E+02 0.  0.
          6    2    1    2  501    0  0.45333980435E+02  0.58935265816E+02  0.57217558713E+03  0.60205879987E+03  0.17193417535E+03 0.  0.
         24    2    5    5    0    0  0.40781354389E+01  0.10050288262E+03  0.44716428946E+03  0.46392905630E+03  0.71810910787E+02 0.  0.
          5    1    5    5  501    0  0.41255844997E+02 -0.41567616804E+02  0.12501129767E+03  0.13812974357E+03  0.47000000000E+01 0. -1.
        -11    1    6    6    0    0  0.21988066323E+02  0.81494304566E+02  0.40941657804E+03  0.41802718944E+03  0.00000000000E+00 0.  1.
         12    1    6    6    0    0 -0.17909930884E+02  0.19008578055E+02  0.37747711427E+02  0.45901866868E+02  0.00000000000E+00 0. -1.
         -5    1    3    3    0  503  0.92298592024E+01  0.40934566758E+02 -0.80462100083E+02  0.90868413688E+02  0.47000000000E+01 0.  1.
         13    1    4    4    0    0 -0.44428327498E+02 -0.28486739587E+02 -0.12196037605E+02  0.54167462095E+02  0.00000000000E+00 0. -1.
        -14    1    4    4    0    0 -0.10135512140E+02 -0.71383092988E+02 -0.10847459586E+03  0.13024980813E+03  0.00000000000E+00 0.  1.
</event>
<event>
12    1  0.1623092E-001  0.1962736E+03  0.7818608E-02  0.1152950E+00
         21   -1    0    0  503  502  0.00000000000E+00  0.00000000000E+00  0.10053014046E+04  0.10053014046E+04  0.00000000000E+00 0. -1.
         21   -1    0    0  501  503 -0.00000000000E+00 -0.00000000000E+00 -0.41968227743E+02  0.41968227743E+02  0.00000000000E+00 0. -1.
          6    2    1    2  501    0 -0.85413783935E+02 -0.43439454696E+02  0.32688762872E+03  0.38128576347E+03  0.17129159613E+03 0.  0.
         24    2    3    3    0    0 -0.10336681012E+03 -0.51595152216E+01  0.14637748263E+03  0.19583046493E+03  0.78815515868E+02 0.  0.
         -6    2    1    2    0  502  0.85413783935E+02  0.43439454696E+02  0.63644554816E+03  0.66598386890E+03  0.17114051871E+03 0.  0.
        -24    2    5    5    0    0  0.87005591554E+02 -0.10300520461E+01  0.58923488797E+03  0.60093767518E+03  0.79732692664E+02 0.  0.
          5    1    3    3  501    0  0.17953026189E+02 -0.38279939474E+02  0.18051014609E+03  0.18545529854E+03  0.47000000000E+01 0. -1.
        -13    1    4    4    0    0  0.13227719293E+02 -0.28354035718E+00  0.18012239755E+02  0.22349356452E+02  0.00000000000E+00 0.  1.
         14    1    4    4    0    0 -0.11659452942E+03 -0.48759748644E+01  0.12836524288E+03  0.17348110848E+03  0.00000000000E+00 0. -1.
         -5    1    5    5    0  502 -0.15918076190E+01  0.44469506742E+02  0.47210660191E+02  0.65046193717E+02  0.47000000000E+01 0.  1.
         13    1    6    6    0    0  0.50404670289E+02  0.18105837238E+02  0.14141488927E+03  0.15121713870E+03  0.00000000000E+00 0. -1.
        -14    1    6    6    0    0  0.36600921265E+02 -0.19135889285E+02  0.44781999870E+03  0.44972053648E+03  0.00000000000E+00 0.  1.
</event>
<event>
12    1  0.1623092E-001  0.2070459E+03  0.7818608E-02  0.1144005E+00
         21   -1    0    0  503  502  0.00000000000E+00  0.00000000000E+00  0.35847526246E+03  0.35847526246E+03  0.00000000000E+00 0. -1.
         21   -1    0    0  501  503 -0.00000000000E+00 -0.00000000000E+00 -0.23857473207E+03  0.23857473207E+03  0.00000000000E+00 0.  1.
          6    2    1    2  501    0 -0.45640944898E+02  0.10555317073E+03 -0.15104610827E+03  0.25628680790E+03  0.17217268476E+03 0.  0.
         24    2    3    3    0    0 -0.94041482538E+02  0.48779822125E+02 -0.98236650576E+02  0.16476219931E+03  0.79201460345E+02 0.  0.
         -6    2    1    2    0  502  0.45640944898E+02 -0.10555317073E+03  0.27094663866E+03  0.34076318663E+03  0.17170585504E+03 0.  0.
        -24    2    5    5    0    0  0.60860530972E+02 -0.16239799169E+02  0.82464256338E+02  0.13158332960E+03  0.80907871977E+02 0.  0.
          5    1    3    3  501    0  0.48400537639E+02  0.56773348605E+02 -0.52809457695E+02  0.91524608590E+02  0.47000000000E+01 0. -1.
        -13    1    4    4    0    0 -0.33916620659E+02  0.23497515966E+02 -0.90016044131E+02  0.99022010758E+02  0.00000000000E+00 0.  1.
         14    1    4    4    0    0 -0.60124861878E+02  0.25282306159E+02 -0.82206064449E+01  0.65740188553E+02  0.00000000000E+00 0. -1.
         -5    1    5    5    0  502 -0.15219586074E+02 -0.89313371562E+02  0.18848238232E+03  0.20917985703E+03  0.47000000000E+01 0.  1.
         11    1    6    6    0    0  0.22119844232E+02 -0.47218089042E+02  0.50399517122E+02  0.72518596014E+02  0.00000000000E+00 0. -1.
        -12    1    6    6    0    0  0.38740686740E+02  0.30978289874E+02  0.32064739216E+02  0.59064733586E+02  0.00000000000E+00 0.  1.
</event>
<event>
12    1  0.1623092E-001  0.1781050E+03  0.7818608E-02  0.1170283E+00
         21   -1    0    0  503  502  0.00000000000E+00  0.00000000000E+00  0.12257518242E+03  0.12257518242E+03  0.00000000000E+00 0.  1.
         21   -1    0    0  501  503 -0.00000000000E+00 -0.00000000000E+00 -0.27268711084E+03  0.27268711084E+03  0.00000000000E+00 0.  1.
          6    2    1    2  501    0  0.25774667971E+02  0.33339715042E+02 -0.12577958479E+03  0.21804106858E+03  0.17304777817E+03 0.  0.
         24    2    3    3    0    0  0.71732377552E+02 -0.41950185022E+01 -0.11508328966E+03  0.15756406451E+03  0.80119527555E+02 0.  0.
         -6    2    1    2    0  502 -0.25774667971E+02 -0.33339715042E+02 -0.24332343626E+02  0.17722122468E+03  0.17040959311E+03 0.  0.
        -24    2    5    5    0    0 -0.31009079116E+02 -0.42475806812E+02 -0.78227804059E+02  0.12210609166E+03  0.77617982068E+02 0.  0.
          5    1    3    3  501    0 -0.45957709581E+02  0.37534733544E+02 -0.10696295128E+02  0.60477004073E+02  0.47000000000E+01 0. -1.
        -11    1    4    4    0    0  0.71119464214E+02  0.28240103831E+01 -0.39009342821E+02  0.81164536912E+02  0.00000000000E+00 0.  1.
         12    1    4    4    0    0  0.61291333761E+00 -0.70190288853E+01 -0.76073946837E+02  0.76399527595E+02  0.00000000000E+00 0. -1.
         -5    1    5    5    0  502  0.52344111446E+01  0.91360917696E+01  0.53895460433E+02  0.55115133023E+02  0.47000000000E+01 0.  1.
         13    1    6    6    0    0  0.25794708494E+02 -0.19578036582E+02 -0.24051753050E+02  0.40337988640E+02  0.00000000000E+00 0. -1.
        -14    1    6    6    0    0 -0.56803787610E+02 -0.22897770229E+02 -0.54176051009E+02  0.81768103019E+02  0.00000000000E+00 0.  1.
</event>
<event>
12    1  0.1623092E-001  0.1821919E+03  0.7818608E-02  0.1166005E+00
         21   -1    0    0  503  502  0.00000000000E+00  0.00000000000E+00  0.46695185826E+03  0.46695185826E+03  0.00000000000E+00 0.  1.
         21   -1    0    0  501  503 -0.00000000000E+00 -0.00000000000E+00 -0.29572523674E+03  0.29572523674E+03  0.00000000000E+00 0.  1.
          6    2    1    2  501    0  0.36944644629E+02 -0.44507556470E+02 -0.24718797784E+03  0.30631687780E+03  0.17141267132E+03 0.  0.
         24    2    3    3    0    0  0.69950365769E+02 -0.74475984064E+02 -0.21524914239E+03  0.25127449876E+03  0.79793198678E+02 0.  0.
         -6    2    1    2    0  502 -0.36944644629E+02  0.44507556470E+02  0.41841459936E+03  0.45636021721E+03  0.17276585758E+03 0.  0.
        -24    2    5    5    0    0  0.40849372163E+02  0.14396914287E+02  0.27734002659E+03  0.29240081704E+03  0.81882874340E+02 0.  0.
          5    1    3    3  501    0 -0.33005721140E+02  0.29968427594E+02 -0.31938835448E+02  0.55042379038E+02  0.47000000000E+01 0. -1.
        -11    1    4    4    0    0 -0.62503399254E+01 -0.24245711825E+02 -0.10601098365E+03  0.10892772809E+03  0.00000000000E+00 0.  1.
         12    1    4    4    0    0  0.76200705694E+02 -0.50230272239E+02 -0.10923815873E+03  0.14234677067E+03  0.00000000000E+00 0. -1.
         -5    1    5    5    0  502 -0.77794016792E+02  0.30110642183E+02  0.14107457277E+03  0.16395940017E+03  0.47000000000E+01 0.  1.
         11    1    6    6    0    0 -0.23889458687E+01 -0.51987976295E+01 -0.40658467650E+01  0.70189507102E+01  0.00000000000E+00 0. -1.
        -12    1    6    6    0    0  0.43238318032E+02  0.19595711916E+02  0.28140587335E+03  0.28538186633E+03  0.00000000000E+00 0.  1.
</event>
<event>
12    1  0.1623092E-001  0.4101337E+03  0.7818608E-02  0.1040352E+00
         21   -1    0    0  501  502  0.00000000000E+00  0.00000000000E+00  0.16000364874E+03  0.16000364874E+03  0.00000000000E+00 0. -1.
         21   -1    0    0  502  503 -0.00000000000E+00 -0.00000000000E+00 -0.12218049630E+04  0.12218049630E+04  0.00000000000E+00 0. -1.
         -6    2    1    2    0  503  0.10357093723E+03  0.35780386181E+03 -0.78976462919E+03  0.88990888253E+03  0.17163655530E+03 0.  0.
        -24    2    3    3    0    0  0.11802228983E+03  0.26354100973E+03 -0.48013928192E+03  0.56589611650E+03  0.79508238073E+02 0.  0.
          6    2    1    2  501    0 -0.10357093723E+03 -0.35780386181E+03 -0.27203668507E+03  0.49189972921E+03  0.17091179893E+03 0.  0.
         24    2    5    5    0    0 -0.12472802375E+03 -0.35675293458E+03 -0.26724352608E+03  0.46967831766E+03  0.79679882093E+02 0.  0.
          5    1    5    5  501    0  0.21157086523E+02 -0.10509272229E+01 -0.47931589964E+01  0.22221411551E+02  0.47000000000E+01 0. -1.
        -13    1    6    6    0    0 -0.53492210536E+02 -0.10823340703E+03 -0.12832552422E+03  0.17619116650E+03  0.00000000000E+00 0.  1.
         14    1    6    6    0    0 -0.71235813217E+02 -0.24851952755E+03 -0.13891800186E+03  0.29348715116E+03  0.00000000000E+00 0. -1.
         -5    1    3    3    0  503 -0.14451352603E+02  0.94262852075E+02 -0.30962534727E+03  0.32401276602E+03  0.47000000000E+01 0.  1.
         11    1    4    4    0    0  0.99529761788E+01  0.90344914040E+02 -0.19572656670E+03  0.21580119124E+03  0.00000000000E+00 0. -1.
        -12    1    4    4    0    0  0.10806931365E+03  0.17319609569E+03 -0.28441271522E+03  0.35009492526E+03  0.00000000000E+00 0.  1.
</event>
<event>
12    1  0.1623092E-001  0.1697551E+03  0.7818608E-02  0.1178236E+00
         21   -1    0    0  503  502  0.00000000000E+00  0.00000000000E+00  0.35607367906E+03  0.35607367906E+03  0.00000000000E+00 0.  1.
         21   -1    0    0  501  503 -0.00000000000E+00 -0.00000000000E+00 -0.84189648033E+02  0.84189648033E+02  0.00000000000E+00 0.  1.
          6    2    1    2  501    0  0.23628812082E+01 -0.14775393116E+02  0.90853300761E+02  0.19209215867E+03  0.16858582299E+03 0.  0.
         24    2    3    3    0    0  0.62613986820E+02  0.12104891473E+02  0.41958295659E+02  0.10983915294E+03  0.78975320207E+02 0.  0.
         -6    2    1    2    0  502 -0.23628812082E+01  0.14775393116E+02  0.18103073026E+03  0.24817116842E+03  0.16909437627E+03 0.  0.
        -24    2    5    5    0    0 -0.33059282142E+01 -0.56091331568E+02  0.96244067209E+02  0.13756443157E+03  0.80646672105E+02 0.  0.
          5    1    3    3  501    0 -0.60251105611E+02 -0.26880284589E+02  0.48895005102E+02  0.82253005725E+02  0.47000000000E+01 0. -1.
        -13    1    4    4    0    0  0.23405409020E+02 -0.32348210638E+02  0.28502319837E+02  0.49057131377E+02  0.00000000000E+00 0.  1.
         14    1    4    4    0    0  0.39208577800E+02  0.44453102111E+02  0.13455975822E+02  0.60782021566E+02  0.00000000000E+00 0. -1.
         -5    1    5    5    0  502  0.94304700596E+00  0.70866724684E+02  0.84786663053E+02  0.11060673685E+03  0.47000000000E+01 0.  1.
         13    1    6    6    0    0  0.85277871650E+01 -0.20971272829E+02 -0.10216780020E+02  0.24837472335E+02  0.00000000000E+00 0. -1.
        -14    1    6    6    0    0 -0.11833715379E+02 -0.35120058738E+02  0.10646084723E+03  0.11272695923E+03  0.00000000000E+00 0.  1.
</event>
<event>
12    1  0.1623092E-001  0.2301586E+03  0.7818608E-02  0.1126634E+00
         21   -1    0    0  501  502  0.00000000000E+00  0.00000000000E+00  0.33301349755E+03  0.33301349755E+03  0.00000000000E+00 0.  1.
         21   -1    0    0  502  503 -0.00000000000E+00 -0.00000000000E+00 -0.30069691058E+03  0.30069691058E+03  0.00000000000E+00 0.  1.
         -6    2    1    2    0  503 -0.31595370646E+01 -0.15141974765E+03 -0.20160285193E+03  0.30596843190E+03  0.17330622828E+03 0.  0.
        -24    2    3    3    0    0 -0.34572543486E+02 -0.63456190456E+02 -0.32214195028E+02  0.11247690378E+03  0.79945923305E+02 0.  0.
          6    2    1    2  501    0  0.31595370646E+01  0.15141974765E+03  0.23391943890E+03  0.32774197623E+03  0.17250674316E+03 0.  0.
         24    2    5    5    0    0 -0.14949812201E+02  0.39445716392E+02  0.18454989855E+03  0.20394547498E+03  0.75865870357E+02 0.  0.
          5    1    5    5  501    0  0.18109349266E+02  0.11197403125E+03  0.49369540354E+02  0.12379650125E+03  0.47000000000E+01 0. -1.
        -11    1    6    6    0    0 -0.23004897583E+02 -0.60111616529E+01  0.14747599953E+02  0.27979476078E+02  0.00000000000E+00 0.  1.
         12    1    6    6    0    0  0.80550853823E+01  0.45456878045E+02  0.16980229859E+03  0.17596599890E+03  0.00000000000E+00 0. -1.
         -5    1    3    3    0  503  0.31413006421E+02 -0.87963557190E+02 -0.16938865690E+03  0.19349152811E+03  0.47000000000E+01 0.  1.
         11    1    4    4    0    0 -0.19377269629E+02  0.62340193109E+01 -0.35666000428E+02  0.41065863702E+02  0.00000000000E+00 0. -1.
        -12    1    4    4    0    0 -0.15195273857E+02 -0.69690209767E+02  0.34518054004E+01  0.71411040081E+02  0.00000000000E+00 0.  1.
</event>
<event>
12    1  0.1623092E-001  0.1865760E+03  0.7818608E-02  0.1162153E+00
         21   -1    0    0  501  502  0.00000000000E+00  0.00000000000E+00  0.41710480974E+03  0.41710480974E+03  0.00000000000E+00 0. -1.
         21   -1    0    0  502  503 -0.00000000000E+00 -0.00000000000E+00 -0.14074103550E+03  0.14074103550E+03  0.00000000000E+00 0. -1.
         -6    2    1    2    0  503 -0.20992573244E+02  0.68181207045E+02 -0.40910546378E+02  0.19100855314E+03  0.17239846125E+03 0.  0.
        -24    2    3    3    0    0  0.44073787040E+01  0.58717698201E+02  0.38696822985E+02  0.10678184232E+03  0.80235432762E+02 0.  0.
          6    2    1    2  501    0  0.20992573244E+02 -0.68181207045E+02  0.31727432062E+03  0.36683729211E+03  0.16975641146E+03 0.  0.
         24    2    5    5    0    0  0.77539596263E+02 -0.30506738402E+02  0.18095423650E+03  0.21444901587E+03  0.79378174744E+02 0.  0.
          5    1    5    5  501    0 -0.56547023020E+02 -0.37674468643E+02  0.13632008412E+03  0.15238827624E+03  0.47000000000E+01 0. -1.
        -13    1    6    6    0    0  0.36430809702E+02 -0.10594655608E+02  0.12552883826E+02  0.39962801645E+02  0.00000000000E+00 0.  1.
         14    1    6    6    0    0  0.41108786561E+02 -0.19912082794E+02  0.16840135267E+03  0.17448621423E+03  0.00000000000E+00 0. -1.
         -5    1    3    3    0  503 -0.25399951948E+02  0.94635088441E+01 -0.79607369364E+02  0.84226710820E+02  0.47000000000E+01 0.  1.
         13    1    4    4    0    0  0.50547791871E+01  0.62789848336E+02 -0.47200907367E+01  0.63169574190E+02  0.00000000000E+00 0. -1.
        -14    1    4    4    0    0 -0.64740048309E+00 -0.40721501357E+01  0.43416913722E+02  0.43612268128E+02  0.00000000000E+00 0.  1.
</event>
<event>
12    1  0.1623092E-001  0.1726838E+03  0.7818608E-02  0.1175098E+00
         21   -1    0    0  503  502  0.00000000000E+00  0.00000000000E+00  0.13150974084E+02  0.13150974084E+02  0.00000000000E+00 0. -1.
         21   -1    0    0  501  503 -0.00000000000E+00 -0.00000000000E+00 -0.25990349663E+04  0.25990349663E+04  0.00000000000E+00 0. -1.
          6    2    1    2  501    0 -0.11571508237E+02  0.17489301395E+02 -0.17598935859E+04  0.17683377085E+04  0.17132729525E+03 0.  0.
         24    2    3    3    0    0 -0.34990869153E+02  0.47909665624E+01 -0.48149859087E+03  0.48965652559E+03  0.81702544386E+02 0.  0.
         -6    2    1    2    0  502  0.11571508237E+02 -0.17489301395E+02 -0.82599040633E+03  0.84384823191E+03  0.17140569327E+03 0.  0.
        -24    2    5    5    0    0  0.24176489145E+01 -0.76528125953E+02 -0.57349788902E+03  0.58434112749E+03  0.81806634711E+02 0.  0.
          5    1    3    3  501    0  0.23419360916E+02  0.12698334833E+02 -0.12783949950E+04  0.12786811829E+04  0.47000000000E+01 0. -1.
        -11    1    4    4    0    0  0.77095659067E+01  0.27772112597E+02 -0.31285027457E+03  0.31417514533E+03  0.00000000000E+00 0.  1.
         12    1    4    4    0    0 -0.42700435060E+02 -0.22981146035E+02 -0.16864831629E+03  0.17548138026E+03  0.00000000000E+00 0. -1.
         -5    1    5    5    0  502  0.91538593227E+01  0.59038824558E+02 -0.25249251732E+03  0.25950710442E+03  0.47000000000E+01 0.  1.
         11    1    6    6    0    0 -0.38831859022E+02 -0.25940675629E+02 -0.22869773724E+03  0.23341698085E+03  0.00000000000E+00 0. -1.
        -12    1    6    6    0    0  0.41249507937E+02 -0.50587450324E+02 -0.34480015177E+03  0.35092414664E+03  0.00000000000E+00 0.  1.
</event>
<event>
12    1  0.1623092E-001  0.1943130E+03  0.7818608E-02  0.1155468E+00
         21   -1    0    0  501  502  0.00000000000E+00  0.00000000000E+00  0.11071626879E+03  0.11071626879E+03  0.00000000000E+00 0. -1.
         21   -1    0    0  502  503 -0.00000000000E+00 -0.00000000000E+00 -0.33457645893E+03  0.33457645893E+03  0.00000000000E+00 0. -1.
         -6    2    1    2    0  503  0.77829186004E+02  0.12735721066E+02 -0.11814515401E+03  0.22741109816E+03  0.17758927154E+03 0.  0.
        -24    2    3    3    0    0 -0.23205877219E+02  0.32886215454E+02 -0.72909962217E+02  0.11479476275E+03  0.79006069769E+02 0.  0.
          6    2    1    2  501    0 -0.77829186004E+02 -0.12735721066E+02 -0.10571503613E+03  0.21788162956E+03  0.17342766461E+03 0.  0.
         24    2    5    5    0    0 -0.11112592703E+03 -0.78654150835E+01 -0.11872147197E+03  0.18149962554E+03  0.80227736796E+02 0.  0.
          5    1    5    5  501    0  0.33296741027E+02 -0.48703059825E+01  0.13006435842E+02  0.36382004022E+02  0.47000000000E+01 0. -1.
        -13    1    6    6    0    0 -0.39941258389E+02 -0.38863993394E+02 -0.71399056454E+02  0.90573392157E+02  0.00000000000E+00 0.  1.
         14    1    6    6    0    0 -0.71184668642E+02  0.30998578311E+02 -0.47322415515E+02  0.90926233382E+02  0.00000000000E+00 0. -1.
         -5    1    3    3    0  503  0.10103506322E+03 -0.20150494388E+02 -0.45235191791E+02  0.11261633541E+03  0.47000000000E+01 0.  1.
         13    1    4    4    0    0  0.13953203670E+02  0.17227930057E+02  0.86609649724E+01  0.23801381912E+02  0.00000000000E+00 0. -1.
        -14    1    4    4    0    0 -0.37159080889E+02  0.15658285397E+02 -0.81570927190E+02  0.90993380840E+02  0.00000000000E+00 0.  1.
</event>
<event>
12    1  0.1623092E-001  0.1931866E+03  0.7818608E-02  0.1157144E+00
         21   -1    0    0  501  502  0.00000000000E+00  0.00000000000E+00  0.13180738213E+03  0.13180738213E+03  0.00000000000E+00 0. -1.
         21   -1    0    0  502  503 -0.00000000000E+00 -0.00000000000E+00 -0.31555848405E+03  0.31555848405E+03  0.00000000000E+00 0. -1.
         -6    2    1    2    0  503  0.54385440787E+02  0.46624305331E+02 -0.17230488530E+03  0.25384051287E+03  0.17208843790E+03 0.  0.
        -24    2    3    3    0    0  0.87187991052E+02  0.74132904975E+02 -0.15162861901E+03  0.20606679263E+03  0.79842667398E+02 0.  0.
          6    2    1    2  501    0 -0.54385440787E+02 -0.46624305331E+02 -0.11446216615E+02  0.19352535331E+03  0.17941417024E+03 0.  0.
         24    2    5    5    0    0  0.11317267681E+02  0.34796891024E+02 -0.13687474556E+02  0.88771497284E+02  0.79712781896E+02 0.  0.
          5    1    5    5  501    0 -0.65702708468E+02 -0.81421196355E+02  0.22412579416E+01  0.10475385603E+03  0.47000000000E+01 0. -1.
        -13    1    6    6    0    0  0.26556741703E+02  0.13421001931E+02  0.27112735472E+02  0.40255238758E+02  0.00000000000E+00 0.  1.
         14    1    6    6    0    0 -0.15239474022E+02  0.21375889092E+02 -0.40800210028E+02  0.48516258526E+02  0.00000000000E+00 0. -1.
         -5    1    3    3    0  503 -0.32802550265E+02 -0.27508599644E+02 -0.20676266293E+02  0.47773720245E+02  0.47000000000E+01 0.  1.
         13    1    4    4    0    0  0.33351901383E+02 -0.13963201984E+02 -0.43486498692E+02  0.56554362378E+02  0.00000000000E+00 0. -1.
        -14    1    4    4    0    0  0.53836089669E+02  0.88096106959E+02 -0.10814212032E+03  0.14951243025E+03  0.00000000000E+00 0.  1.
</event>
<event>
12    1  0.1623092E-001  0.2976544E+03  0.7818608E-02  0.1086599E+00
         21   -1    0    0  501  502  0.00000000000E+00  0.00000000000E+00  0.66837341773E+03  0.66837341773E+03  0.00000000000E+00 0. -1.
         21   -1    0    0  502  503 -0.00000000000E+00 -0.00000000000E+00 -0.13198373500E+03  0.13198373500E+03  0.00000000000E+00 0. -1.
         -6    2    1    2    0  503  0.14347267141E+02  0.24080688270E+03  0.25917309917E+03  0.39360518803E+03  0.17193181752E+03 0.  0.
        -24    2    3    3    0    0  0.13669177902E+01  0.23970175608E+03  0.27362805689E+03  0.37358653231E+03  0.85063407393E+02 0.  0.
          6    2    1    2  501    0 -0.14347267141E+02 -0.24080688270E+03  0.27721658356E+03  0.40675196470E+03  0.17436836801E+03 0.  0.
         24    2    5    5    0    0 -0.34085536760E+02 -0.74030815308E+02  0.17819216452E+03  0.21173457700E+03  0.80229035692E+02 0.  0.
          5    1    5    5  501    0  0.19738269619E+02 -0.16677606739E+03  0.99024419035E+02  0.19501738771E+03  0.47000000000E+01 0. -1.
        -11    1    6    6    0    0  0.59738315359E+01  0.89977241242E+01  0.64336753044E+02  0.65236979504E+02  0.00000000000E+00 0.  1.
         12    1    6    6    0    0 -0.40059368296E+02 -0.83028539433E+02  0.11385541148E+03  0.14649759750E+03  0.00000000000E+00 0. -1.
         -5    1    3    3    0  503  0.12980349351E+02  0.11051266177E+01 -0.14454957713E+02  0.20018655714E+02  0.47000000000E+01 0.  1.
         13    1    4    4    0    0 -0.17877723922E+02  0.31677001971E+02  0.11000699990E+02  0.38000800870E+02  0.00000000000E+00 0. -1.
        -14    1    4    4    0    0  0.19244641712E+02  0.20802475411E+03  0.26262735690E+03  0.33558573144E+03  0.00000000000E+00 0.  1.
</event>
<event>
12    1  0.1623092E-001  0.2505752E+03  0.7818608E-02  0.1113620E+00
         21   -1    0    0  503  502  0.00000000000E+00  0.00000000000E+00  0.67429303791E+02  0.67429303791E+02  0.00000000000E+00 0.  1.
         21   -1    0    0  501  503 -0.00000000000E+00 -0.00000000000E+00 -0.18874123304E+04  0.18874123304E+04  0.00000000000E+00 0.  1.
          6    2    1    2  501    0 -0.13948630461E+03  0.11363137733E+03 -0.16076249346E+04  0.16263848336E+04  0.16822953835E+03 0.  0.
         24    2    3    3    0    0 -0.96314446660E+02  0.11136591399E+02 -0.70126601730E+03  0.71321586380E+03  0.86616078486E+02 0.  0.
         -6    2    1    2    0  502  0.13948630461E+03 -0.11363137733E+03 -0.21235809202E+03  0.32845680059E+03  0.17441155787E+03 0.  0.
        -24    2    5    5    0    0  0.13677789836E+03 -0.14647974999E+03 -0.16837968631E+03  0.27329756546E+03  0.78583267213E+02 0.  0.
          5    1    3    3  501    0 -0.43171857952E+02  0.10249478593E+03 -0.90635891726E+03  0.91316896978E+03  0.47000000000E+01 0. -1.
        -13    1    4    4    0    0 -0.34269055459E+02  0.82566092358E+01 -0.52760813741E+03  0.52878434775E+03  0.00000000000E+00 0.  1.
         14    1    4    4    0    0 -0.62045391200E+02  0.28799821628E+01 -0.17365787988E+03  0.18443151605E+03  0.00000000000E+00 0. -1.
         -5    1    5    5    0  502  0.27084062527E+01  0.32848372664E+02 -0.43978405712E+02  0.55159235130E+02  0.47000000000E+01 0.  1.
         13    1    6    6    0    0  0.34555380786E+02 -0.55643941420E+02 -0.13850930524E+02  0.66949016680E+02  0.00000000000E+00 0. -1.
        -14    1    6    6    0    0  0.10222251757E+03 -0.90835808575E+02 -0.15452875579E+03  0.20634854878E+03  0.00000000000E+00 0.  1.
</event>
<event>
12    1  0.1623092E-001  0.1759090E+03  0.7818608E-02  0.1171929E+00
         21   -1    0    0  503  502  0.00000000000E+00  0.00000000000E+00  0.67384837938E+03  0.67384837938E+03  0.00000000000E+00 0.  1.
         21   -1    0    0  501  503 -0.00000000000E+00 -0.00000000000E+00 -0.67395388975E+02  0.67395388975E+02  0.00000000000E+00 0.  1.
          6    2    1    2  501    0  0.22152711203E+01 -0.35222896449E+02  0.93729232702E+02  0.19932174672E+03  0.17233232370E+03 0.  0.
         24    2    3    3    0    0 -0.60833172689E+02 -0.62919557346E+01  0.77404239886E+02  0.12790255471E+03  0.81408743645E+02 0.  0.
         -6    2    1    2    0  502 -0.22152711203E+01  0.35222896449E+02  0.51272375771E+03  0.54192202164E+03  0.17189609059E+03 0.  0.
        -24    2    5    5    0    0  0.49872365674E+02 -0.10269774167E+02  0.19074816055E+03  0.21256950510E+03  0.78792211706E+02 0.  0.
          5    1    3    3  501    0  0.63048443809E+02 -0.28930940715E+02  0.16324992816E+02  0.71419192014E+02  0.47000000000E+01 0. -1.
        -11    1    4    4    0    0 -0.44242536026E+02  0.19339642272E+02  0.40579378795E+01  0.48455037066E+02  0.00000000000E+00 0.  1.
         12    1    4    4    0    0 -0.16590636663E+02 -0.25631598007E+02  0.73346302007E+02  0.79447517641E+02  0.00000000000E+00 0. -1.
         -5    1    5    5    0  502 -0.52087636794E+02  0.45492670617E+02  0.32197559716E+03  0.32935251654E+03  0.47000000000E+01 0.  1.
         11    1    6    6    0    0  0.59977148530E+02 -0.19853880377E+02  0.18805594847E+03  0.19838466339E+03  0.00000000000E+00 0. -1.
        -12    1    6    6    0    0 -0.10104782856E+02  0.95841062101E+01  0.26922120742E+01  0.14184841708E+02  0.00000000000E+00 0.  1.
</event>
<event>
12    1  0.1623092E-001  0.1925129E+03  0.7818608E-02  0.1159890E+00
         21   -1    0    0  503  502  0.00000000000E+00  0.00000000000E+00  0.42025948834E+03  0.42025948834E+03  0.00000000000E+00 0. -1.
         21   -1    0    0  501  503 -0.00000000000E+00 -0.00000000000E+00 -0.30067384265E+03  0.30067384265E+03  0.00000000000E+00 0. -1.
          6    2    1    2  501    0  0.71702811888E+02  0.48144794420E+02  0.36846245585E+03  0.41572322098E+03  0.17205231945E+03 0.  0.
         24    2    3    3    0    0 -0.18164832602E+02  0.44993059854E+01  0.98535145923E+02  0.12786220446E+03  0.79305507054E+02 0.  0.
         -6    2    1    2    0  502 -0.71702811888E+02 -0.48144794420E+02 -0.24887681016E+03  0.30521011000E+03  0.15412439829E+03 0.  0.
        -24    2    5    5    0    0 -0.20308256884E+02 -0.24903172982E+02 -0.23382870309E+03  0.24664297948E+03  0.71584241393E+02 0.  0.
          5    1    3    3  501    0  0.89867644490E+02  0.43645488435E+02  0.26992730993E+03  0.28786101652E+03  0.47000000000E+01 0. -1.
        -11    1    4    4    0    0  0.21482293947E+02 -0.23345027184E+02  0.28142056854E+02  0.42408190381E+02  0.00000000000E+00 0.  1.
         12    1    4    4    0    0 -0.39647126548E+02  0.27844333170E+02  0.70393089069E+02  0.85454014077E+02  0.00000000000E+00 0. -1.
         -5    1    5    5    0  502 -0.51394555004E+02 -0.23241621438E+02 -0.15048107073E+02  0.58567130522E+02  0.47000000000E+01 0.  1.
         13    1    6    6    0    0 -0.44721918309E+02 -0.26293731996E+02 -0.12990453318E+03  0.13988065649E+03  0.00000000000E+00 0. -1.
        -14    1    6    6    0    0  0.24413661425E+02  0.13905590145E+01 -0.10392416991E+03  0.10676232299E+03  0.00000000000E+00 0.  1.
</event>
<event>
12    1  0.1623092E-001  0.2361268E+03  0.7818608E-02  0.1122552E+00
         21   -1    0    0  503  502  0.00000000000E+00  0.00000000000E+00  0.45045643609E+03  0.45045643609E+03  0.00000000000E+00 0. -1.
         21   -1    0    0  501  503 -0.00000000000E+00 -0.00000000000E+00 -0.13323782908E+03  0.13323782908E+03  0.00000000000E+00 0. -1.
          6    2    1    2  501    0 -0.14369700830E+03  0.74331130690E+02  0.23799918733E+03  0.33463286071E+03  0.17076765241E+03 0.  0.
         24    2    3    3    0    0 -0.20892505853E+02  0.46442968115E+02  0.50607477487E+02  0.10880895065E+03  0.81760778349E+02 0.  0.
         -6    2    1    2    0  502  0.14369700830E+03 -0.74331130690E+02  0.79219419682E+02  0.24906140446E+03  0.17199395208E+03 0.  0.
        -24    2    5    5    0    0  0.13782759778E+03 -0.51382643737E+02  0.26483568534E+01  0.16877254660E+03  0.82707532342E+02 0.  0.
          5    1    3    3  501    0 -0.12280450245E+03  0.27888162575E+02  0.18739170985E+03  0.22582391005E+03  0.47000000000E+01 0. -1.
        -11    1    4    4    0    0  0.93762904908E+01  0.72973289395E+01  0.57619257781E+02  0.58831494119E+02  0.00000000000E+00 0.  1.
         12    1    4    4    0    0 -0.30268796344E+02  0.39145639176E+02 -0.70117802948E+01  0.49977456533E+02  0.00000000000E+00 0. -1.
         -5    1    5    5    0  502  0.58694105213E+01 -0.22948486953E+02  0.76571062829E+02  0.80288857857E+02  0.47000000000E+01 0.  1.
         11    1    6    6    0    0  0.91866978841E+02  0.45838431760E+01  0.20383547509E+02  0.94212750881E+02  0.00000000000E+00 0. -1.
        -12    1    6    6    0    0  0.45960618939E+02 -0.55966486913E+02 -0.17735190655E+02  0.74559795723E+02  0.00000000000E+00 0.  1.
</event>
<event>
12    1  0.1623092E-001  0.2123075E+03  0.7818608E-02  0.1140178E+00
         21   -1    0    0  503  502  0.00000000000E+00  0.00000000000E+00  0.11599268996E+03  0.11599268996E+03  0.00000000000E+00 0. -1.
         21   -1    0    0  501  503 -0.00000000000E+00 -0.00000000000E+00 -0.62812917145E+03  0.62812917145E+03  0.00000000000E+00 0.  1.
          6    2    1    2  501    0  0.92196902065E+02  0.79801065653E+02 -0.48691160016E+03  0.53032111985E+03  0.17114059998E+03 0.  0.
         24    2    3    3    0    0  0.10822139397E+03  0.59743777371E+02 -0.48174007094E+03  0.50371446902E+03  0.79834712430E+02 0.  0.
         -6    2    1    2    0  502 -0.92196902065E+02 -0.79801065653E+02 -0.25224881333E+02  0.21380074156E+03  0.17379868706E+03 0.  0.
        -24    2    5    5    0    0 -0.45553913548E+01 -0.93383553979E+02 -0.24319074528E+02  0.12498391390E+03  0.79298938231E+02 0.  0.
          5    1    3    3  501    0 -0.16024491900E+02  0.20057288282E+02 -0.51715292232E+01  0.26606650830E+02  0.47000000000E+01 0. -1.
        -13    1    4    4    0    0 -0.64393914833E+01  0.55286155683E+01 -0.39215950373E+01  0.93493454537E+01  0.00000000000E+00 0.  1.
         14    1    4    4    0    0  0.11466078545E+03  0.54215161803E+02 -0.47781847590E+03  0.49436512357E+03  0.00000000000E+00 0. -1.
         -5    1    5    5    0  502 -0.87641510710E+02  0.13582488326E+02 -0.90580680549E+00  0.88816827655E+02  0.47000000000E+01 0.  1.
         11    1    6    6    0    0 -0.34021043998E+02 -0.15942321528E+02  0.31219068120E+01  0.37700601488E+02  0.00000000000E+00 0. -1.
        -12    1    6    6    0    0  0.29465652644E+02 -0.77441232451E+02 -0.27440981340E+02  0.87283312415E+02  0.00000000000E+00 0.  1.
</event>
<event>
12    1  0.1623092E-001  0.3094637E+03  0.7818608E-02  0.1080638E+00
         21   -1    0    0  503  502  0.00000000000E+00  0.00000000000E+00  0.11021827852E+04  0.11021827852E+04  0.00000000000E+00 0. -1.
         21   -1    0    0  501  503 -0.00000000000E+00 -0.00000000000E+00 -0.12433632574E+03  0.12433632574E+03  0.00000000000E+00 0. -1.
          6    2    1    2  501    0 -0.13169275389E+03 -0.22088791163E+03  0.15183943342E+03  0.34444464097E+03  0.17161715012E+03 0.  0.
         24    2    3    3    0    0 -0.79313911079E+02 -0.11562675773E+03  0.10901874316E+02  0.16084469744E+03  0.78050767051E+02 0.  0.
         -6    2    1    2    0  502  0.13169275389E+03  0.22088791163E+03  0.82600702601E+03  0.88207446996E+03  0.17214329089E+03 0.  0.
        -24    2    5    5    0    0  0.58045225030E+02  0.61251342032E+02  0.45567374665E+03  0.47210298233E+03  0.90120405536E+02 0.  0.
          5    1    3    3  501    0 -0.52378842815E+02 -0.10526115390E+03  0.14093755911E+03  0.18359994353E+03  0.47000000000E+01 0. -1.
        -13    1    4    4    0    0  0.73586400046E+01 -0.34779896216E+02  0.21990214357E+02  0.41801438863E+02  0.00000000000E+00 0.  1.
         14    1    4    4    0    0 -0.86672551083E+02 -0.80846861513E+02 -0.11088340041E+02  0.11904325858E+03  0.00000000000E+00 0. -1.
         -5    1    5    5    0  502  0.73647528864E+02  0.15963656960E+03  0.37033327936E+03  0.40997148763E+03  0.47000000000E+01 0.  1.
         11    1    6    6    0    0  0.62655973286E+02  0.75867595376E+02  0.43702290329E+03  0.44796281209E+03  0.00000000000E+00 0. -1.
        -12    1    6    6    0    0 -0.46107482562E+01 -0.14616253344E+02  0.18650843353E+02  0.24140170237E+02  0.00000000000E+00 0.  1.
</event>
<event>
12    1  0.1623092E-001  0.2268034E+03  0.7818608E-02  0.1129081E+00
         21   -1    0    0  503  502  0.00000000000E+00  0.00000000000E+00  0.18259506703E+03  0.18259506703E+03  0.00000000000E+00 0. -1.
         21   -1    0    0  501  503 -0.00000000000E+00 -0.00000000000E+00 -0.31491932635E+03  0.31491932635E+03  0.00000000000E+00 0. -1.
          6    2    1    2  501    0 -0.82548994885E+02  0.12249345205E+03 -0.14823560650E+03  0.27015359628E+03  0.17085136287E+03 0.  0.
         24    2    3    3    0    0 -0.69637870998E+02  0.19737368397E+02 -0.12294249018E+03  0.16344210870E+03  0.79746286535E+02 0.  0.
         -6    2    1    2    0  502  0.82548994885E+02 -0.12249345205E+03  0.15911347189E+02  0.22736079710E+03  0.17210688173E+03 0.  0.
        -24    2    5    5    0    0  0.11765859812E+03 -0.12370529703E+03  0.12991744786E+00  0.18856264854E+03  0.80058162105E+02 0.  0.
          5    1    3    3  501    0 -0.12911123886E+02  0.10275608365E+03 -0.25293116320E+02  0.10671148757E+03  0.47000000000E+01 0. -1.
        -13    1    4    4    0    0  0.87883604402E+01  0.26873572874E+02 -0.24789055844E+02  0.37602147383E+02  0.00000000000E+00 0.  1.
         14    1    4    4    0    0 -0.78426231439E+02 -0.71362044768E+01 -0.98153434339E+02  0.12583996132E+03  0.00000000000E+00 0. -1.
         -5    1    5    5    0  502 -0.35109603231E+02  0.12118449870E+01  0.15781429741E+02  0.38798148564E+02  0.47000000000E+01 0.  1.
         13    1    6    6    0    0  0.82805805175E+02 -0.69041099155E+02  0.36996725257E+02  0.11398347434E+03  0.00000000000E+00 0. -1.
        -14    1    6    6    0    0  0.34852792941E+02 -0.54664197879E+02 -0.36866807809E+02  0.74579174195E+02  0.00000000000E+00 0.  1.
</event>
<event>
12    1  0.1623092E-001  0.1778735E+03  0.7818608E-02  0.1170483E+00
         21   -1    0    0  503  502  0.00000000000E+00  0.00000000000E+00  0.43365472102E+03  0.43365472102E+03  0.00000000000E+00 0. -1.
         21   -1    0    0  501  503 -0.00000000000E+00 -0.00000000000E+00 -0.74295563590E+02  0.74295563590E+02  0.00000000000E+00 0. -1.
          6    2    1    2  501    0  0.15848788450E+02  0.32713860804E+02  0.22351293774E+03  0.28413520166E+03  0.17161992512E+03 0.  0.
         24    2    3    3    0    0 -0.18869735838E+02  0.54500855720E+02  0.62143735311E+02  0.11757542689E+03  0.81459971556E+02 0.  0.
         -6    2    1    2    0  502 -0.15848788450E+02 -0.32713860804E+02  0.13584621969E+03  0.22381508295E+03  0.17411954276E+03 0.  0.
        -24    2    5    5    0    0 -0.10769148340E+02  0.85905754472E+01 -0.90519126938E+00  0.80794463473E+02  0.79606239794E+02 0.  0.
          5    1    3    3  501    0  0.34718524288E+02 -0.21786994916E+02  0.16136920243E+03  0.16655977476E+03  0.47000000000E+01 0. -1.
        -11    1    4    4    0    0  0.77975940609E+01  0.63510270809E+02  0.20271454528E+02  0.67121448436E+02  0.00000000000E+00 0.  1.
         12    1    4    4    0    0 -0.26667329899E+02 -0.90094150893E+01  0.41872280784E+02  0.50453978458E+02  0.00000000000E+00 0. -1.
         -5    1    5    5    0  502 -0.50796401093E+01 -0.41304436251E+02  0.13675141096E+03  0.14302061948E+03  0.47000000000E+01 0.  1.
         11    1    6    6    0    0 -0.45294345366E+02  0.24488745479E+01  0.32771270355E+01  0.45478723271E+02  0.00000000000E+00 0. -1.
        -12    1    6    6    0    0  0.34525197026E+02  0.61417008993E+01 -0.41823183049E+01  0.35315740202E+02  0.00000000000E+00 0.  1.
</event>
<event>
12    1  0.1623092E-001  0.1978500E+03  0.7818608E-02  0.1151581E+00
         21   -1    0    0  501  502  0.00000000000E+00  0.00000000000E+00  0.61134203018E+03  0.61134203018E+03  0.00000000000E+00 0.  1.
         21   -1    0    0  502  503 -0.00000000000E+00 -0.00000000000E+00 -0.66031359096E+02  0.66031359096E+02  0.00000000000E+00 0. -1.
         -6    2    1    2    0  503  0.64260073944E+02  0.74407722539E+02  0.33200715145E+03  0.38648850442E+03  0.17169376563E+03 0.  0.
        -24    2    3    3    0    0  0.79643369289E+02  0.10677582919E+03  0.22043461180E+03  0.26920738186E+03  0.78339341324E+02 0.  0.
          6    2    1    2  501    0 -0.64260073944E+02 -0.74407722539E+02  0.21330351964E+03  0.29088488486E+03  0.17160931931E+03 0.  0.
         24    2    5    5    0    0 -0.10683055400E+03 -0.59953566353E+02  0.18470015793E+03  0.23739272933E+03  0.85052702556E+02 0.  0.
          5    1    5    5  501    0  0.42570480053E+02 -0.14454156186E+02  0.28603361707E+02  0.53492155536E+02  0.47000000000E+01 0.  1.
        -13    1    6    6    0    0 -0.35475800916E+02  0.92899003190E+01  0.10090678821E+03  0.10736393531E+03  0.00000000000E+00 0.  1.
         14    1    6    6    0    0 -0.71354753081E+02 -0.69243466672E+02  0.83793369719E+02  0.13002879401E+03  0.00000000000E+00 0. -1.
         -5    1    3    3    0  503 -0.15383295345E+02 -0.32368106649E+02  0.11157253965E+03  0.11728112256E+03  0.47000000000E+01 0.  1.
         13    1    4    4    0    0  0.74248265259E+02  0.35950327536E+02  0.13366818891E+03  0.15707455450E+03  0.00000000000E+00 0. -1.
        -14    1    4    4    0    0  0.53951040300E+01  0.70825501652E+02  0.86766422889E+02  0.11213282736E+03  0.00000000000E+00 0.  1.
</event>
<event>
12    1  0.1623092E-001  0.2264607E+03  0.7818608E-02  0.1129179E+00
         21   -1    0    0  503  502  0.00000000000E+00  0.00000000000E+00  0.61466995409E+02  0.61466995409E+02  0.00000000000E+00 0. -1.
         21   -1    0    0  501  503 -0.00000000000E+00 -0.00000000000E+00 -0.83789843196E+03  0.83789843196E+03  0.00000000000E+00 0.  1.
          6    2    1    2  501    0 -0.13917149785E+03  0.50750346050E+02 -0.41950098146E+03  0.47672372612E+03  0.17128962072E+03 0.  0.
         24    2    3    3    0    0 -0.40390297594E+02 -0.15879483184E+02 -0.27397621786E+03  0.28858333576E+03  0.79585423265E+02 0.  0.
         -6    2    1    2    0  502  0.13917149785E+03 -0.50750346050E+02 -0.35693045509E+03  0.42264170125E+03  0.17112087665E+03 0.  0.
        -24    2    5    5    0    0  0.96330961369E+02  0.35242785256E+02 -0.19637538788E+03  0.23547827051E+03  0.79781043409E+02 0.  0.
          5    1    3    3  501    0 -0.98781200252E+02  0.66629829234E+02 -0.14552476360E+03  0.18814039037E+03  0.47000000000E+01 0. -1.
        -11    1    4    4    0    0 -0.46836584420E+02 -0.39160231571E+02 -0.23437447738E+03  0.24219534477E+03  0.00000000000E+00 0.  1.
         12    1    4    4    0    0  0.64462868259E+01  0.23280748387E+02 -0.39601740476E+02  0.46387990990E+02  0.00000000000E+00 0. -1.
         -5    1    5    5    0  502  0.42840536477E+02 -0.85993131307E+02 -0.16055506721E+03  0.18716343074E+03  0.47000000000E+01 0.  1.
         13    1    6    6    0    0 -0.63486970752E+01  0.52395190971E+00  0.41011015433E+01  0.75762466977E+01  0.00000000000E+00 0. -1.
        -14    1    6    6    0    0  0.10267965844E+03  0.34718833347E+02 -0.20047648942E+03  0.22790202381E+03  0.00000000000E+00 0.  1.
</event>
<event>
12    1  0.1623092E-001  0.1890962E+03  0.7818608E-02  0.1159677E+00
         21   -1    0    0  503  502  0.00000000000E+00  0.00000000000E+00  0.32888632728E+03  0.32888632728E+03  0.00000000000E+00 0. -1.
         21   -1    0    0  501  503 -0.00000000000E+00 -0.00000000000E+00 -0.14058860973E+03  0.14058860973E+03  0.00000000000E+00 0.  1.
          6    2    1    2  501    0  0.22949705737E+02 -0.69462315440E+02 -0.19683482022E+02  0.18838142326E+03  0.17247729968E+03 0.  0.
         24    2    3    3    0    0  0.23667465041E+01 -0.84415877383E+02  0.39478053092E+02  0.12381018769E+03  0.81478856503E+02 0.  0.
         -6    2    1    2    0  502 -0.22949705737E+02  0.69462315440E+02  0.20798119956E+03  0.28109351375E+03  0.17437225078E+03 0.  0.
        -24    2    5    5    0    0 -0.56490631493E+02  0.77457082539E+02  0.76747161255E+02  0.14532395600E+03  0.77705433170E+02 0.  0.
          5    1    3    3  501    0  0.20582959233E+02  0.14953561943E+02 -0.59161535115E+02  0.64571235567E+02  0.47000000000E+01 0. -1.
        -11    1    4    4    0    0  0.32353491334E+02 -0.79988534276E+02  0.22944703575E+02  0.89282548347E+02  0.00000000000E+00 0.  1.
         12    1    4    4    0    0 -0.29986744830E+02 -0.44273431062E+01  0.16533349517E+02  0.34527639345E+02  0.00000000000E+00 0. -1.
         -5    1    5    5    0  502  0.33540925757E+02 -0.79947670993E+01  0.13123403831E+03  0.13576955775E+03  0.47000000000E+01 0.  1.
         11    1    6    6    0    0 -0.62618406113E+02  0.71860862444E+02  0.89078130201E+02  0.13046057495E+03  0.00000000000E+00 0. -1.
        -12    1    6    6    0    0  0.61277746194E+01  0.55962200947E+01 -0.12330968946E+02  0.14863381051E+02  0.00000000000E+00 0.  1.
</event>
<event>
12    1  0.1623092E-001  0.3665196E+03  0.7818608E-02  0.1056212E+00
         21   -1    0    0  503  502  0.00000000000E+00  0.00000000000E+00  0.23029527758E+03  0.23029527758E+03  0.00000000000E+00 0. -1.
         21   -1    0    0  501  503 -0.00000000000E+00 -0.00000000000E+00 -0.80762548859E+03  0.80762548859E+03  0.00000000000E+00 0.  1.
          6    2    1    2  501    0  0.23410461788E+03 -0.22018867853E+03 -0.12846513367E+02  0.36488400580E+03  0.17229996667E+03 0.  0.
         24    2    3    3    0    0  0.14003396239E+03 -0.15264471110E+03  0.57302342552E+02  0.22940549183E+03  0.80208495623E+02 0.  0.
         -6    2    1    2    0  502 -0.23410461788E+03  0.22018867853E+03 -0.56448369765E+03  0.67303676037E+03  0.17620615663E+03 0.  0.
        -24    2    5    5    0    0 -0.16537154873E+03  0.21054811488E+03 -0.35156513799E+03  0.44904216599E+03  0.79765674209E+02 0.  0.
          5    1    3    3  501    0  0.94070655486E+02 -0.67543967429E+02 -0.70148855919E+02  0.13547851397E+03  0.47000000000E+01 0. -1.
        -11    1    4    4    0    0  0.50829703563E+02 -0.31544391360E+02 -0.16229924563E+02  0.61984819447E+02  0.00000000000E+00 0.  1.
         12    1    4    4    0    0  0.89204258830E+02 -0.12110031974E+03  0.73532267115E+02  0.16742067238E+03  0.00000000000E+00 0. -1.
         -5    1    5    5    0  502 -0.68733069152E+02  0.96405636431E+01 -0.21291855966E+03  0.22399459438E+03  0.47000000000E+01 0.  1.
         13    1    6    6    0    0 -0.28971664991E+02  0.43634434204E+02 -0.25721870258E+02  0.58351827994E+02  0.00000000000E+00 0. -1.
        -14    1    6    6    0    0 -0.13639988374E+03  0.16691368068E+03 -0.32584326773E+03  0.39069033800E+03  0.00000000000E+00 0.  1.
</event>
<event>
12    1  0.1623092E-001  0.2192151E+03  0.7818608E-02  0.1134762E+00
         21   -1    0    0  503  502  0.00000000000E+00  0.00000000000E+00  0.10543060360E+03  0.10543060360E+03  0.00000000000E+00 0. -1.
         21   -1    0    0  501  503 -0.00000000000E+00 -0.00000000000E+00 -0.48157125032E+03  0.48157125032E+03  0.00000000000E+00 0.  1.
          6    2    1    2  501    0 -0.12505344889E+03 -0.45408985816E+02 -0.11542493235E+03  0.24637312980E+03  0.17226857812E+03 0.  0.
         24    2    3    3    0    0 -0.62208213396E+02 -0.34503737945E+02 -0.12626141691E+03  0.18150428170E+03  0.10927712080E+03 0.  0.
         -6    2    1    2    0  502  0.12505344889E+03  0.45408985816E+02 -0.26071571438E+03  0.34062872412E+03  0.17422658495E+03 0.  0.
        -24    2    5    5    0    0  0.44717642949E+02 -0.43962681016E+02 -0.91607416180E+02  0.13311765679E+03  0.73457517900E+02 0.  0.
          5    1    3    3  501    0 -0.62845235495E+02 -0.10905247870E+02  0.10836484560E+02  0.64868848095E+02  0.47000000000E+01 0. -1.
        -13    1    4    4    0    0  0.15773473934E+01  0.21706483235E+02 -0.83592082241E+02  0.86378791683E+02  0.00000000000E+00 0.  1.
         14    1    4    4    0    0 -0.63785560789E+02 -0.56210221181E+02 -0.42669334665E+02  0.95125490018E+02  0.00000000000E+00 0. -1.
         -5    1    5    5    0  502  0.80335805942E+02  0.89371666831E+02 -0.16910829820E+03  0.20751106734E+03  0.47000000000E+01 0.  1.
         11    1    6    6    0    0  0.18686261386E+02  0.15410597516E+02 -0.46657562517E+01  0.24666417693E+02  0.00000000000E+00 0. -1.
        -12    1    6    6    0    0  0.26031381563E+02 -0.59373278532E+02 -0.86941659928E+02  0.10845123909E+03  0.00000000000E+00 0.  1.
</event>
<event>
12    1  0.1623092E-001  0.2211291E+03  0.7818608E-02  0.1134452E+00
         21   -1    0    0  503  502  0.00000000000E+00  0.00000000000E+00  0.10478120930E+03  0.10478120930E+03  0.00000000000E+00 0.  1.
         21   -1    0    0  501  503 -0.00000000000E+00 -0.00000000000E+00 -0.91075427975E+03  0.91075427975E+03  0.00000000000E+00 0.  1.
          6    2    1    2  501    0  0.17326205623E+02  0.12734848872E+03 -0.76028188631E+03  0.78973521578E+03  0.17069074204E+03 0.  0.
         24    2    3    3    0    0  0.27667217999E+02  0.15743187338E+03 -0.58018825780E+03  0.60679328074E+03  0.77649219900E+02 0.  0.
         -6    2    1    2    0  502 -0.17326205623E+02 -0.12734848872E+03 -0.45691184136E+02  0.22580027327E+03  0.17994511419E+03 0.  0.
        -24    2    5    5    0    0 -0.19526866344E+02  0.85751005915E+01 -0.58272433955E+01  0.84056529807E+02  0.81096933223E+02 0.  0.
          5    1    3    3  501    0 -0.10341012376E+02 -0.30083384658E+02 -0.18009362851E+03  0.18294193504E+03  0.47000000000E+01 0. -1.
        -13    1    4    4    0    0  0.18817989454E+02  0.54147277005E+02 -0.34559791562E+03  0.35031980192E+03  0.00000000000E+00 0.  1.
         14    1    4    4    0    0  0.88492285450E+01  0.10328459637E+03 -0.23459034218E+03  0.25647347882E+03  0.00000000000E+00 0. -1.
         -5    1    5    5    0  502  0.22006607208E+01 -0.13592358931E+03 -0.39863940740E+02  0.14174374346E+03  0.47000000000E+01 0.  1.
         13    1    6    6    0    0 -0.42874973092E+02  0.14537925786E+02  0.19324127603E+02  0.49224348766E+02  0.00000000000E+00 0. -1.
        -14    1    6    6    0    0  0.23348106748E+02 -0.59628251943E+01 -0.25151370998E+02  0.34832181041E+02  0.00000000000E+00 0.  1.
</event>
<event>
12    1  0.1623092E-001  0.2161711E+03  0.7818608E-02  0.1137621E+00
         21   -1    0    0  501  502  0.00000000000E+00  0.00000000000E+00  0.19849166285E+03  0.19849166285E+03  0.00000000000E+00 0.  1.
         21   -1    0    0  502  503 -0.00000000000E+00 -0.00000000000E+00 -0.23237742687E+03  0.23237742687E+03  0.00000000000E+00 0.  1.
         -6    2    1    2    0  503 -0.70500975914E+02 -0.10408880282E+03 -0.35385650592E+02  0.21469279052E+03  0.17039948227E+03 0.  0.
        -24    2    3    3    0    0 -0.61406362597E+02 -0.13788019432E+03 -0.46883448889E+02  0.17755979312E+03  0.80918063494E+02 0.  0.
          6    2    1    2  501    0  0.70500975914E+02  0.10408880282E+03  0.14998865709E+01  0.21617629919E+03  0.17585527059E+03 0.  0.
         24    2    5    5    0    0  0.59982500024E+01  0.10590595112E+03 -0.41798528580E+02  0.13832550322E+03  0.78324825980E+02 0.  0.
          5    1    5    5  501    0  0.64502725912E+02 -0.18171482959E+01  0.43298415151E+02  0.77850795966E+02  0.47000000000E+01 0. -1.
        -13    1    6    6    0    0 -0.24456879341E+02  0.52945009841E+02  0.88237743606E+01  0.58984506509E+02  0.00000000000E+00 0.  1.
         14    1    6    6    0    0  0.30455129343E+02  0.52960941276E+02 -0.50622302941E+02  0.79340996712E+02  0.00000000000E+00 0. -1.
         -5    1    3    3    0  503 -0.90946133173E+01  0.33791391497E+02  0.11497798298E+02  0.37132997407E+02  0.47000000000E+01 0.  1.
         11    1    4    4    0    0  0.31511238325E+01 -0.49389748728E+02 -0.46667687749E+02  0.68023157385E+02  0.00000000000E+00 0. -1.
        -12    1    4    4    0    0 -0.64557486429E+02 -0.88490445590E+02 -0.21576114085E+00  0.10953663573E+03  0.00000000000E+00 0.  1.
</event>
<event>
12    1  0.1623092E-001  0.1853406E+03  0.7818608E-02  0.1167664E+00
         21   -1    0    0  501  502  0.00000000000E+00  0.00000000000E+00  0.59809254967E+02  0.59809254967E+02  0.00000000000E+00 0.  1.
         21   -1    0    0  502  503 -0.00000000000E+00 -0.00000000000E+00 -0.59472808378E+03  0.59472808378E+03  0.00000000000E+00 0.  1.
         -6    2    1    2    0  503  0.68530564032E+02 -0.86573934031E+00 -0.40081748887E+03  0.44159461242E+03  0.17220323640E+03 0.  0.
        -24    2    3    3    0    0  0.26059620552E+02 -0.65602947264E+02 -0.25030865428E+03  0.27227336030E+03  0.80594725696E+02 0.  0.
          6    2    1    2  501    0 -0.68530564032E+02  0.86573934031E+00 -0.13410133994E+03  0.21294272632E+03  0.15054649650E+03 0.  0.
         24    2    5    5    0    0 -0.30371268664E+02  0.43387511820E+02 -0.42690547949E+02  0.10504344064E+03  0.80042185100E+02 0.  0.
          5    1    5    5  501    0 -0.38159295368E+02 -0.42521772480E+02 -0.91410791990E+02  0.10789928568E+03  0.47000000000E+01 0. -1.
        -13    1    6    6    0    0 -0.22795459101E+02 -0.20838684096E+02 -0.18462680765E+02  0.35982694334E+02  0.00000000000E+00 0.  1.
         14    1    6    6    0    0 -0.75758095630E+01  0.64226195916E+02 -0.24227867184E+02  0.69060746308E+02  0.00000000000E+00 0. -1.
         -5    1    3    3    0  503  0.42470943480E+02  0.64737207923E+02 -0.15050883459E+03  0.16932125212E+03  0.47000000000E+01 0.  1.
         13    1    4    4    0    0 -0.19049239566E+02 -0.19802071568E+02 -0.22335822343E+02  0.35410231942E+02  0.00000000000E+00 0. -1.
        -14    1    4    4    0    0  0.45108860118E+02 -0.45800875696E+02 -0.22797283193E+03  0.23686312836E+03  0.00000000000E+00 0.  1.
</event>
<event>
12    1  0.1623092E-001  0.1874405E+03  0.7818608E-02  0.1160922E+00
         21   -1    0    0  503  502  0.00000000000E+00  0.00000000000E+00  0.12777042008E+04  0.12777042008E+04  0.00000000000E+00 0.  1.
         21   -1    0    0  501  503 -0.00000000000E+00 -0.00000000000E+00 -0.32423229601E+02  0.32423229601E+02  0.00000000000E+00 0.  1.
          6    2    1    2  501    0 -0.10899169952E+02  0.74587375150E+02  0.36595812440E+03  0.41116819524E+03  0.17161546411E+03 0.  0.
         24    2    3    3    0    0  0.29262155840E+02  0.67987465540E+01  0.28688783789E+03  0.29944339734E+03  0.80369272495E+02 0.  0.
         -6    2    1    2    0  502  0.10899169952E+02 -0.74587375150E+02  0.87932284680E+03  0.89895923516E+03  0.17098821348E+03 0.  0.
        -24    2    5    5    0    0  0.45967942803E+02  0.11902389148E+02  0.49174196694E+03  0.50027223188E+03  0.78787215375E+02 0.  0.
          5    1    3    3  501    0 -0.40161325792E+02  0.67788628596E+02  0.79070286516E+02  0.11172479790E+03  0.47000000000E+01 0. -1.
        -11    1    4    4    0    0  0.56031886269E+02  0.77269876383E+01  0.22513422214E+03  0.23213077477E+03  0.00000000000E+00 0.  1.
         12    1    4    4    0    0 -0.26769730430E+02 -0.92824108429E+00  0.61753615744E+02  0.67312622562E+02  0.00000000000E+00 0. -1.
         -5    1    5    5    0  502 -0.35068772851E+02 -0.86489764298E+02  0.38758087986E+03  0.39868700329E+03  0.47000000000E+01 0.  1.
         13    1    6    6    0    0  0.54826530808E+02  0.51227124354E+01  0.48292247090E+03  0.48605174989E+03  0.00000000000E+00 0. -1.
        -14    1    6    6    0    0 -0.88585880050E+01  0.67796767129E+01  0.88194960336E+01  0.14220481991E+02  0.00000000000E+00 0.  1.
</event>
<event>
12    1  0.1623092E-001  0.1831111E+03  0.7818608E-02  0.1164863E+00
         21   -1    0    0  501  502  0.00000000000E+00  0.00000000000E+00  0.48074849669E+03  0.48074849669E+03  0.00000000000E+00 0.  1.
         21   -1    0    0  502  503 -0.00000000000E+00 -0.00000000000E+00 -0.20168704121E+03  0.20168704121E+03  0.00000000000E+00 0.  1.
         -6    2    1    2    0  503  0.13008475675E+02  0.62206814428E+02 -0.13653731383E+03  0.22828578824E+03  0.17156064480E+03 0.  0.
        -24    2    3    3    0    0  0.30668946129E+02  0.65535773352E+01 -0.13073378868E+03  0.16942199699E+03  0.10309682794E+03 0.  0.
          6    2    1    2  501    0 -0.13008475675E+02 -0.62206814428E+02  0.41559876931E+03  0.45414974966E+03  0.17172871007E+03 0.  0.
         24    2    5    5    0    0 -0.19230408910E+02 -0.72735122319E+02  0.13706617777E+03  0.17530919976E+03  0.79284120633E+02 0.  0.
          5    1    5    5  501    0  0.62219332354E+01  0.10528307890E+02  0.27853259154E+03  0.27884054990E+03  0.47000000000E+01 0. -1.
        -13    1    6    6    0    0  0.22399222695E+02 -0.57389393043E+02  0.10019989893E+03  0.11762349832E+03  0.00000000000E+00 0.  1.
         14    1    6    6    0    0 -0.41629631605E+02 -0.15345729275E+02  0.36866278838E+02  0.57685701434E+02  0.00000000000E+00 0. -1.
         -5    1    3    3    0  503 -0.17660470454E+02  0.55653237093E+02 -0.58035251535E+01  0.58863791246E+02  0.47000000000E+01 0.  1.
         11    1    4    4    0    0  0.29357763443E+02  0.10989268261E+02  0.65800404993E+01  0.32030286048E+02  0.00000000000E+00 0. -1.
        -12    1    4    4    0    0  0.13111826855E+01 -0.44356909261E+01 -0.13731382918E+03  0.13739171095E+03  0.00000000000E+00 0.  1.
</event>
<event>
12    1  0.1623092E-001  0.2286968E+03  0.7818608E-02  0.1127861E+00
         21   -1    0    0  501  502  0.00000000000E+00  0.00000000000E+00  0.12176617636E+04  0.12176617636E+04  0.00000000000E+00 0. -1.
         21   -1    0    0  502  503 -0.00000000000E+00 -0.00000000000E+00 -0.64763701590E+02  0.64763701590E+02  0.00000000000E+00 0. -1.
         -6    2    1    2    0  503  0.14570428660E+03  0.30851456304E+02  0.20023774239E+03  0.30269901817E+03  0.17131838966E+03 0.  0.
        -24    2    3    3    0    0  0.77876152079E+02  0.79244780345E+02  0.15657658841E+03  0.20851326548E+03  0.81345704046E+02 0.  0.
          6    2    1    2  501    0 -0.14570428660E+03 -0.30851456304E+02  0.95266031962E+03  0.97972644702E+03  0.17355308961E+03 0.  0.
         24    2    5    5    0    0 -0.66979757553E+02  0.41878400701E+02  0.33379626388E+03  0.35163251052E+03  0.77365291368E+02 0.  0.
          5    1    5    5  501    0 -0.78724529047E+02 -0.72729857005E+02  0.61886405575E+03  0.62809393650E+03  0.47000000000E+01 0. -1.
        -13    1    6    6    0    0 -0.82012477389E+02  0.20893387962E+02  0.24856138738E+03  0.26257445307E+03  0.00000000000E+00 0.  1.
         14    1    6    6    0    0  0.15032719836E+02  0.20985012739E+02  0.85234876492E+02  0.89058057445E+02  0.00000000000E+00 0. -1.
         -5    1    3    3    0  503  0.67828134521E+02 -0.48393324042E+02  0.43661153979E+02  0.94185752697E+02  0.47000000000E+01 0.  1.
         13    1    4    4    0    0 -0.82487428118E+00  0.67750357960E+01 -0.90520968199E+01  0.11336753700E+02  0.00000000000E+00 0. -1.
        -14    1    4    4    0    0  0.78701026360E+02  0.72469744549E+02  0.16562868523E+03  0.19717651178E+03  0.00000000000E+00 0.  1.
</event>
<event>
12    1  0.1623092E-001  0.2433339E+03  0.7818608E-02  0.1117718E+00
         21   -1    0    0  503  502  0.00000000000E+00  0.00000000000E+00  0.34805538576E+03  0.34805538576E+03  0.00000000000E+00 0.  1.
         21   -1    0    0  501  503 -0.00000000000E+00 -0.00000000000E+00 -0.26917853933E+03  0.26917853933E+03  0.00000000000E+00 0.  1.
          6    2    1    2  501    0 -0.11696036046E+03 -0.12569372752E+03 -0.14832488126E+03  0.28431949025E+03  0.17134369869E+03 0.  0.
         24    2    3    3    0    0 -0.14839385673E+03 -0.12381902085E+03 -0.13864682906E+03  0.25104286321E+03  0.80297505080E+02 0.  0.
         -6    2    1    2    0  502  0.11696036046E+03  0.12569372752E+03  0.22720172769E+03  0.33291443483E+03  0.17243189031E+03 0.  0.
        -24    2    5    5    0    0  0.39751453991E+02  0.26313341449E+02  0.27768510142E+02  0.97047153007E+02  0.79840401544E+02 0.  0.
          5    1    3    3  501    0  0.31433496272E+02 -0.18747066699E+01 -0.96780522017E+01  0.33276627043E+02  0.47000000000E+01 0. -1.
        -11    1    4    4    0    0 -0.60080433543E+02 -0.39812891605E+01 -0.45052968571E+02  0.75201589978E+02  0.00000000000E+00 0.  1.
         12    1    4    4    0    0 -0.88313423187E+02 -0.11983773169E+03 -0.93593860486E+02  0.17584127323E+03  0.00000000000E+00 0. -1.
         -5    1    5    5    0  502  0.77208906468E+02  0.99380386073E+02  0.19943321754E+03  0.23586728182E+03  0.47000000000E+01 0.  1.
         13    1    6    6    0    0 -0.14661489923E+02  0.32525024750E+02  0.22149510034E+02  0.41993300853E+02  0.00000000000E+00 0. -1.
        -14    1    6    6    0    0  0.54412943914E+02 -0.62116833019E+01  0.56190001081E+01  0.55053852154E+02  0.00000000000E+00 0.  1.
</event>
<event>
12    1  0.1623092E-001  0.2185177E+03  0.7818608E-02  0.1135027E+00
         21   -1    0    0  503  502  0.00000000000E+00  0.00000000000E+00  0.10981528067E+04  0.10981528067E+04  0.00000000000E+00 0. -1.
         21   -1    0    0  501  503 -0.00000000000E+00 -0.00000000000E+00 -0.43457531490E+02  0.43457531490E+02  0.00000000000E+00 0. -1.
          6    2    1    2  501    0 -0.87154213701E+02 -0.10205857775E+03  0.53639717489E+03  0.57913107681E+03  0.17221807290E+03 0.  0.
         24    2    3    3    0    0 -0.93152211520E+02 -0.50902779887E+02  0.49799108858E+03  0.51471051256E+03  0.75255298286E+02 0.  0.
         -6    2    1    2    0  502  0.87154213701E+02  0.10205857775E+03  0.51829810029E+03  0.56247926136E+03  0.17244763969E+03 0.  0.
        -24    2    5    5    0    0  0.11107891638E+03  0.93118846382E+02  0.29475623984E+03  0.33743401353E+03  0.77271128810E+02 0.  0.
          5    1    3    3  501    0  0.59979978190E+01 -0.51155797859E+02  0.38406086314E+02  0.64420564251E+02  0.47000000000E+01 0. -1.
        -13    1    4    4    0    0 -0.57407731200E+01  0.16095493009E+02  0.11268234078E+03  0.11397074754E+03  0.00000000000E+00 0.  1.
         14    1    4    4    0    0 -0.87411438400E+02 -0.66998272896E+02  0.38530874779E+03  0.40073976501E+03  0.00000000000E+00 0. -1.
         -5    1    5    5    0  502 -0.23924702680E+02  0.89397313644E+01  0.22354186045E+03  0.22504524783E+03  0.47000000000E+01 0.  1.
         11    1    6    6    0    0  0.10537112858E+03  0.92702177234E+02  0.29900650019E+03  0.33030539741E+03  0.00000000000E+00 0. -1.
        -12    1    6    6    0    0  0.57077878033E+01  0.41666914776E+00 -0.42502603497E+01  0.71286161228E+01  0.00000000000E+00 0.  1.
</event>
<event>
12    1  0.1623092E-001  0.2638799E+03  0.7818608E-02  0.1104848E+00
         21   -1    0    0  501  502  0.00000000000E+00  0.00000000000E+00  0.23979031605E+03  0.23979031605E+03  0.00000000000E+00 0.  1.
         21   -1    0    0  502  503 -0.00000000000E+00 -0.00000000000E+00 -0.34016260897E+03  0.34016260897E+03  0.00000000000E+00 0. -1.
         -6    2    1    2    0  503  0.16784755429E+03  0.10801277235E+03 -0.16121784035E+03  0.30914899315E+03  0.17245969802E+03 0.  0.
        -24    2    3    3    0    0  0.96909526374E+02  0.21105752380E+01 -0.36703401252E+02  0.13089800520E+03  0.79945214194E+02 0.  0.
          6    2    1    2  501    0 -0.16784755429E+03 -0.10801277235E+03  0.60845547425E+02  0.27080393187E+03  0.17260657115E+03 0.  0.
         24    2    5    5    0    0 -0.10450125219E+03 -0.81375174847E+01  0.73709276047E+02  0.15174350167E+03  0.81279161073E+02 0.  0.
          5    1    5    5  501    0 -0.63346302099E+02 -0.99875254868E+02 -0.12863728622E+02  0.11906043020E+03  0.47000000000E+01 0. -1.
        -11    1    6    6    0    0 -0.60643212623E+02  0.30148455089E+02  0.15620314961E+02  0.69501962713E+02  0.00000000000E+00 0.  1.
         12    1    6    6    0    0 -0.43858039570E+02 -0.38285972574E+02  0.58088961086E+02  0.82241538962E+02  0.00000000000E+00 0. -1.
         -5    1    3    3    0  503  0.70938027917E+02  0.10590219711E+03 -0.12451443910E+03  0.17825098794E+03  0.47000000000E+01 0.  1.
         13    1    4    4    0    0  0.48780060276E+02  0.46333307364E+01 -0.59918420042E+02  0.77402707282E+02  0.00000000000E+00 0. -1.
        -14    1    4    4    0    0  0.48129466099E+02 -0.25227554984E+01  0.23215018790E+02  0.53495297921E+02  0.00000000000E+00 0.  1.
</event>
<event>
12    1  0.1623092E-001  0.1802621E+03  0.7818608E-02  0.1168167E+00
         21   -1    0    0  501  502  0.00000000000E+00  0.00000000000E+00  0.20672424276E+03  0.20672424276E+03  0.00000000000E+00 0.  1.
         21   -1    0    0  502  503 -0.00000000000E+00 -0.00000000000E+00 -0.17969399308E+03  0.17969399308E+03  0.00000000000E+00 0.  1.
         -6    2    1    2    0  503  0.11552625971E+02 -0.47362984718E+02 -0.58051783721E+02  0.18937903630E+03  0.17354450238E+03 0.  0.
        -24    2    3    3    0    0  0.43025252028E+01 -0.99384434277E+02 -0.47494150089E+02  0.13559847472E+03  0.78965021084E+02 0.  0.
          6    2    1    2  501    0 -0.11552625971E+02  0.47362984718E+02  0.85082033396E+02  0.19703919954E+03  0.17090575842E+03 0.  0.
         24    2    5    5    0    0  0.15760935901E+02 -0.19971774028E+02  0.91191988464E+02  0.12396785120E+03  0.80029810149E+02 0.  0.
          5    1    5    5  501    0 -0.27313561873E+02  0.67334758746E+02 -0.61099550679E+01  0.73071348342E+02  0.47000000000E+01 0. -1.
        -13    1    6    6    0    0 -0.12134894165E+02 -0.26708999015E+02  0.10361450101E+01  0.29354725024E+02  0.00000000000E+00 0.  1.
         14    1    6    6    0    0  0.27895830066E+02  0.67372249865E+01  0.90155843454E+02  0.94613126175E+02  0.00000000000E+00 0. -1.
         -5    1    3    3    0  503  0.72501007684E+01  0.52021449559E+02 -0.10557633631E+02  0.53780561574E+02  0.47000000000E+01 0.  1.
         11    1    4    4    0    0 -0.31201120546E+02 -0.66797552757E+02 -0.97125162636E+01  0.74362328835E+02  0.00000000000E+00 0. -1.
        -12    1    4    4    0    0  0.35503645749E+02 -0.32586881520E+02 -0.37781633826E+02  0.61236145888E+02  0.00000000000E+00 0.  1.
</event>
<event>
12    1  0.1623092E-001  0.2006868E+03  0.7818608E-02  0.1149783E+00
         21   -1    0    0  501  502  0.00000000000E+00  0.00000000000E+00  0.34957687223E+03  0.34957687223E+03  0.00000000000E+00 0. -1.
         21   -1    0    0  502  503 -0.00000000000E+00 -0.00000000000E+00 -0.12048681139E+03  0.12048681139E+03  0.00000000000E+00 0. -1.
         -6    2    1    2    0  503  0.40824132191E+02 -0.95339956600E+02  0.17022108484E+03  0.26092083782E+03  0.16836908502E+03 0.  0.
        -24    2    3    3    0    0  0.86311177005E+02 -0.78507817291E+02  0.15555288382E+03  0.21003234913E+03  0.79396419098E+02 0.  0.
          6    2    1    2  501    0 -0.40824132191E+02  0.95339956600E+02  0.58868976004E+02  0.20914284580E+03  0.17181052505E+03 0.  0.
         24    2    5    5    0    0 -0.50527941446E+02  0.66785281119E+02 -0.27506099521E+02  0.11753347358E+03  0.77744358379E+02 0.  0.
          5    1    5    5  501    0  0.97038092548E+01  0.28554675481E+02  0.86375075525E+02  0.91609372216E+02  0.47000000000E+01 0. -1.
        -13    1    6    6    0    0  0.15301998227E+02  0.36440953911E+02 -0.20997842577E+02  0.44754928942E+02  0.00000000000E+00 0.  1.
         14    1    6    6    0    0 -0.65829939673E+02  0.30344327208E+02 -0.65082569436E+01  0.72778544637E+02  0.00000000000E+00 0. -1.
         -5    1    3    3    0  503 -0.45487044814E+02 -0.16832139309E+02  0.14668201019E+02  0.50888488686E+02  0.47000000000E+01 0.  1.
         11    1    4    4    0    0  0.11865925569E+02 -0.64096954388E+02  0.76123743123E+02  0.10021997814E+03  0.00000000000E+00 0. -1.
        -12    1    4    4    0    0  0.74445251436E+02 -0.14410862903E+02  0.79429140697E+02  0.10981237099E+03  0.00000000000E+00 0.  1.
</event>
<event>
12    1  0.1623092E-001  0.1811506E+03  0.7818608E-02  0.1166779E+00
         21   -1    0    0  501  502  0.00000000000E+00  0.00000000000E+00  0.14422144459E+03  0.14422144459E+03  0.00000000000E+00 0.  1.
         21   -1    0    0  502  503 -0.00000000000E+00 -0.00000000000E+00 -0.23195508710E+03  0.23195508710E+03  0.00000000000E+00 0.  1.
         -6    2    1    2    0  503  0.45149520322E+02 -0.34771666343E+02 -0.71150104940E+02  0.19462241762E+03  0.17195348221E+03 0.  0.
        -24    2    3    3    0    0  0.53611863429E+02  0.20010454817E+02 -0.91163148140E+02  0.13550132200E+03  0.82311836829E+02 0.  0.
          6    2    1    2  501    0 -0.45149520322E+02  0.34771666343E+02 -0.16583537568E+02  0.18155411406E+03  0.17157894582E+03 0.  0.
         24    2    5    5    0    0  0.17763245657E+02  0.12824888543E+02  0.41987457707E+02  0.92715334994E+02  0.79706813234E+02 0.  0.
          5    1    5    5  501    0 -0.62912765979E+02  0.21946777801E+02 -0.58570995275E+02  0.88838779069E+02  0.47000000000E+01 0. -1.
        -11    1    6    6    0    0 -0.20055448280E+02  0.25526034155E+02 -0.29835308191E+01  0.32599093262E+02  0.00000000000E+00 0.  1.
         12    1    6    6    0    0  0.37818693937E+02 -0.12701145612E+02  0.44970988526E+02  0.60116241732E+02  0.00000000000E+00 0. -1.
         -5    1    3    3    0  503 -0.84623431079E+01 -0.54782121160E+02  0.20013043199E+02  0.59121095624E+02  0.47000000000E+01 0.  1.
         13    1    4    4    0    0  0.13073506749E+02  0.14122441793E+02  0.13233407648E+02  0.23355577897E+02  0.00000000000E+00 0. -1.
        -14    1    4    4    0    0  0.40538356680E+02  0.58880130240E+01 -0.10439655579E+03  0.11214574410E+03  0.00000000000E+00 0.  1.
</event>
<event>
12    1  0.1623092E-001  0.1808644E+03  0.7818608E-02  0.1167818E+00
         21   -1    0    0  503  502  0.00000000000E+00  0.00000000000E+00  0.21410138953E+03  0.21410138953E+03  0.00000000000E+00 0. -1.
         21   -1    0    0  501  503 -0.00000000000E+00 -0.00000000000E+00 -0.24243593524E+03  0.24243593524E+03  0.00000000000E+00 0. -1.
          6    2    1    2  501    0  0.37663232543E+00 -0.40703364152E+02 -0.15514189721E+03  0.23564812224E+03  0.17263870812E+03 0.  0.
         24    2    3    3    0    0  0.21285174912E+02  0.26628764053E+02 -0.14082668124E+03  0.16355236612E+03  0.75862194596E+02 0.  0.
         -6    2    1    2    0  502 -0.37663232543E+00  0.40703364152E+02  0.12680735150E+03  0.22088920253E+03  0.17622437315E+03 0.  0.
        -24    2    5    5    0    0 -0.40321303602E+01  0.39478491530E+02  0.16276729768E+03  0.18441906806E+03  0.77086899680E+02 0.  0.
          5    1    3    3  501    0 -0.20908542586E+02 -0.67332128205E+02 -0.14315215967E+02  0.72095756116E+02  0.47000000000E+01 0. -1.
        -13    1    4    4    0    0 -0.28998977181E+01  0.35277494072E+02 -0.21330120653E+02  0.41326565813E+02  0.00000000000E+00 0.  1.
         14    1    4    4    0    0  0.24185072630E+02 -0.86487300190E+01 -0.11949656059E+03  0.12222580031E+03  0.00000000000E+00 0. -1.
         -5    1    5    5    0  502  0.36554980348E+01  0.12248726218E+01 -0.35959946178E+02  0.36470134466E+02  0.47000000000E+01 0.  1.
         11    1    6    6    0    0  0.11081337315E+02  0.30119715198E+02  0.14719804088E+02  0.35308156461E+02  0.00000000000E+00 0. -1.
        -12    1    6    6    0    0 -0.15113467675E+02  0.93587763317E+01  0.14804749359E+03  0.14911091160E+03  0.00000000000E+00 0.  1.
</event>
<event>
12    1  0.1623092E-001  0.2512763E+03  0.7818608E-02  0.1112563E+00
         21   -1    0    0  503  502  0.00000000000E+00  0.00000000000E+00  0.23467008922E+03  0.23467008922E+03  0.00000000000E+00 0.  1.
         21   -1    0    0  501  503 -0.00000000000E+00 -0.00000000000E+00 -0.32574480360E+03  0.32574480360E+03  0.00000000000E+00 0.  1.
          6    2    1    2  501    0 -0.36107199230E+02 -0.17914746452E+03 -0.16283419149E+03  0.29909286344E+03  0.17188374897E+03 0.  0.
         24    2    3    3    0    0  0.14511149877E+01 -0.35914637820E+02  0.13639815454E+02  0.68677076786E+02  0.56908078212E+02 0.  0.
         -6    2    1    2    0  502  0.36107199230E+02  0.17914746452E+03  0.71759477115E+02  0.26132202938E+03  0.17245937668E+03 0.  0.
        -24    2    5    5    0    0  0.30415398080E+02  0.51726708343E+02  0.87364345227E+02  0.13273724174E+03  0.79911812211E+02 0.  0.
          5    1    3    3  501    0 -0.37558314218E+02 -0.14323282670E+03 -0.17647400695E+03  0.23041578665E+03  0.47000000000E+01 0. -1.
        -13    1    4    4    0    0 -0.23642004890E+01 -0.49980232018E+02  0.18450910580E+02  0.53329627204E+02  0.00000000000E+00 0.  1.
         14    1    4    4    0    0  0.38153154767E+01  0.14065594198E+02 -0.48110951254E+01  0.15347449581E+02  0.00000000000E+00 0. -1.
         -5    1    5    5    0  502  0.56918011496E+01  0.12742075617E+03 -0.15604868111E+02  0.12858478764E+03  0.47000000000E+01 0.  1.
         13    1    6    6    0    0 -0.20903746581E+02  0.31820312084E+01  0.46611810394E+02  0.51183520902E+02  0.00000000000E+00 0. -1.
        -14    1    6    6    0    0  0.51319144661E+02  0.48544677135E+02  0.40752534833E+02  0.81553720836E+02  0.00000000000E+00 0.  1.
</event>
<event>
12    1  0.1623092E-001  0.1963733E+03  0.7818608E-02  0.1152893E+00
         21   -1    0    0  501  502  0.00000000000E+00  0.00000000000E+00  0.11774950663E+03  0.11774950663E+03  0.00000000000E+00 0. -1.
         21   -1    0    0  502  503 -0.00000000000E+00 -0.00000000000E+00 -0.53449720576E+03  0.53449720576E+03  0.00000000000E+00 0. -1.
         -6    2    1    2    0  503 -0.93616767385E+02  0.91072830542E+01 -0.41163055777E+03  0.45607255917E+03  0.17238161561E+03 0.  0.
        -24    2    3    3    0    0  0.90387835087E+01  0.37791570701E+02 -0.20892768501E+03  0.22700598563E+03  0.79818779285E+02 0.  0.
          6    2    1    2  501    0  0.93616767385E+02 -0.91072830542E+01 -0.51171413638E+01  0.19617415322E+03  0.17207867827E+03 0.  0.
         24    2    5    5    0    0  0.32620281591E+02 -0.17522831551E+01 -0.68772279315E+02  0.10758107285E+03  0.76005970592E+02 0.  0.
          5    1    5    5  501    0  0.60996485793E+02 -0.73549998991E+01  0.63655137951E+02  0.88593080374E+02  0.47000000000E+01 0. -1.
        -11    1    6    6    0    0  0.24933487383E+02 -0.37470695000E+02 -0.46879385740E+02  0.64987757187E+02  0.00000000000E+00 0.  1.
         12    1    6    6    0    0  0.76867942087E+01  0.35718411845E+02 -0.21892893574E+02  0.42593315661E+02  0.00000000000E+00 0. -1.
         -5    1    3    3    0  503 -0.10265555089E+03 -0.28684287647E+02 -0.20270287275E+03  0.22906657353E+03  0.47000000000E+01 0.  1.
         13    1    4    4    0    0 -0.23912097601E+02  0.39702931267E+02 -0.68191183764E+02  0.82450886629E+02  0.00000000000E+00 0. -1.
        -14    1    4    4    0    0  0.32950881110E+02 -0.19113605659E+01 -0.14073650125E+03  0.14455509900E+03  0.00000000000E+00 0.  1.
</event>
<event>
12    1  0.1623092E-001  0.2243296E+03  0.7818608E-02  0.1130802E+00
         21   -1    0    0  503  502  0.00000000000E+00  0.00000000000E+00  0.14622928631E+03  0.14622928631E+03  0.00000000000E+00 0.  1.
         21   -1    0    0  501  503 -0.00000000000E+00 -0.00000000000E+00 -0.41387340382E+03  0.41387340382E+03  0.00000000000E+00 0.  1.
          6    2    1    2  501    0  0.21029013274E+02 -0.14169879402E+03 -0.24965229837E+03  0.33563379921E+03  0.17263548147E+03 0.  0.
         24    2    3    3    0    0  0.42018358184E+02 -0.81932084330E+02 -0.24275005293E+03  0.27174058220E+03  0.80230586138E+02 0.  0.
         -6    2    1    2    0  502 -0.21029013274E+02  0.14169879402E+03 -0.17991819140E+02  0.22446889093E+03  0.17187731035E+03 0.  0.
        -24    2    5    5    0    0  0.49281605372E+02  0.90527906364E+02  0.13616033098E+02  0.13182338828E+03  0.81043388886E+02 0.  0.
          5    1    3    3  501    0 -0.20989344911E+02 -0.59766709687E+02 -0.69022454402E+01  0.63893217001E+02  0.47000000000E+01 0. -1.
        -13    1    4    4    0    0  0.36635532949E+02 -0.70451602686E+02 -0.96631607736E+02  0.12507301151E+03  0.00000000000E+00 0.  1.
         14    1    4    4    0    0  0.53828252359E+01 -0.11480481644E+02 -0.14611844519E+03  0.14666757069E+03  0.00000000000E+00 0. -1.
         -5    1    5    5    0  502 -0.70310618646E+02  0.51170887653E+02 -0.31607852238E+02  0.92645502647E+02  0.47000000000E+01 0.  1.
         11    1    6    6    0    0  0.38972212807E+02 -0.44380413638E+00 -0.16291839162E+01  0.39008775595E+02  0.00000000000E+00 0. -1.
        -12    1    6    6    0    0  0.10309392566E+02  0.90971710501E+02  0.15245217014E+02  0.92814612687E+02  0.00000000000E+00 0.  1.
</event>
<event>
12    1  0.1623092E-001  0.2312645E+03  0.7818608E-02  0.1126336E+00
         21   -1    0    0  503  502  0.00000000000E+00  0.00000000000E+00  0.11899325345E+03  0.11899325345E+03  0.00000000000E+00 0.  1.
         21   -1    0    0  501  503 -0.00000000000E+00 -0.00000000000E+00 -0.61125485585E+03  0.61125485585E+03  0.00000000000E+00 0.  1.
          6    2    1    2  501    0 -0.12837675363E+03 -0.75995297035E+02 -0.43894979830E+03  0.49614535803E+03  0.17671280321E+03 0.  0.
         24    2    3    3    0    0 -0.39086690591E+02  0.26294418541E+02 -0.14672707397E+03  0.17388442045E+03  0.80546828693E+02 0.  0.
         -6    2    1    2    0  502  0.12837675363E+03  0.75995297035E+02 -0.53311804097E+02  0.23410275127E+03  0.17235449996E+03 0.  0.
        -24    2    5    5    0    0  0.42928675322E+01  0.39153136241E+02 -0.40952596998E-01  0.94052655880E+02  0.85407866217E+02 0.  0.
          5    1    3    3  501    0 -0.89290063036E+02 -0.10228971558E+03 -0.29222272433E+03  0.32226093757E+03  0.47000000000E+01 0. -1.
        -11    1    4    4    0    0 -0.51640798987E+02  0.27989322482E+02 -0.14975250885E+03  0.16086015106E+03  0.00000000000E+00 0.  1.
         12    1    4    4    0    0  0.12554108396E+02 -0.16949039415E+01  0.30254348778E+01  0.13024269392E+02  0.00000000000E+00 0. -1.
         -5    1    5    5    0  502  0.12408388610E+03  0.36842160794E+02 -0.53270851500E+02  0.14005009539E+03  0.47000000000E+01 0.  1.
         13    1    6    6    0    0  0.16928113862E+02  0.45714655959E+02 -0.32513390852E+02  0.58596172171E+02  0.00000000000E+00 0. -1.
        -14    1    6    6    0    0 -0.12635246330E+02 -0.65615197176E+01  0.32472438255E+02  0.35456483709E+02  0.00000000000E+00 0.  1.
</event>
<event>
12    1  0.1623092E-001  0.1764716E+03  0.7818608E-02  0.1171489E+00
         21   -1    0    0  501  502  0.00000000000E+00  0.00000000000E+00  0.71311217659E+03  0.71311217659E+03  0.00000000000E+00 0. -1.
         21   -1    0    0  502  503 -0.00000000000E+00 -0.00000000000E+00 -0.48406912618E+02  0.48406912618E+02  0.00000000000E+00 0. -1.
         -6    2    1    2    0  503 -0.19762010870E+02 -0.26396753326E+02  0.21123253170E+03  0.27524789216E+03  0.17336347375E+03 0.  0.
        -24    2    3    3    0    0 -0.44383829958E+02 -0.31086138043E+02  0.22291048622E+03  0.24719991673E+03  0.92100171673E+02 0.  0.
          6    2    1    2  501    0  0.19762010870E+02  0.26396753326E+02  0.45347273228E+03  0.48627119705E+03  0.17243790912E+03 0.  0.
         24    2    5    5    0    0  0.61410264575E+02  0.62076082240E+02  0.27067566520E+03  0.29536690354E+03  0.79697122871E+02 0.  0.
          5    1    5    5  501    0 -0.41648253705E+02 -0.35679328914E+02  0.18279706707E+03  0.19090429351E+03  0.47000000000E+01 0. -1.
        -11    1    6    6    0    0  0.41523971329E+01 -0.66579123529E+01 -0.22427605624E+01  0.81608929529E+01  0.00000000000E+00 0.  1.
         12    1    6    6    0    0  0.57257867442E+02  0.68733994593E+02  0.27291842577E+03  0.28720601059E+03  0.00000000000E+00 0. -1.
         -5    1    3    3    0  503  0.24621819088E+02  0.46893847167E+01 -0.11677954522E+02  0.28047975436E+02  0.47000000000E+01 0.  1.
         13    1    4    4    0    0  0.88048472715E+01 -0.39988831642E+02  0.42984519170E+02  0.59365822489E+02  0.00000000000E+00 0. -1.
        -14    1    4    4    0    0 -0.53188677230E+02  0.89026935986E+01  0.17992596705E+03  0.18783409424E+03  0.00000000000E+00 0.  1.
</event>
<event>
12    1  0.1623092E-001  0.1864549E+03  0.7818608E-02  0.1161817E+00
         21   -1    0    0  503  502  0.00000000000E+00  0.00000000000E+00  0.50367828850E+02  0.50367828850E+02  0.00000000000E+00 0. -1.
         21   -1    0    0  501  503 -0.00000000000E+00 -0.00000000000E+00 -0.92235771644E+03  0.92235771644E+03  0.00000000000E+00 0. -1.
          6    2    1    2  501    0  0.47547298522E+02 -0.50539968636E+02 -0.68143187973E+03  0.70648059268E+03  0.17306180139E+03 0.  0.
         24    2    3    3    0    0 -0.36265028249E+02 -0.31893067222E+02 -0.45361714974E+03  0.46297729856E+03  0.79038853923E+02 0.  0.
         -6    2    1    2    0  502 -0.47547298522E+02  0.50539968636E+02 -0.19055800786E+03  0.26624495260E+03  0.17250793142E+03 0.  0.
        -24    2    5    5    0    0 -0.85505048280E+02  0.71042818899E+02 -0.17163763448E+03  0.21890334126E+03  0.78108897362E+02 0.  0.
          5    1    3    3  501    0  0.83812326770E+02 -0.18646901414E+02 -0.22781472999E+03  0.24350329413E+03  0.47000000000E+01 0. -1.
        -11    1    4    4    0    0 -0.55236855121E+02 -0.10641345999E+01 -0.23682020559E+03  0.24317905404E+03  0.00000000000E+00 0.  1.
         12    1    4    4    0    0  0.18971826872E+02 -0.30828932622E+02 -0.21679694415E+03  0.21979824452E+03  0.00000000000E+00 0. -1.
         -5    1    5    5    0  502  0.37957749758E+02 -0.20502850264E+02 -0.18920373378E+02  0.47341611342E+02  0.47000000000E+01 0.  1.
         11    1    6    6    0    0 -0.76376855518E+02  0.56820849631E+02 -0.76075859094E+02  0.12185880907E+03  0.00000000000E+00 0. -1.
        -12    1    6    6    0    0 -0.91281927620E+01  0.14221969268E+02 -0.95561775385E+02  0.97044532188E+02  0.00000000000E+00 0.  1.
</event>
<event>
12    1  0.1623092E-001  0.1836416E+03  0.7818608E-02  0.1165879E+00
         21   -1    0    0  503  502  0.00000000000E+00  0.00000000000E+00  0.26327326506E+03  0.26327326506E+03  0.00000000000E+00 0. -1.
         21   -1    0    0  501  503 -0.00000000000E+00 -0.00000000000E+00 -0.12460352798E+03  0.12460352798E+03  0.00000000000E+00 0.  1.
          6    2    1    2  501    0  0.48924922764E+02  0.41430718274E+02  0.53356613324E+02  0.19123592602E+03  0.17208747407E+03 0.  0.
         24    2    3    3    0    0  0.38001938710E+02 -0.42413982349E+02  0.39367559272E+02  0.10540452712E+03  0.79480918280E+02 0.  0.
         -6    2    1    2    0  502 -0.48924922764E+02 -0.41430718274E+02  0.85313123753E+02  0.19664086701E+03  0.16516400640E+03 0.  0.
        -24    2    5    5    0    0 -0.32955454101E+02 -0.25912187672E+02 -0.18124716409E+02  0.90728990916E+02  0.78394776756E+02 0.  0.
          5    1    3    3  501    0  0.10922984054E+02  0.83844700623E+02  0.13989054052E+02  0.85831398896E+02  0.47000000000E+01 0. -1.
        -13    1    4    4    0    0  0.28693341326E+02  0.17478553138E+02  0.88678996175E+00  0.33609433983E+02  0.00000000000E+00 0.  1.
         14    1    4    4    0    0  0.93085973833E+01 -0.59892535487E+02  0.38480769310E+02  0.71795093140E+02  0.00000000000E+00 0. -1.
         -5    1    5    5    0  502 -0.15969468663E+02 -0.15518530602E+02  0.10343784016E+03  0.10591187610E+03  0.47000000000E+01 0.  1.
         13    1    6    6    0    0 -0.23794010769E+02 -0.53823750733E+02 -0.67797566859E+01  0.59237793613E+02  0.00000000000E+00 0. -1.
        -14    1    6    6    0    0 -0.91614433325E+01  0.27911563061E+02 -0.11344959723E+02  0.31491197302E+02  0.00000000000E+00 0.  1.
</event>
<event>
12    1  0.1623092E-001  0.1795668E+03  0.7818608E-02  0.1168378E+00
         21   -1    0    0  501  502  0.00000000000E+00  0.00000000000E+00  0.15290435526E+02  0.15290435526E+02  0.00000000000E+00 0. -1.
         21   -1    0    0  502  503 -0.00000000000E+00 -0.00000000000E+00 -0.21144636576E+04  0.21144636576E+04  0.00000000000E+00 0. -1.
         -6    2    1    2    0  503  0.72031634310E+01 -0.48267121370E+02 -0.11317398260E+04  0.11457969687E+04  0.17214545922E+03 0.  0.
        -24    2    3    3    0    0 -0.12182295165E+02 -0.90953328488E+02 -0.96053203270E+03  0.96822414766E+03  0.80095555303E+02 0.  0.
          6    2    1    2  501    0 -0.72031634310E+01  0.48267121370E+02 -0.96743339603E+03  0.98395712439E+03  0.17280811996E+03 0.  0.
         24    2    5    5    0    0 -0.33565711703E+02 -0.31574607778E+02 -0.45032212727E+03  0.46003361858E+03  0.81959130411E+02 0.  0.
          5    1    5    5  501    0  0.26362548272E+02  0.79841729147E+02 -0.51711126876E+03  0.52392350581E+03  0.47000000000E+01 0. -1.
        -11    1    6    6    0    0  0.15492736823E+02 -0.30894907984E+02 -0.90378430034E+02  0.96761463657E+02  0.00000000000E+00 0.  1.
         12    1    6    6    0    0 -0.49058448526E+02 -0.67969979403E+00 -0.35994369724E+03  0.36327215493E+03  0.00000000000E+00 0. -1.
         -5    1    3    3    0  503  0.19385458596E+02  0.42686207118E+02 -0.17120779330E+03  0.17757282104E+03  0.47000000000E+01 0.  1.
         11    1    4    4    0    0 -0.10821304061E+02 -0.49343571618E+02 -0.82251403423E+03  0.82406384776E+03  0.00000000000E+00 0. -1.
        -12    1    4    4    0    0 -0.13609911046E+01 -0.41609756870E+02 -0.13801799847E+03  0.14416029989E+03  0.00000000000E+00 0.  1.
</event>
<event>
12    1  0.1623092E-001  0.1890180E+03  0.7818608E-02  0.1159389E+00
         21   -1    0    0  501  502  0.00000000000E+00  0.00000000000E+00  0.66236385116E+02  0.66236385116E+02  0.00000000000E+00 0. -1.
         21   -1    0    0  502  503 -0.00000000000E+00 -0.00000000000E+00 -0.70674144194E+03  0.70674144194E+03  0.00000000000E+00 0. -1.
         -6    2    1    2    0  503 -0.19219499140E+01 -0.79560144900E+02 -0.50848116956E+03  0.54241736730E+03  0.17126000702E+03 0.  0.
        -24    2    3    3    0    0  0.34579731347E+02  0.11554521385E+02 -0.20198579137E+03  0.22055441200E+03  0.80726228391E+02 0.  0.
          6    2    1    2  501    0  0.19219499140E+01  0.79560144900E+02 -0.13202388727E+03  0.23056045976E+03  0.17144768370E+03 0.  0.
         24    2    5    5    0    0  0.47096256170E+00  0.11045030914E+03 -0.14167658002E+03  0.19782558404E+03  0.82844527761E+02 0.  0.
          5    1    5    5  501    0  0.14509873523E+01 -0.30890164244E+02  0.96526927450E+01  0.32734875722E+02  0.47000000000E+01 0. -1.
        -11    1    6    6    0    0 -0.39661954043E+02  0.38307339121E+02 -0.49697165700E+02  0.74231604507E+02  0.00000000000E+00 0.  1.
         12    1    6    6    0    0  0.40132916604E+02  0.72142970022E+02 -0.91979414316E+02  0.12359397953E+03  0.00000000000E+00 0. -1.
         -5    1    3    3    0  503 -0.36501681262E+02 -0.91114666285E+02 -0.30649537818E+03  0.32186295530E+03  0.47000000000E+01 0.  1.
         13    1    4    4    0    0  0.19568170704E+02 -0.69668039420E+01 -0.19444228781E+03  0.19554859486E+03  0.00000000000E+00 0. -1.
        -14    1    4    4    0    0  0.15011560643E+02  0.18521325327E+02 -0.75435035634E+01  0.25005817140E+02  0.00000000000E+00 0.  1.
</event>
<event>
12    1  0.1623092E-001  0.4140108E+03  0.7818608E-02  0.1039079E+00
         21   -1    0    0  501  502  0.00000000000E+00  0.00000000000E+00  0.92847052166E+03  0.92847052166E+03  0.00000000000E+00 0. -1.
         21   -1    0    0  502  503 -0.00000000000E+00 -0.00000000000E+00 -0.18500576933E+03  0.18500576933E+03  0.00000000000E+00 0.  1.
         -6    2    1    2    0  503  0.33955243846E+03  0.16225712664E+03  0.33914350571E+03  0.53518526872E+03  0.17257381254E+03 0.  0.
        -24    2    3    3    0    0  0.49158409945E+02  0.16887733790E+02  0.70904056819E+02  0.11395440076E+03  0.72501554184E+02 0.  0.
          6    2    1    2  501    0 -0.33955243846E+03 -0.16225712664E+03  0.40432124661E+03  0.57829102227E+03  0.17123551727E+03 0.  0.
         24    2    5    5    0    0 -0.22096657385E+03 -0.16041824744E+03  0.34046671635E+03  0.44351164776E+03  0.78897122145E+02 0.  0.
          5    1    5    5  501    0 -0.11858586461E+03 -0.18388792075E+01  0.63854530255E+02  0.13477937452E+03  0.47000000000E+01 0. -1.
        -11    1    6    6    0    0 -0.82188188912E+02 -0.41670612542E+02  0.17152784314E+03  0.19471296649E+03  0.00000000000E+00 0.  1.
         12    1    6    6    0    0 -0.13877838494E+03 -0.11874763489E+03  0.16893887321E+03  0.24879868127E+03  0.00000000000E+00 0. -1.
         -5    1    3    3    0  503  0.29039402851E+03  0.14536939285E+03  0.26823944890E+03  0.42123086795E+03  0.47000000000E+01 0.  1.
         11    1    4    4    0    0  0.17748780460E+02  0.21791041404E+02 -0.77208900184E+01  0.29145854525E+02  0.00000000000E+00 0. -1.
        -12    1    4    4    0    0  0.31409629485E+02 -0.49033076142E+01  0.78624946838E+02  0.84808546239E+02  0.00000000000E+00 0.  1.
</event>
<event>
12    1  0.1623092E-001  0.2166299E+03  0.7818608E-02  0.1136503E+00
         21   -1    0    0  501  502  0.00000000000E+00  0.00000000000E+00  0.55330618939E+03  0.55330618939E+03  0.00000000000E+00 0. -1.
         21   -1    0    0  502  503 -0.00000000000E+00 -0.00000000000E+00 -0.25757467041E+03  0.25757467041E+03  0.00000000000E+00 0. -1.
         -6    2    1    2    0  503  0.59815324188E+02  0.11726990897E+03 -0.18439024869E+03  0.28414996993E+03  0.17149733829E+03 0.  0.
        -24    2    3    3    0    0  0.93785775174E+02  0.46101039000E+02 -0.14624451574E+03  0.19642205798E+03  0.79202834889E+02 0.  0.
          6    2    1    2  501    0 -0.59815324188E+02 -0.11726990897E+03  0.48012176767E+03  0.52673088987E+03  0.17204189603E+03 0.  0.
         24    2    5    5    0    0 -0.48878274492E+02 -0.42739513897E+02  0.11460739345E+03  0.15350542636E+03  0.78824548993E+02 0.  0.
          5    1    5    5  501    0 -0.10937049696E+02 -0.74530395078E+02  0.36551437422E+03  0.37322546350E+03  0.47000000000E+01 0. -1.
        -13    1    6    6    0    0  0.80412778953E+01  0.44349695394E+00 -0.81579095354E+01  0.11463434377E+02  0.00000000000E+00 0.  1.
         14    1    6    6    0    0 -0.56919552387E+02 -0.43183010851E+02  0.12276530298E+03  0.14204199198E+03  0.00000000000E+00 0. -1.
         -5    1    3    3    0  503 -0.33970450986E+02  0.71168869974E+02 -0.38145732949E+02  0.87727911954E+02  0.47000000000E+01 0.  1.
         11    1    4    4    0    0  0.15073580293E+02  0.40799418386E+02 -0.88648510447E+02  0.98743930284E+02  0.00000000000E+00 0. -1.
        -12    1    4    4    0    0  0.78712194880E+02  0.53016206143E+01 -0.57596005293E+02  0.97678127694E+02  0.00000000000E+00 0.  1.
</event>
<event>
12    1  0.1623092E-001  0.3961693E+03  0.7818608E-02  0.1045126E+00
         21   -1    0    0  501  502  0.00000000000E+00  0.00000000000E+00  0.45990272653E+03  0.45990272653E+03  0.00000000000E+00 0. -1.
         21   -1    0    0  502  503 -0.00000000000E+00 -0.00000000000E+00 -0.35077428532E+03  0.35077428532E+03  0.00000000000E+00 0. -1.
         -6    2    1    2    0  503  0.11063091057E+03  0.33958993535E+03 -0.12575225974E+02  0.39623532207E+03  0.17112501741E+03 0.  0.
        -24    2    3    3    0    0  0.83444102344E+02  0.33527765926E+03  0.17857722095E+02  0.35493190097E+03  0.79269975839E+02 0.  0.
          6    2    1    2  501    0 -0.11063091057E+03 -0.33958993535E+03  0.12170366719E+03  0.41444168978E+03  0.17143397871E+03 0.  0.
         24    2    5    5    0    0 -0.10253860836E+03 -0.12151485838E+03  0.64187900731E+02  0.18871535560E+03  0.78824944197E+02 0.  0.
          5    1    5    5  501    0 -0.80923022063E+01 -0.21807507697E+03  0.57515766455E+02  0.22572633418E+03  0.47000000000E+01 0. -1.
        -13    1    6    6    0    0 -0.93445816706E+01  0.11515624137E+02  0.28991595461E+01  0.15110788594E+02  0.00000000000E+00 0.  1.
         14    1    6    6    0    0 -0.93194026694E+02 -0.13303048252E+03  0.61288741185E+02  0.17360456701E+03  0.00000000000E+00 0. -1.
         -5    1    3    3    0  503  0.27186808226E+02  0.43122760868E+01 -0.30432948069E+02  0.41303421102E+02  0.47000000000E+01 0. -1.
         13    1    4    4    0    0  0.15882726270E+02  0.21975570064E+03  0.18481881376E+02  0.22110271119E+03  0.00000000000E+00 0. -1.
        -14    1    4    4    0    0  0.67561376075E+02  0.11552195862E+03 -0.62415928073E+00  0.13382918978E+03  0.00000000000E+00 0.  1.
</event>
<event>
12    1  0.1623092E-001  0.2966429E+03  0.7818608E-02  0.1086971E+00
         21   -1    0    0  501  502  0.00000000000E+00  0.00000000000E+00  0.41466118999E+03  0.41466118999E+03  0.00000000000E+00 0.  1.
         21   -1    0    0  502  503 -0.00000000000E+00 -0.00000000000E+00 -0.21213954400E+03  0.21213954400E+03  0.00000000000E+00 0. -1.
         -6    2    1    2    0  503 -0.20263248429E+03  0.13162743286E+03  0.92822959146E+02  0.31052422910E+03  0.17153276755E+03 0.  0.
        -24    2    3    3    0    0 -0.58470920158E+02  0.38860943645E+02 -0.16304248540E+02  0.10725343545E+03  0.79425748032E+02 0.  0.
          6    2    1    2  501    0  0.20263248429E+03 -0.13162743286E+03  0.10969868684E+03  0.31627650489E+03  0.17207940284E+03 0.  0.
         24    2    5    5    0    0  0.21575254373E+03 -0.80800390310E+02  0.94409991662E+02  0.26140065943E+03  0.79619061946E+02 0.  0.
          5    1    5    5  501    0 -0.13120059447E+02 -0.50827042549E+02  0.15288695175E+02  0.54875845454E+02  0.47000000000E+01 0. -1.
        -13    1    6    6    0    0  0.39133805403E+02  0.16052614846E+02  0.14936231242E+02  0.44857910924E+02  0.00000000000E+00 0.  1.
         14    1    6    6    0    0  0.17661873833E+03 -0.96853005155E+02  0.79473760420E+02  0.21654274851E+03  0.00000000000E+00 0. -1.
         -5    1    3    3    0  503 -0.14416156413E+03  0.92766489213E+02  0.10912720769E+03  0.20327079365E+03  0.47000000000E+01 0.  1.
         11    1    4    4    0    0 -0.34419041922E+02  0.63082675778E+02 -0.10347898257E+02  0.72602847248E+02  0.00000000000E+00 0. -1.
        -12    1    4    4    0    0 -0.24051878236E+02 -0.24221732132E+02 -0.59563502832E+01  0.34650588204E+02  0.00000000000E+00 0.  1.
</event>
<event>
12    1  0.1623092E-001  0.1726724E+03  0.7818608E-02  0.1175302E+00
         21   -1    0    0  503  502  0.00000000000E+00  0.00000000000E+00  0.14172846801E+04  0.14172846801E+04  0.00000000000E+00 0.  1.
         21   -1    0    0  501  503 -0.00000000000E+00 -0.00000000000E+00 -0.26239283556E+02  0.26239283556E+02  0.00000000000E+00 0.  1.
          6    2    1    2  501    0 -0.85056625422E+01  0.12161430082E+02  0.36970014878E+03  0.40768523869E+03  0.17119815175E+03 0.  0.
         24    2    3    3    0    0 -0.35933884156E+02 -0.28468699013E+02  0.10795535314E+03  0.14134796609E+03  0.78887124378E+02 0.  0.
         -6    2    1    2    0  502  0.85056625422E+01 -0.12161430082E+02  0.10213452478E+04  0.10358387250E+04  0.17203343376E+03 0.  0.
        -24    2    5    5    0    0 -0.18530185526E+01 -0.73857145446E+02  0.57131361842E+03  0.58145538352E+03  0.78948089441E+02 0.  0.
          5    1    3    3  501    0  0.27428221614E+02  0.40630129095E+02  0.26174479564E+03  0.26633727260E+03  0.47000000000E+01 0. -1.
        -13    1    4    4    0    0  0.36148107504E+01 -0.47238171250E+02  0.59204846795E+02  0.75826944841E+02  0.00000000000E+00 0.  1.
         14    1    4    4    0    0 -0.39548694906E+02  0.18769472237E+02  0.48750506342E+02  0.65521021248E+02  0.00000000000E+00 0. -1.
         -5    1    5    5    0  502  0.10358681095E+02  0.61695715364E+02  0.45003162937E+03  0.45438334147E+03  0.47000000000E+01 0.  1.
         11    1    6    6    0    0  0.15813054867E+02  0.46466686838E+01  0.30319050199E+02  0.34509260193E+02  0.00000000000E+00 0. -1.
        -12    1    6    6    0    0 -0.17666073420E+02 -0.78503814130E+02  0.54099456822E+03  0.54694612333E+03  0.00000000000E+00 0.  1.
</event>
<event>
12    1  0.1623092E-001  0.2917682E+03  0.7818608E-02  0.1089767E+00
         21   -1    0    0  503  502  0.00000000000E+00  0.00000000000E+00  0.22520448583E+03  0.22520448583E+03  0.00000000000E+00 0. -1.
         21   -1    0    0  501  503 -0.00000000000E+00 -0.00000000000E+00 -0.37752620017E+03  0.37752620017E+03  0.00000000000E+00 0.  1.
          6    2    1    2  501    0  0.22879306046E+03  0.47692955629E+02 -0.10280397849E+03  0.30934990070E+03  0.17466488066E+03 0.  0.
         24    2    3    3    0    0  0.21988374904E+03 -0.87061010028E+01 -0.72506192317E+02  0.24454037003E+03  0.78218829965E+02 0.  0.
         -6    2    1    2    0  502 -0.22879306046E+03 -0.47692955629E+02 -0.49517735849E+02  0.29338078531E+03  0.17029209170E+03 0.  0.
        -24    2    5    5    0    0 -0.26596475887E+02  0.10553639467E+02  0.34081082625E+01  0.76356916512E+02  0.70710760579E+02 0.  0.
          5    1    3    3  501    0  0.89093114202E+01  0.56399056632E+02 -0.30297786173E+02  0.64809530672E+02  0.47000000000E+01 0. -1.
        -11    1    4    4    0    0  0.77579928206E+02  0.21572797605E+02 -0.56078014923E+02  0.98126319684E+02  0.00000000000E+00 0.  1.
         12    1    4    4    0    0  0.14230382083E+03 -0.30278898608E+02 -0.16428177394E+02  0.14641405034E+03  0.00000000000E+00 0. -1.
         -5    1    5    5    0  502 -0.20219658457E+03 -0.58246595096E+02 -0.52925844111E+02  0.21702386880E+03  0.47000000000E+01 0.  1.
         13    1    6    6    0    0  0.38180207940E+01 -0.15472883426E+02  0.25922457464E+02  0.30429610666E+02  0.00000000000E+00 0. -1.
        -14    1    6    6    0    0 -0.30414496681E+02  0.26026522893E+02 -0.22514349202E+02  0.45927305846E+02  0.00000000000E+00 0.  1.
</event>
<event>
12    1  0.1623092E-001  0.1875496E+03  0.7818608E-02  0.1161572E+00
         21   -1    0    0  501  502  0.00000000000E+00  0.00000000000E+00  0.33511347056E+03  0.33511347056E+03  0.00000000000E+00 0. -1.
         21   -1    0    0  502  503 -0.00000000000E+00 -0.00000000000E+00 -0.11756573321E+03  0.11756573321E+03  0.00000000000E+00 0. -1.
         -6    2    1    2    0  503  0.22372923586E+02  0.60602022696E+02  0.18788097139E+03  0.26279769312E+03  0.17201806660E+03 0.  0.
        -24    2    3    3    0    0 -0.49856402435E+02  0.11303789238E+02  0.10909272084E+03  0.14499671781E+03  0.80680790285E+02 0.  0.
          6    2    1    2  501    0 -0.22372923586E+02 -0.60602022696E+02  0.29666765964E+02  0.18988151065E+03  0.17607304796E+03 0.  0.
         24    2    5    5    0    0 -0.55435371200E+02 -0.19322493649E+02  0.65552567045E+02  0.12579558645E+03  0.89894112068E+02 0.  0.
          5    1    5    5  501    0  0.33062447614E+02 -0.41279529047E+02 -0.35885801080E+02  0.64085924194E+02  0.47000000000E+01 0. -1.
        -11    1    6    6    0    0 -0.78384440747E+02 -0.43697480746E+01  0.39048861247E+02  0.87681405179E+02  0.00000000000E+00 0.  1.
         12    1    6    6    0    0  0.22949069547E+02 -0.14952745574E+02  0.26503705797E+02  0.38114181275E+02  0.00000000000E+00 0. -1.
         -5    1    3    3    0  503  0.72229326021E+02  0.49298233458E+02  0.78788250544E+02  0.11780097531E+03  0.47000000000E+01 0.  1.
         11    1    4    4    0    0  0.32608976671E+01  0.26030453294E+02  0.76699825023E+02  0.81062205194E+02  0.00000000000E+00 0. -1.
        -12    1    4    4    0    0 -0.53117300102E+02 -0.14726664056E+02  0.32392895818E+02  0.63934512619E+02  0.00000000000E+00 0.  1.
</event>
<event>
12    1  0.1623092E-001  0.1740021E+03  0.7818608E-02  0.1173755E+00
         21   -1    0    0  503  502  0.00000000000E+00  0.00000000000E+00  0.28979631615E+03  0.28979631615E+03  0.00000000000E+00 0.  1.
         21   -1    0    0  501  503 -0.00000000000E+00 -0.00000000000E+00 -0.22489883489E+03  0.22489883489E+03  0.00000000000E+00 0.  1.
          6    2    1    2  501    0  0.22370463942E+02 -0.10828069406E+02 -0.15590077251E+03  0.23357490727E+03  0.17214674465E+03 0.  0.
         24    2    3    3    0    0 -0.33379523857E+02 -0.28015869003E+02 -0.33030712778E+02  0.97477063154E+02  0.80694908920E+02 0.  0.
         -6    2    1    2    0  502 -0.22370463942E+02  0.10828069406E+02  0.22079825377E+03  0.28112024377E+03  0.17221799513E+03 0.  0.
        -24    2    5    5    0    0 -0.23091577018E+02  0.47649933834E+01  0.32397145756E+02  0.92561636446E+02  0.83439531382E+02 0.  0.
          5    1    3    3  501    0  0.55749987799E+02  0.17187799597E+02 -0.12287005973E+03  0.13609784412E+03  0.47000000000E+01 0. -1.
        -13    1    4    4    0    0 -0.13409583084E+01 -0.36258390870E+02 -0.48815070333E+02  0.60822530112E+02  0.00000000000E+00 0.  1.
         14    1    4    4    0    0 -0.32038565548E+02  0.82425218665E+01  0.15784357554E+02  0.36654533042E+02  0.00000000000E+00 0. -1.
         -5    1    5    5    0  502  0.72111307623E+00  0.60630760229E+01  0.18840110802E+03  0.18855860733E+03  0.47000000000E+01 0.  1.
         11    1    6    6    0    0 -0.49364881370E+02  0.38242402007E+00 -0.15758798757E+01  0.49391508969E+02  0.00000000000E+00 0. -1.
        -12    1    6    6    0    0  0.26273304352E+02  0.43825693634E+01  0.33973025631E+02  0.43170127477E+02  0.00000000000E+00 0.  1.
</event>
<event>
12    1  0.1623092E-001  0.2165698E+03  0.7818608E-02  0.1136479E+00
         21   -1    0    0  501  502  0.00000000000E+00  0.00000000000E+00  0.40561836702E+03  0.40561836702E+03  0.00000000000E+00 0.  1.
         21   -1    0    0  502  503 -0.00000000000E+00 -0.00000000000E+00 -0.12523695466E+03  0.12523695466E+03  0.00000000000E+00 0.  1.
         -6    2    1    2    0  503 -0.51100963057E+02  0.12091063347E+03  0.21381569731E+03  0.30428637258E+03  0.17216955135E+03 0.  0.
        -24    2    3    3    0    0 -0.53630441636E+02  0.13405574976E+03  0.10391589129E+03  0.19347459655E+03  0.76070616746E+02 0.  0.
          6    2    1    2  501    0  0.51100963057E+02 -0.12091063347E+03  0.66565715041E+02  0.22656894910E+03  0.17225505672E+03 0.  0.
         24    2    5    5    0    0  0.71846889247E+02 -0.76547047227E+02 -0.12968253901E+02  0.13304748924E+03  0.80697167551E+02 0.  0.
          5    1    5    5  501    0 -0.20745926191E+02 -0.44363586238E+02  0.79533968942E+02  0.93521459853E+02  0.47000000000E+01 0. -1.
        -11    1    6    6    0    0  0.14683536729E+02 -0.62950108773E+02 -0.30855883610E+02  0.71626866459E+02  0.00000000000E+00 0.  1.
         12    1    6    6    0    0  0.57163352518E+02 -0.13596938454E+02  0.17887629709E+02  0.61420622783E+02  0.00000000000E+00 0. -1.
         -5    1    3    3    0  503  0.25294785797E+01 -0.13145116296E+02  0.10989980602E+03  0.11081177603E+03  0.47000000000E+01 0.  1.
         13    1    4    4    0    0  0.15173683315E+02  0.52743800569E+02  0.22108750349E+02  0.59168792500E+02  0.00000000000E+00 0. -1.
        -14    1    4    4    0    0 -0.68804124952E+02  0.81311949191E+02  0.81807140944E+02  0.13430580405E+03  0.00000000000E+00 0.  1.
</event>
<event>
12    1  0.1623092E-001  0.1794759E+03  0.7818608E-02  0.1168413E+00
         21   -1    0    0  501  502  0.00000000000E+00  0.00000000000E+00  0.35431341986E+03  0.35431341986E+03  0.00000000000E+00 0. -1.
         21   -1    0    0  502  503 -0.00000000000E+00 -0.00000000000E+00 -0.91042988406E+02  0.91042988406E+02  0.00000000000E+00 0. -1.
         -6    2    1    2    0  503  0.52932408209E+02  0.18332771477E+02  0.14512433537E+03  0.23048415071E+03  0.17007039913E+03 0.  0.
        -24    2    3    3    0    0  0.90726459808E+01 -0.45395695206E+02  0.11506856328E+03  0.14735512061E+03  0.79559256324E+02 0.  0.
          6    2    1    2  501    0 -0.52932408209E+02 -0.18332771477E+02  0.11814609609E+03  0.21487225756E+03  0.17050999003E+03 0.  0.
         24    2    5    5    0    0  0.33181444455E+02 -0.36252887065E+02  0.57723601243E+02  0.10805608816E+03  0.76998856943E+02 0.  0.
          5    1    5    5  501    0 -0.86113852664E+02  0.17920115588E+02  0.60422494845E+02  0.10681616941E+03  0.47000000000E+01 0. -1.
        -13    1    6    6    0    0 -0.10450194153E+02 -0.36974918305E+02  0.36872164118E+01  0.38599827802E+02  0.00000000000E+00 0.  1.
         14    1    6    6    0    0  0.43631638609E+02  0.72203123959E+00  0.54036384831E+02  0.69456260354E+02  0.00000000000E+00 0. -1.
         -5    1    3    3    0  503  0.43859762228E+02  0.63728466683E+02  0.30055772087E+02  0.83129030093E+02  0.47000000000E+01 0.  1.
         13    1    4    4    0    0  0.33085923860E+02 -0.48395801439E+02  0.47082360961E+02  0.75190296370E+02  0.00000000000E+00 0. -1.
        -14    1    4    4    0    0 -0.24013277879E+02  0.30001062335E+01  0.67986202323E+02  0.72164824244E+02  0.00000000000E+00 0.  1.
</event>
<event>
12    1  0.1623092E-001  0.2098977E+03  0.7818608E-02  0.1141872E+00
         21   -1    0    0  503  502  0.00000000000E+00  0.00000000000E+00  0.52080511840E+03  0.52080511840E+03  0.00000000000E+00 0. -1.
         21   -1    0    0  501  503 -0.00000000000E+00 -0.00000000000E+00 -0.21859803737E+03  0.21859803737E+03  0.00000000000E+00 0.  1.
          6    2    1    2  501    0  0.24681020769E+02  0.11671012599E+03 -0.13868931265E+03  0.25157859192E+03  0.17270395529E+03 0.  0.
         24    2    3    3    0    0  0.70352074186E+02  0.34914768473E+02 -0.10126526230E+03  0.15058861630E+03  0.79081114114E+02 0.  0.
         -6    2    1    2    0  502 -0.24681020769E+02 -0.11671012599E+03  0.44089639368E+03  0.48782456385E+03  0.17132649778E+03 0.  0.
        -24    2    5    5    0    0 -0.51003576739E+02 -0.69733885988E+02  0.40816818512E+03  0.42463540565E+03  0.79055554502E+02 0.  0.
          5    1    3    3  501    0 -0.45671053416E+02  0.81795357518E+02 -0.37424050352E+02  0.10098997562E+03  0.47000000000E+01 0. -1.
        -11    1    4    4    0    0  0.32798212314E+02 -0.72755226737E+00 -0.92411483089E+02  0.98061889998E+02  0.00000000000E+00 0.  1.
         12    1    4    4    0    0  0.37553861871E+02  0.35642320741E+02 -0.88537792107E+01  0.52526726298E+02  0.00000000000E+00 0. -1.
         -5    1    5    5    0  502  0.26322555970E+02 -0.46976240004E+02  0.32728208561E+02  0.63189158195E+02  0.47000000000E+01 0.  1.
         13    1    6    6    0    0 -0.30125382687E+02 -0.85029856179E+02  0.29189410632E+03  0.30551560423E+03  0.00000000000E+00 0. -1.
        -14    1    6    6    0    0 -0.20878194052E+02  0.15295970192E+02  0.11627407879E+03  0.11911980142E+03  0.00000000000E+00 0.  1.
</event>
<event>
12    1  0.1623092E-001  0.1854513E+03  0.7818608E-02  0.1162975E+00
         21   -1    0    0  501  502  0.00000000000E+00  0.00000000000E+00  0.13451706491E+03  0.13451706491E+03  0.00000000000E+00 0. -1.
         21   -1    0    0  502  503 -0.00000000000E+00 -0.00000000000E+00 -0.30066393489E+03  0.30066393489E+03  0.00000000000E+00 0. -1.
         -6    2    1    2    0  503  0.61846013992E+02 -0.20583075371E+02 -0.16940752737E+03  0.25117943236E+03  0.17361913624E+03 0.  0.
        -24    2    3    3    0    0  0.48332624717E+02 -0.71397519519E+02 -0.62088321886E+02  0.13157917613E+03  0.77617468849E+02 0.  0.
          6    2    1    2  501    0 -0.61846013992E+02  0.20583075371E+02  0.32606573938E+01  0.18400156744E+03  0.17203881101E+03 0.  0.
         24    2    5    5    0    0 -0.83616880815E+02 -0.30167575479E+02  0.30069664222E+02  0.12243524506E+03  0.78640569423E+02 0.  0.
          5    1    5    5  501    0  0.21770866823E+02  0.50750650850E+02 -0.26809006828E+02  0.61566322377E+02  0.47000000000E+01 0. -1.
        -11    1    6    6    0    0 -0.21004133906E+02 -0.39238915976E+02  0.38194980146E+02  0.58649148983E+02  0.00000000000E+00 0.  1.
         12    1    6    6    0    0 -0.62612746910E+02  0.90713404969E+01 -0.81253159245E+01  0.63786096078E+02  0.00000000000E+00 0. -1.
         -5    1    3    3    0  503  0.13513389275E+02  0.50814444147E+02 -0.10731920549E+03  0.11960025623E+03  0.47000000000E+01 0.  1.
         11    1    4    4    0    0  0.13222816745E+02 -0.33775741269E+02 -0.70645355246E+02  0.79412907004E+02  0.00000000000E+00 0. -1.
        -12    1    4    4    0    0  0.35109807972E+02 -0.37621778250E+02  0.85570333595E+01  0.52166269125E+02  0.00000000000E+00 0.  1.
</event>
<event>
12    1  0.1623092E-001  0.1870003E+03  0.7818608E-02  0.1161247E+00
         21   -1    0    0  503  502  0.00000000000E+00  0.00000000000E+00  0.33980835550E+03  0.33980835550E+03  0.00000000000E+00 0. -1.
         21   -1    0    0  501  503 -0.00000000000E+00 -0.00000000000E+00 -0.13314887875E+03  0.13314887875E+03  0.00000000000E+00 0. -1.
          6    2    1    2  501    0  0.36557768467E+02  0.63130307940E+02  0.21630519558E+03  0.28593191243E+03  0.17218366559E+03 0.  0.
         24    2    3    3    0    0  0.40602548770E+02  0.49630647458E+02  0.41810635736E+02  0.11080612194E+03  0.80113040537E+02 0.  0.
         -6    2    1    2    0  502 -0.36557768467E+02 -0.63130307940E+02 -0.96457188397E+01  0.18702532182E+03  0.17194046904E+03 0.  0.
        -24    2    5    5    0    0 -0.39288517208E+02 -0.85682447898E+02  0.40274635265E+02  0.13197818058E+03  0.83133172923E+02 0.  0.
          5    1    3    3  501    0 -0.40447803027E+01  0.13499660483E+02  0.17449455985E+03  0.17512579050E+03  0.47000000000E+01 0. -1.
        -13    1    4    4    0    0  0.57867266883E+02  0.59253788691E+02  0.32750652659E+02  0.89063108527E+02  0.00000000000E+00 0.  1.
         14    1    4    4    0    0 -0.17264718113E+02 -0.96231412338E+01  0.90599830768E+01  0.21743013409E+02  0.00000000000E+00 0. -1.
         -5    1    5    5    0  502  0.27307487409E+01  0.22552139957E+02 -0.49920354105E+02  0.55047141245E+02  0.47000000000E+01 0.  1.
         13    1    6    6    0    0  0.16362380665E+02 -0.23561940882E+02 -0.14554632030E+02  0.32167217360E+02  0.00000000000E+00 0. -1.
        -14    1    6    6    0    0 -0.55650897873E+02 -0.62120507015E+02  0.54829267295E+02  0.99810963216E+02  0.00000000000E+00 0.  1.
</event>
<event>
12    1  0.1623092E-001  0.2947310E+03  0.7818608E-02  0.1087942E+00
         21   -1    0    0  501  502  0.00000000000E+00  0.00000000000E+00  0.95923061883E+02  0.95923061883E+02  0.00000000000E+00 0.  1.
         21   -1    0    0  502  503 -0.00000000000E+00 -0.00000000000E+00 -0.12346996925E+04  0.12346996925E+04  0.00000000000E+00 0. -1.
         -6    2    1    2    0  503 -0.94441301823E+02 -0.22009275646E+03 -0.91356204154E+03  0.95992811312E+03  0.17177426375E+03 0.  0.
        -24    2    3    3    0    0 -0.46902925273E+02 -0.68083642883E+02 -0.17723868396E+03  0.20656177144E+03  0.66475164561E+02 0.  0.
          6    2    1    2  501    0  0.94441301823E+02  0.22009275646E+03 -0.22521458904E+03  0.37069464122E+03  0.17126857557E+03 0.  0.
         24    2    5    5    0    0  0.12148815279E+03  0.11424685119E+03 -0.12907067680E+03  0.22509028115E+03  0.78706294446E+02 0.  0.
          5    1    5    5  501    0 -0.27046850965E+02  0.10584590527E+03 -0.96143912241E+02  0.14560436007E+03  0.47000000000E+01 0. -1.
        -13    1    6    6    0    0  0.55887130385E+02  0.11117009590E+02 -0.67167704686E+02  0.88082119625E+02  0.00000000000E+00 0.  1.
         14    1    6    6    0    0  0.65601022403E+02  0.10312984160E+03 -0.61902972114E+02  0.13700816153E+03  0.00000000000E+00 0. -1.
         -5    1    3    3    0  503 -0.47538376549E+02 -0.15200911358E+03 -0.73632335758E+03  0.75336634168E+03  0.47000000000E+01 0.  1.
         11    1    4    4    0    0 -0.43887712094E+02 -0.72248312160E+02 -0.18128069576E+03  0.20002160018E+03  0.00000000000E+00 0. -1.
        -12    1    4    4    0    0 -0.30152131793E+01  0.41646692774E+01  0.40420118050E+01  0.65401712622E+01  0.00000000000E+00 0.  1.
</event>
<event>
12    1  0.1623092E-001  0.1921520E+03  0.7818608E-02  0.1157488E+00
         21   -1    0    0  501  502  0.00000000000E+00  0.00000000000E+00  0.15451594435E+03  0.15451594435E+03  0.00000000000E+00 0.  1.
         21   -1    0    0  502  503 -0.00000000000E+00 -0.00000000000E+00 -0.24184690585E+03  0.24184690585E+03  0.00000000000E+00 0.  1.
         -6    2    1    2    0  503 -0.67690757203E+02 -0.46450240820E+02 -0.80481677571E+02  0.20832590374E+03  0.17373174224E+03 0.  0.
        -24    2    3    3    0    0  0.22405796914E+02 -0.36682656627E+02 -0.17509769007E+01  0.88186784417E+02  0.76981854960E+02 0.  0.
          6    2    1    2  501    0  0.67690757203E+02  0.46450240820E+02 -0.68492839284E+01  0.18803694646E+03  0.16903052110E+03 0.  0.
         24    2    5    5    0    0  0.32195204973E+02 -0.36928406044E+02 -0.36029402230E+02  0.92719045285E+02  0.69989035836E+02 0.  0.
          5    1    5    5  501    0  0.35495552230E+02  0.83378646865E+02  0.29180118301E+02  0.95317901179E+02  0.47000000000E+01 0. -1.
        -13    1    6    6    0    0  0.50749369988E+02 -0.95901578544E+01 -0.27866418449E+02  0.58685662295E+02  0.00000000000E+00 0.  1.
         14    1    6    6    0    0 -0.18554165015E+02 -0.27338248190E+02 -0.81629837811E+01  0.34033382990E+02  0.00000000000E+00 0. -1.
         -5    1    3    3    0  503 -0.90096554117E+02 -0.97675841931E+01 -0.78730700670E+02  0.12013911933E+03  0.47000000000E+01 0.  1.
         11    1    4    4    0    0 -0.17019551527E+02 -0.16664683751E+02  0.26565522528E+02  0.35680580234E+02  0.00000000000E+00 0. -1.
        -12    1    4    4    0    0  0.39425348441E+02 -0.20017972877E+02 -0.28316499428E+02  0.52506204183E+02  0.00000000000E+00 0.  1.
</event>
<event>
12    1  0.1623092E-001  0.1922685E+03  0.7818608E-02  0.1156560E+00
         21   -1    0    0  503  502  0.00000000000E+00  0.00000000000E+00  0.83763500841E+02  0.83763500841E+02  0.00000000000E+00 0. -1.
         21   -1    0    0  501  503 -0.00000000000E+00 -0.00000000000E+00 -0.64668477940E+03  0.64668477940E+03  0.00000000000E+00 0. -1.
          6    2    1    2  501    0  0.78068837866E+02 -0.30714124979E+02 -0.75272767345E+02  0.20647803183E+03  0.17300025204E+03 0.  0.
         24    2    3    3    0    0  0.98459608614E+02  0.19868906086E+02 -0.18129857843E+02  0.12734631461E+03  0.76153293704E+02 0.  0.
         -6    2    1    2    0  502 -0.78068837866E+02  0.30714124979E+02 -0.48764851122E+03  0.52397024842E+03  0.17235327039E+03 0.  0.
        -24    2    5    5    0    0 -0.11119859535E+03 -0.87518624686E+01 -0.31261958166E+03  0.34145350623E+03  0.80110994103E+02 0.  0.
          5    1    3    3  501    0 -0.20390770748E+02 -0.50583031065E+02 -0.57142909502E+02  0.79131717217E+02  0.47000000000E+01 0. -1.
        -11    1    4    4    0    0  0.67751795634E+02  0.32648641702E+02 -0.42247372488E+02  0.86261695431E+02  0.00000000000E+00 0.  1.
         12    1    4    4    0    0  0.30707812980E+02 -0.12779735616E+02  0.24117514645E+02  0.41084619179E+02  0.00000000000E+00 0. -1.
         -5    1    5    5    0  502  0.33129757482E+02  0.39465987448E+02 -0.17502892956E+03  0.18251674219E+03  0.47000000000E+01 0.  1.
         11    1    6    6    0    0 -0.26320776356E+02 -0.21959097088E+02 -0.18145573673E+03  0.18466501999E+03  0.00000000000E+00 0. -1.
        -12    1    6    6    0    0 -0.84877818992E+02  0.13207234620E+02 -0.13116384492E+03  0.15678848624E+03  0.00000000000E+00 0.  1.
</event>
<event>
12    1  0.1623092E-001  0.1935184E+03  0.7818608E-02  0.1155423E+00
         21   -1    0    0  501  502  0.00000000000E+00  0.00000000000E+00  0.13744389308E+03  0.13744389308E+03  0.00000000000E+00 0. -1.
         21   -1    0    0  502  503 -0.00000000000E+00 -0.00000000000E+00 -0.27185884648E+03  0.27185884648E+03  0.00000000000E+00 0. -1.
         -6    2    1    2    0  503 -0.45543506119E+02 -0.73973625213E+02 -0.65856806669E+02  0.20399911160E+03  0.17243030583E+03 0.  0.
        -24    2    3    3    0    0  0.32553451153E+02 -0.39533355585E+01 -0.43239563638E+02  0.96595176003E+02  0.79910025149E+02 0.  0.
          6    2    1    2  501    0  0.45543506119E+02  0.73973625213E+02 -0.68558146739E+02  0.20530362796E+03  0.17292498950E+03 0.  0.
         24    2    5    5    0    0  0.68334690240E+02  0.11047452717E+02 -0.84429958941E+02  0.13636056681E+03  0.81695226987E+02 0.  0.
          5    1    5    5  501    0 -0.22791184120E+02  0.62926172496E+02  0.15871812202E+02  0.68943061153E+02  0.47000000000E+01 0. -1.
        -11    1    6    6    0    0  0.18471673764E+02  0.55793081658E+01  0.15366202842E+02  0.24666811733E+02  0.00000000000E+00 0.  1.
         12    1    6    6    0    0  0.49863016475E+02  0.54681445509E+01 -0.99796161783E+02  0.11169375508E+03  0.00000000000E+00 0. -1.
         -5    1    3    3    0  503 -0.78096957272E+02 -0.70020289654E+02 -0.22617243031E+02  0.10740393559E+03  0.47000000000E+01 0.  1.
         11    1    4    4    0    0  0.21458973686E+02 -0.41719285371E+02 -0.25826945284E+02  0.53553874054E+02  0.00000000000E+00 0. -1.
        -12    1    4    4    0    0  0.11094477467E+02  0.37765949812E+02 -0.17412618354E+02  0.43041301949E+02  0.00000000000E+00 0.  1.
</event>
<event>
12    1  0.1623092E-001  0.1974072E+03  0.7818608E-02  0.1152525E+00
         21   -1    0    0  501  502  0.00000000000E+00  0.00000000000E+00  0.16489164832E+03  0.16489164832E+03  0.00000000000E+00 0. -1.
         21   -1    0    0  502  503 -0.00000000000E+00 -0.00000000000E+00 -0.68530820955E+03  0.68530820955E+03  0.00000000000E+00 0. -1.
         -6    2    1    2    0  503 -0.39269189028E+02 -0.80134121512E+02 -0.60490389920E+03  0.63547279186E+03  0.17307049228E+03 0.  0.
        -24    2    3    3    0    0 -0.93712973887E+01 -0.12008079746E+03 -0.47116612352E+03  0.49265296310E+03  0.78754091752E+02 0.  0.
          6    2    1    2  501    0  0.39269189028E+02  0.80134121512E+02  0.84487337967E+02  0.21472706601E+03  0.17608536556E+03 0.  0.
         24    2    5    5    0    0  0.26143979042E+02 -0.27835971674E+02  0.34686927928E+02  0.95010805629E+02  0.79784216848E+02 0.  0.
          5    1    5    5  501    0  0.13125209986E+02  0.10797009319E+03  0.49800410039E+02  0.11971626038E+03  0.47000000000E+01 0. -1.
        -13    1    6    6    0    0  0.49092243835E+02 -0.13944901607E+02  0.43203836491E+02  0.66866136221E+02  0.00000000000E+00 0.  1.
         14    1    6    6    0    0 -0.22948264793E+02 -0.13891070067E+02 -0.85169085638E+01  0.28144669408E+02  0.00000000000E+00 0. -1.
         -5    1    3    3    0  503 -0.29897891639E+02  0.39946675952E+02 -0.13373777568E+03  0.14281982876E+03  0.47000000000E+01 0.  1.
         11    1    4    4    0    0 -0.42402093340E+02 -0.88853660116E+02 -0.32228738718E+03  0.33698971850E+03  0.00000000000E+00 0. -1.
        -12    1    4    4    0    0  0.33030795951E+02 -0.31227137347E+02 -0.14887873633E+03  0.15566324460E+03  0.00000000000E+00 0.  1.
</event>
<event>
12    1  0.1623092E-001  0.2625040E+03  0.7818608E-02  0.1106193E+00
         21   -1    0    0  501  502  0.00000000000E+00  0.00000000000E+00  0.27115197335E+03  0.27115197335E+03  0.00000000000E+00 0.  1.
         21   -1    0    0  502  503 -0.00000000000E+00 -0.00000000000E+00 -0.25422488920E+03  0.25422488920E+03  0.00000000000E+00 0. -1.
         -6    2    1    2    0  503  0.15083828412E+03  0.12772670730E+03 -0.22770879288E+02  0.26348979304E+03  0.17274854089E+03 0.  0.
        -24    2    3    3    0    0  0.11606693410E+03  0.21691302339E+02 -0.45295255906E+02  0.14955125070E+03  0.79823997583E+02 0.  0.
          6    2    1    2  501    0 -0.15083828412E+03 -0.12772670730E+03  0.39697963442E+02  0.26188706951E+03  0.16716042941E+03 0.  0.
         24    2    5    5    0    0 -0.77915851551E+02 -0.76459684662E+01 -0.11482741372E+02  0.11229221814E+03  0.79676521941E+02 0.  0.
          5    1    5    5  501    0 -0.72922432568E+02 -0.12008073884E+03  0.51180704814E+02  0.14959485137E+03  0.47000000000E+01 0. -1.
        -13    1    6    6    0    0  0.10101410802E+02 -0.20228340993E+02 -0.49121325615E+01  0.23137703556E+02  0.00000000000E+00 0.  1.
         14    1    6    6    0    0 -0.88017262353E+02  0.12582372527E+02 -0.65706088103E+01  0.89154514583E+02  0.00000000000E+00 0. -1.
         -5    1    3    3    0  503  0.34771350018E+02  0.10603540497E+03  0.22524376618E+02  0.11393854234E+03  0.47000000000E+01 0.  1.
         11    1    4    4    0    0  0.10308370861E+03  0.38028170791E+02 -0.58874970512E+02  0.12465414115E+03  0.00000000000E+00 0. -1.
        -12    1    4    4    0    0  0.12983225493E+02 -0.16336868452E+02  0.13579714607E+02  0.24897109547E+02  0.00000000000E+00 0.  1.
</event>
<event>
12    1  0.1623092E-001  0.1883152E+03  0.7818608E-02  0.1160138E+00
         21   -1    0    0  503  502  0.00000000000E+00  0.00000000000E+00  0.87751053155E+02  0.87751053155E+02  0.00000000000E+00 0. -1.
         21   -1    0    0  501  503 -0.00000000000E+00 -0.00000000000E+00 -0.40419668705E+03  0.40419668705E+03  0.00000000000E+00 0.  1.
          6    2    1    2  501    0 -0.51108962811E+02  0.52631933088E+02 -0.17272504720E+03  0.25505492075E+03  0.17273339054E+03 0.  0.
         24    2    3    3    0    0 -0.85275010452E+02  0.38303426859E+02 -0.69070344569E+02  0.14487773491E+03  0.86486216566E+02 0.  0.
         -6    2    1    2    0  502  0.51108962811E+02 -0.52631933088E+02 -0.14372058669E+03  0.23689281946E+03  0.17343688884E+03 0.  0.
        -24    2    5    5    0    0  0.31135882928E+02 -0.10276298043E+03 -0.11123328166E+03  0.17372984916E+03  0.79243575076E+02 0.  0.
          5    1    3    3  501    0  0.34166047641E+02  0.14328506229E+02 -0.10365470263E+03  0.11017718584E+03  0.47000000000E+01 0. -1.
        -11    1    4    4    0    0 -0.73868254593E+02  0.16410377142E+02 -0.86297982219E+02  0.11477439283E+03  0.00000000000E+00 0.  1.
         12    1    4    4    0    0 -0.11406755859E+02  0.21893049717E+02  0.17227637650E+02  0.30103342076E+02  0.00000000000E+00 0. -1.
         -5    1    5    5    0  502  0.19973079883E+02  0.50131047340E+02 -0.32487305038E+02  0.63162970291E+02  0.47000000000E+01 0.  1.
         11    1    6    6    0    0 -0.47780660922E+01 -0.15158278060E+02  0.10843307403E+02  0.19240078606E+02  0.00000000000E+00 0. -1.
        -12    1    6    6    0    0  0.35913949020E+02 -0.87604702368E+02 -0.12207658906E+03  0.15448977056E+03  0.00000000000E+00 0.  1.
</event>
<event>
12    1  0.1623092E-001  0.2207796E+03  0.7818608E-02  0.1133398E+00
         21   -1    0    0  501  502  0.00000000000E+00  0.00000000000E+00  0.84525865923E+02  0.84525865923E+02  0.00000000000E+00 0.  1.
         21   -1    0    0  502  503 -0.00000000000E+00 -0.00000000000E+00 -0.77892729311E+03  0.77892729311E+03  0.00000000000E+00 0. -1.
         -6    2    1    2    0  503 -0.10726460257E+03  0.86671955795E+02 -0.56822035155E+03  0.60960480403E+03  0.17241208282E+03 0.  0.
        -24    2    3    3    0    0 -0.12132540522E+03  0.11719005954E+03 -0.48963631822E+03  0.52400923684E+03  0.79928669293E+02 0.  0.
          6    2    1    2  501    0  0.10726460257E+03 -0.86671955795E+02 -0.12618107564E+03  0.25384835500E+03  0.17175447767E+03 0.  0.
         24    2    5    5    0    0  0.12617520197E+03 -0.11332760387E+03 -0.10740023176E+03  0.21586224647E+03  0.79362284996E+02 0.  0.
          5    1    5    5  501    0 -0.18910599400E+02  0.26655648078E+02 -0.18780843878E+02  0.37986108525E+02  0.47000000000E+01 0. -1.
        -11    1    6    6    0    0  0.79872050086E+02 -0.10800755805E+03 -0.53470196954E+02  0.14458298290E+03  0.00000000000E+00 0.  1.
         12    1    6    6    0    0  0.46303151881E+02 -0.53200458185E+01 -0.53930034804E+02  0.71279263573E+02  0.00000000000E+00 0. -1.
         -5    1    3    3    0  503  0.14060802656E+02 -0.30518103744E+02 -0.78584033333E+02  0.85595567189E+02  0.47000000000E+01 0.  1.
         11    1    4    4    0    0 -0.11033696767E+03  0.82045534103E+02 -0.44701927551E+03  0.46768787538E+03  0.00000000000E+00 0. -1.
        -12    1    4    4    0    0 -0.10988437549E+02  0.35144525437E+02 -0.42617042703E+02  0.56321361460E+02  0.00000000000E+00 0.  1.
</event>
<event>
12    1  0.1623092E-001  0.2052381E+03  0.7818608E-02  0.1145412E+00
         21   -1    0    0  501  502  0.00000000000E+00  0.00000000000E+00  0.86727601858E+02  0.86727601858E+02  0.00000000000E+00 0.  1.
         21   -1    0    0  502  503 -0.00000000000E+00 -0.00000000000E+00 -0.49200325505E+03  0.49200325505E+03  0.00000000000E+00 0.  1.
         -6    2    1    2    0  503  0.63737227165E+02 -0.93102586783E+02 -0.23592173824E+03  0.31264170608E+03  0.17133372118E+03 0.  0.
        -24    2    3    3    0    0  0.61511539120E+02 -0.10074342000E+03 -0.25477233424E+03  0.29164715943E+03  0.78842990755E+02 0.  0.
          6    2    1    2  501    0 -0.63737227165E+02  0.93102586783E+02 -0.16935391494E+03  0.26608915082E+03  0.17144142407E+03 0.  0.
         24    2    5    5    0    0 -0.28472930082E+01 -0.11241927194E+02 -0.92954643618E+02  0.12307061938E+03  0.79820571151E+02 0.  0.
          5    1    5    5  501    0 -0.60889934156E+02  0.10434451398E+03 -0.76399271324E+02  0.14301853145E+03  0.47000000000E+01 0. -1.
        -13    1    6    6    0    0  0.31439566016E+02 -0.28270646369E+02 -0.51760275405E+02  0.66834136991E+02  0.00000000000E+00 0.  1.
         14    1    6    6    0    0 -0.34286859024E+02  0.17028719175E+02 -0.41194368213E+02  0.56236482384E+02  0.00000000000E+00 0. -1.
         -5    1    3    3    0  503  0.22256880443E+01  0.76408332198E+01  0.18850595996E+02  0.20994546649E+02  0.47000000000E+01 0.  1.
         13    1    4    4    0    0  0.44247547772E+02 -0.18070749455E+02 -0.45560253339E+02  0.66031311921E+02  0.00000000000E+00 0. -1.
        -14    1    4    4    0    0  0.17263991349E+02 -0.82672670548E+02 -0.20921208090E+03  0.22561584751E+03  0.00000000000E+00 0.  1.
</event>
<event>
12    1  0.1623092E-001  0.2110207E+03  0.7818608E-02  0.1141012E+00
         21   -1    0    0  501  502  0.00000000000E+00  0.00000000000E+00  0.34920676487E+03  0.34920676487E+03  0.00000000000E+00 0. -1.
         21   -1    0    0  502  503 -0.00000000000E+00 -0.00000000000E+00 -0.13488751151E+03  0.13488751151E+03  0.00000000000E+00 0. -1.
         -6    2    1    2    0  503  0.57908668908E+02 -0.10557847935E+03  0.16631598694E+03  0.26768251187E+03  0.17173436003E+03 0.  0.
        -24    2    3    3    0    0  0.35453171548E+02  0.76097385695E+01  0.39611732775E+02  0.96241909738E+02  0.79866014816E+02 0.  0.
          6    2    1    2  501    0 -0.57908668908E+02  0.10557847935E+03  0.48003266407E+02  0.21641176451E+03  0.17329024495E+03 0.  0.
         24    2    5    5    0    0  0.57093898967E+01  0.11524582557E+03  0.56564965366E+02  0.15132637691E+03  0.79911698765E+02 0.  0.
          5    1    5    5  501    0 -0.63618058804E+02 -0.96673462196E+01 -0.85616989586E+01  0.65085387592E+02  0.47000000000E+01 0. -1.
        -13    1    6    6    0    0 -0.27806701008E+02  0.41117887121E+02  0.48792415892E+02  0.69603111358E+02  0.00000000000E+00 0.  1.
         14    1    6    6    0    0  0.33516090905E+02  0.74127938445E+02  0.77725494740E+01  0.81723265555E+02  0.00000000000E+00 0. -1.
         -5    1    3    3    0  503  0.22455497360E+02 -0.11318821792E+03  0.12670425417E+03  0.17144060214E+03  0.47000000000E+01 0.  1.
         11    1    4    4    0    0  0.35681012717E+02 -0.19787680121E+02  0.52064137153E+02  0.66146514122E+02  0.00000000000E+00 0. -1.
        -12    1    4    4    0    0 -0.22784116957E+00  0.27397418690E+02 -0.12452404378E+02  0.30095395616E+02  0.00000000000E+00 0.  1.
</event>
<event>
12    1  0.1623092E-001  0.2984028E+03  0.7818608E-02  0.1086175E+00
         21   -1    0    0  503  502  0.00000000000E+00  0.00000000000E+00  0.31162720229E+03  0.31162720229E+03  0.00000000000E+00 0.  1.
         21   -1    0    0  501  503 -0.00000000000E+00 -0.00000000000E+00 -0.33321610292E+03  0.33321610292E+03  0.00000000000E+00 0.  1.
          6    2    1    2  501    0  0.18162219820E+03 -0.16223323843E+03  0.11221096331E+03  0.31781637979E+03  0.17061566296E+03 0.  0.
         24    2    3    3    0    0  0.19593627782E+03 -0.13537980347E+03  0.12945461708E+03  0.28252568073E+03  0.79646382442E+02 0.  0.
         -6    2    1    2    0  502 -0.18162219820E+03  0.16223323843E+03 -0.13379986394E+03  0.32702692542E+03  0.17244697685E+03 0.  0.
        -24    2    5    5    0    0 -0.75864916863E+02  0.68879465950E+02 -0.13287894907E+03  0.18587995423E+03  0.79966717052E+02 0.  0.
          5    1    3    3  501    0 -0.14314079621E+02 -0.26853434967E+02 -0.17243653772E+02  0.35290699062E+02  0.47000000000E+01 0. -1.
        -11    1    4    4    0    0  0.17569846215E+03 -0.12454394573E+03  0.83176644597E+02  0.23086684089E+03  0.00000000000E+00 0.  1.
         12    1    4    4    0    0  0.20237815671E+02 -0.10835857741E+02  0.46277972480E+02  0.51658839834E+02  0.00000000000E+00 0. -1.
         -5    1    5    5    0  502 -0.10575728133E+03  0.93353772484E+02 -0.92091486877E+00  0.14114697119E+03  0.47000000000E+01 0.  1.
         11    1    6    6    0    0 -0.32006570147E+02 -0.91524420728E+01 -0.66746417114E+02  0.74587344275E+02  0.00000000000E+00 0. -1.
        -12    1    6    6    0    0 -0.43858346716E+02  0.78031908023E+02 -0.66132531959E+02  0.11129260995E+03  0.00000000000E+00 0.  1.
</event>
<event>
12    1  0.1623092E-001  0.1770050E+03  0.7818608E-02  0.1170835E+00
         21   -1    0    0  501  502  0.00000000000E+00  0.00000000000E+00  0.20291051158E+03  0.20291051158E+03  0.00000000000E+00 0.  1.
         21   -1    0    0  502  503 -0.00000000000E+00 -0.00000000000E+00 -0.17196981289E+03  0.17196981289E+03  0.00000000000E+00 0.  1.
         -6    2    1    2    0  503 -0.39487739137E+02 -0.68279543607E+01 -0.45021266395E+02  0.18264088903E+03  0.17240904099E+03 0.  0.
        -24    2    3    3    0    0 -0.28483483450E+01 -0.51575215258E+02  0.16521596505E+02  0.98057342818E+02  0.81695553197E+02 0.  0.
          6    2    1    2  501    0  0.39487739137E+02  0.68279543607E+01  0.75961965094E+02  0.19223943544E+03  0.17198801672E+03 0.  0.
         24    2    5    5    0    0  0.28405885975E+02  0.65141894436E+02  0.18939012603E+02  0.10979533203E+03  0.81522806431E+02 0.  0.
          5    1    5    5  501    0  0.11081853162E+02 -0.58313940076E+02  0.57022952491E+02  0.82444103412E+02  0.47000000000E+01 0. -1.
        -13    1    6    6    0    0  0.20569044559E+02 -0.15600405680E+01  0.35104352746E+02  0.40716518790E+02  0.00000000000E+00 0.  1.
         14    1    6    6    0    0  0.78368414162E+01  0.66701935004E+02 -0.16165340143E+02  0.69078813240E+02  0.00000000000E+00 0. -1.
         -5    1    3    3    0  503 -0.36639390792E+02  0.44747260897E+02 -0.61542862900E+02  0.84583546209E+02  0.47000000000E+01 0.  1.
         13    1    4    4    0    0 -0.68321190672E+01 -0.72158040441E+02  0.23119662822E+02  0.76078771417E+02  0.00000000000E+00 0. -1.
        -14    1    4    4    0    0  0.39837707222E+01  0.20582825184E+02 -0.65980663164E+01  0.21978571401E+02  0.00000000000E+00 0.  1.
</event>
<event>
12    1  0.1623092E-001  0.1968041E+03  0.7818608E-02  0.1152636E+00
         21   -1    0    0  501  502  0.00000000000E+00  0.00000000000E+00  0.62394668856E+03  0.62394668856E+03  0.00000000000E+00 0.  1.
         21   -1    0    0  502  503 -0.00000000000E+00 -0.00000000000E+00 -0.22819814322E+03  0.22819814322E+03  0.00000000000E+00 0. -1.
         -6    2    1    2    0  503 -0.82465726684E+02 -0.43186824084E+02 -0.16604137999E+03  0.25688038321E+03  0.17248795191E+03 0.  0.
        -24    2    3    3    0    0 -0.35150498787E+02  0.11788747856E+02 -0.16183314921E+03  0.18407349131E+03  0.79489306701E+02 0.  0.
          6    2    1    2  501    0  0.82465726684E+02  0.43186824084E+02  0.56178992533E+03  0.59526444857E+03  0.17339592174E+03 0.  0.
         24    2    5    5    0    0  0.39460711213E+02 -0.43705210782E+02  0.29637434144E+03  0.31265662976E+03  0.80306442401E+02 0.  0.
          5    1    5    5  501    0  0.43005015471E+02  0.86892034867E+02  0.26541558390E+03  0.28260781881E+03  0.47000000000E+01 0. -1.
        -11    1    6    6    0    0  0.23574877799E+02 -0.31463316818E+02  0.42139791586E+02  0.57632258357E+02  0.00000000000E+00 0.  1.
         12    1    6    6    0    0  0.15885833413E+02 -0.12241893965E+02  0.25423454985E+03  0.25502437140E+03  0.00000000000E+00 0. -1.
         -5    1    3    3    0  503 -0.47315227896E+02 -0.54975571941E+02 -0.42082307851E+01  0.72806891895E+02  0.47000000000E+01 0.  1.
         11    1    4    4    0    0 -0.24955280290E+02 -0.20117071225E+02 -0.14106802559E+03  0.14466392229E+03  0.00000000000E+00 0. -1.
        -12    1    4    4    0    0 -0.10195218497E+02  0.31905819081E+02 -0.20765123619E+02  0.39409569020E+02  0.00000000000E+00 0.  1.
</event>
<event>
12    1  0.1623092E-001  0.1771438E+03  0.7818608E-02  0.1170885E+00
         21   -1    0    0  501  502  0.00000000000E+00  0.00000000000E+00  0.85254674609E+02  0.85254674609E+02  0.00000000000E+00 0. -1.
         21   -1    0    0  502  503 -0.00000000000E+00 -0.00000000000E+00 -0.41235766412E+03  0.41235766412E+03  0.00000000000E+00 0. -1.
         -6    2    1    2    0  503 -0.26027465114E+02 -0.29210024613E+02 -0.24776091707E+03  0.30457412842E+03  0.17276942206E+03 0.  0.
        -24    2    3    3    0    0 -0.61063149269E+02 -0.64362471628E+02 -0.13002649252E+03  0.17671999896E+03  0.80323304987E+02 0.  0.
          6    2    1    2  501    0  0.26027465114E+02  0.29210024613E+02 -0.79342072443E+02  0.19303821031E+03  0.17157485743E+03 0.  0.
         24    2    5    5    0    0  0.48028384064E+02 -0.38259281201E+02 -0.19537078379E+02  0.10011418233E+03  0.76620191839E+02 0.  0.
          5    1    5    5  501    0 -0.22000918950E+02  0.67469305813E+02 -0.59804994065E+02  0.92924027983E+02  0.47000000000E+01 0. -1.
        -13    1    6    6    0    0  0.21468780948E+02 -0.43443174966E+02 -0.42628778488E+02  0.64540148450E+02  0.00000000000E+00 0.  1.
         14    1    6    6    0    0  0.26559603116E+02  0.51838937658E+01  0.23091700109E+02  0.35574033876E+02  0.00000000000E+00 0. -1.
         -5    1    3    3    0  503  0.35035684154E+02  0.35152447015E+02 -0.11773442455E+03  0.12785412946E+03  0.47000000000E+01 0.  1.
         11    1    4    4    0    0 -0.55551769290E+02 -0.60528759576E+02 -0.14138716381E+03  0.16352388174E+03  0.00000000000E+00 0. -1.
        -12    1    4    4    0    0 -0.55113799784E+01 -0.38337120521E+01  0.11360671300E+02  0.13196117222E+02  0.00000000000E+00 0.  1.
</event>
<event>
12    1  0.1623092E-001  0.1844772E+03  0.7818608E-02  0.1163992E+00
         21   -1    0    0  501  502  0.00000000000E+00  0.00000000000E+00  0.13677353258E+03  0.13677353258E+03  0.00000000000E+00 0. -1.
         21   -1    0    0  502  503 -0.00000000000E+00 -0.00000000000E+00 -0.27474881235E+03  0.27474881235E+03  0.00000000000E+00 0.  1.
         -6    2    1    2    0  503  0.45679855975E+02  0.38344433968E+02 -0.13495425598E+03  0.22702039767E+03  0.17253598144E+03 0.  0.
        -24    2    3    3    0    0 -0.20806698010E+02  0.68117544875E+02 -0.74258612658E+02  0.13208383405E+03  0.82818349782E+02 0.  0.
          6    2    1    2  501    0 -0.45679855975E+02 -0.38344433968E+02 -0.30210237900E+01  0.18450194726E+03  0.17457060778E+03 0.  0.
         24    2    5    5    0    0 -0.54065205643E+02  0.96105125000E+01  0.53066195534E+02  0.11008516722E+03  0.79292588062E+02 0.  0.
          5    1    5    5  501    0  0.83853496678E+01 -0.47954946468E+02 -0.56087219324E+02  0.74416780039E+02  0.47000000000E+01 0. -1.
        -13    1    6    6    0    0 -0.40196346650E+02  0.40920695887E+02  0.15847846759E+02  0.59509695704E+02  0.00000000000E+00 0.  1.
         14    1    6    6    0    0 -0.13868858993E+02 -0.31310183387E+02  0.37218348775E+02  0.50575471516E+02  0.00000000000E+00 0. -1.
         -5    1    3    3    0  503  0.66486553985E+02 -0.29773110906E+02 -0.60695643320E+02  0.94936563619E+02  0.47000000000E+01 0.  1.
         11    1    4    4    0    0  0.26608411438E+02  0.32445350773E+01 -0.30436149562E+02  0.40557289940E+02  0.00000000000E+00 0. -1.
        -12    1    4    4    0    0 -0.47415109448E+02  0.64873009797E+02 -0.43822463097E+02  0.91526544106E+02  0.00000000000E+00 0.  1.
</event>
<event>
12    1  0.1623092E-001  0.1747839E+03  0.7818608E-02  0.1173038E+00
         21   -1    0    0  501  502  0.00000000000E+00  0.00000000000E+00  0.29785948313E+03  0.29785948313E+03  0.00000000000E+00 0.  1.
         21   -1    0    0  502  503 -0.00000000000E+00 -0.00000000000E+00 -0.39473179536E+03  0.39473179536E+03  0.00000000000E+00 0.  1.
         -6    2    1    2    0  503 -0.19527118872E+00 -0.22990430871E+02 -0.34648376258E+03  0.38807270561E+03  0.17326519867E+03 0.  0.
        -24    2    3    3    0    0  0.35150951246E+02 -0.62021129846E+02 -0.14664772834E+03  0.18136208305E+03  0.79400497598E+02 0.  0.
          6    2    1    2  501    0  0.19527118872E+00  0.22990430871E+02  0.24961145035E+03  0.30451857287E+03  0.17290774140E+03 0.  0.
         24    2    5    5    0    0  0.42482718280E+02  0.16857991532E+02  0.24455926129E+03  0.26123520877E+03  0.79659455101E+02 0.  0.
          5    1    5    5  501    0 -0.42287447091E+02  0.61324393385E+01  0.50521890555E+01  0.43283364102E+02  0.47000000000E+01 0. -1.
        -11    1    6    6    0    0  0.23274730988E+00  0.39498520266E+02  0.15139544940E+03  0.15646331639E+03  0.00000000000E+00 0.  1.
         12    1    6    6    0    0  0.42249970970E+02 -0.22640528733E+02  0.93163811891E+02  0.10477189239E+03  0.00000000000E+00 0. -1.
         -5    1    3    3    0  503 -0.35346222434E+02  0.39030698975E+02 -0.19983603423E+03  0.20671062256E+03  0.47000000000E+01 0.  1.
         13    1    4    4    0    0 -0.21763759606E+02 -0.13809297291E+02 -0.14387868453E+02  0.29518954630E+02  0.00000000000E+00 0. -1.
        -14    1    4    4    0    0  0.56914710852E+02 -0.48211832555E+02 -0.13225985989E+03  0.15184312842E+03  0.00000000000E+00 0.  1.
</event>
<event>
12    1  0.1623092E-001  0.4300879E+03  0.7818608E-02  0.1033879E+00
         21   -1    0    0  503  502  0.00000000000E+00  0.00000000000E+00  0.10513673942E+04  0.10513673942E+04  0.00000000000E+00 0. -1.
         21   -1    0    0  501  503 -0.00000000000E+00 -0.00000000000E+00 -0.23870141415E+03  0.23870141415E+03  0.00000000000E+00 0.  1.
          6    2    1    2  501    0 -0.21772588562E+03 -0.32797691207E+03  0.74733532895E+02  0.43594944829E+03  0.17173643878E+03 0.  0.
         24    2    3    3    0    0 -0.18168397383E+03 -0.33492572751E+03  0.83234537948E+02  0.39798021695E+03  0.79220928309E+02 0.  0.
         -6    2    1    2    0  502  0.21772588562E+03  0.32797691207E+03  0.73793244720E+03  0.85411936010E+03  0.17321134072E+03 0.  0.
        -24    2    5    5    0    0  0.69126366646E+02  0.10682653174E+03  0.17231721037E+03  0.22887381322E+03  0.80620338254E+02 0.  0.
          5    1    3    3  501    0 -0.36041911787E+02  0.69488154428E+01 -0.85010050529E+01  0.37969231336E+02  0.47000000000E+01 0. -1.
        -11    1    4    4    0    0 -0.56137299545E+02 -0.11414636931E+03 -0.96017210994E+01  0.12756560302E+03  0.00000000000E+00 0.  1.
         12    1    4    4    0    0 -0.12554667429E+03 -0.22077935820E+03  0.92836259047E+02  0.27041461393E+03  0.00000000000E+00 0. -1.
         -5    1    5    5    0  502  0.14859951897E+03  0.22115038033E+03  0.56561523683E+03  0.62524554688E+03  0.47000000000E+01 0.  1.
         11    1    6    6    0    0  0.10184101843E+02  0.71575548686E+01  0.79509065786E+02  0.80477562489E+02  0.00000000000E+00 0. -1.
        -12    1    6    6    0    0  0.58942264803E+02  0.99668976870E+02  0.92808144582E+02  0.14839625073E+03  0.00000000000E+00 0.  1.
</event>
<event>
12    1  0.1623092E-001  0.2284492E+03  0.7818608E-02  0.1127937E+00
         21   -1    0    0  503  502  0.00000000000E+00  0.00000000000E+00  0.16172262266E+03  0.16172262266E+03  0.00000000000E+00 0. -1.
         21   -1    0    0  501  503 -0.00000000000E+00 -0.00000000000E+00 -0.44704002077E+03  0.44704002077E+03  0.00000000000E+00 0. -1.
          6    2    1    2  501    0 -0.12202001722E+03 -0.83892604909E+02 -0.30395204522E+03  0.37955467291E+03  0.17247623074E+03 0.  0.
         24    2    3    3    0    0 -0.69627952423E+02 -0.10465724428E+03 -0.12578446590E+03  0.19262721365E+03  0.74042697406E+02 0.  0.
         -6    2    1    2    0  502  0.12202001722E+03  0.83892604909E+02  0.18634647114E+02  0.22920797052E+03  0.17396031133E+03 0.  0.
        -24    2    5    5    0    0 -0.10717089437E+00  0.52536329870E+02 -0.20240309592E+02  0.97179116400E+02  0.79208794273E+02 0.  0.
          5    1    3    3  501    0 -0.52392064802E+02  0.20764639371E+02 -0.17816757933E+03  0.18692745926E+03  0.47000000000E+01 0. -1.
        -11    1    4    4    0    0  0.13005604493E+02 -0.16304639861E+02 -0.45224935521E+01  0.21341039740E+02  0.00000000000E+00 0.  1.
         12    1    4    4    0    0 -0.82633556916E+02 -0.88352604419E+02 -0.12126197235E+03  0.17128617391E+03  0.00000000000E+00 0. -1.
         -5    1    5    5    0  502  0.12212718812E+03  0.31356275039E+02  0.38874956706E+02  0.13202885412E+03  0.47000000000E+01 0.  1.
         11    1    6    6    0    0  0.29029340609E+02  0.57565613305E+02 -0.72271875492E+01  0.64874761589E+02  0.00000000000E+00 0. -1.
        -12    1    6    6    0    0 -0.29136511504E+02 -0.50292834351E+01 -0.13013122042E+02  0.32304354811E+02  0.00000000000E+00 0.  1.
</event>
<event>
12    1  0.1623092E-001  0.2115061E+03  0.7818608E-02  0.1140478E+00
         21   -1    0    0  503  502  0.00000000000E+00  0.00000000000E+00  0.64463239386E+02  0.64463239386E+02  0.00000000000E+00 0. -1.
         21   -1    0    0  501  503 -0.00000000000E+00 -0.00000000000E+00 -0.72624933993E+03  0.72624933993E+03  0.00000000000E+00 0.  1.
          6    2    1    2  501    0 -0.12200703622E+03 -0.87875762647E+01 -0.24504424473E+03  0.32337053737E+03  0.17192697340E+03 0.  0.
         24    2    3    3    0    0 -0.85488450148E+02  0.42506862744E+01 -0.25637174140E+03  0.28270106972E+03  0.82867856197E+02 0.  0.
         -6    2    1    2    0  502  0.12200703622E+03  0.87875762647E+01 -0.41674185581E+03  0.46734204194E+03  0.17254527347E+03 0.  0.
        -24    2    5    5    0    0  0.72878976318E+01  0.29832996550E+02 -0.24891333363E+03  0.26291138541E+03  0.78876027935E+02 0.  0.
          5    1    3    3  501    0 -0.36518586067E+02 -0.13038262539E+02  0.11327496669E+02  0.40669467653E+02  0.47000000000E+01 0. -1.
        -13    1    4    4    0    0 -0.90644871729E+02  0.27845267804E+02 -0.19824341257E+03  0.21975509627E+03  0.00000000000E+00 0.  1.
         14    1    4    4    0    0  0.51564215805E+01 -0.23594581529E+02 -0.58128328829E+02  0.62945973449E+02  0.00000000000E+00 0. -1.
         -5    1    5    5    0  502  0.11471913858E+03 -0.21045420286E+02 -0.16782852218E+03  0.20443065653E+03  0.47000000000E+01 0.  1.
         13    1    6    6    0    0  0.30643532806E+00  0.34901989082E+02 -0.25149527656E+03  0.25390572439E+03  0.00000000000E+00 0. -1.
        -14    1    6    6    0    0  0.69814623038E+01 -0.50689925319E+01  0.25819429267E+01  0.90056610232E+01  0.00000000000E+00 0.  1.
</event>
<event>
12    1  0.1623092E-001  0.1989042E+03  0.7818608E-02  0.1150894E+00
         21   -1    0    0  501  502  0.00000000000E+00  0.00000000000E+00  0.69839118819E+03  0.69839118819E+03  0.00000000000E+00 0. -1.
         21   -1    0    0  502  503 -0.00000000000E+00 -0.00000000000E+00 -0.54542183508E+03  0.54542183508E+03  0.00000000000E+00 0. -1.
         -6    2    1    2    0  503  0.97745706829E+02 -0.16606261263E+02 -0.51240194181E+03  0.54965320873E+03  0.17243233102E+03 0.  0.
        -24    2    3    3    0    0  0.45987069008E+02  0.27109152158E+02 -0.43986675339E+03  0.45028803617E+03  0.80167562825E+02 0.  0.
          6    2    1    2  501    0 -0.97745706829E+02  0.16606261263E+02  0.66537129493E+03  0.69415981454E+03  0.17119841381E+03 0.  0.
         24    2    5    5    0    0 -0.78996371073E+02 -0.50368184093E+02  0.34512285420E+03  0.36641255260E+03  0.79818504110E+02 0.  0.
          5    1    5    5  501    0 -0.18749335756E+02  0.66974445356E+02  0.32024844073E+03  0.32774726194E+03  0.47000000000E+01 0. -1.
        -13    1    6    6    0    0 -0.54526081123E+02  0.24987745388E+01  0.94711868858E+02  0.10931457130E+03  0.00000000000E+00 0.  1.
         14    1    6    6    0    0 -0.24470289950E+02 -0.52866958631E+02  0.25041098534E+03  0.25709798129E+03  0.00000000000E+00 0. -1.
         -5    1    3    3    0  503  0.51758637821E+02 -0.43715413422E+02 -0.72535188417E+02  0.99365172562E+02  0.47000000000E+01 0.  1.
         13    1    4    4    0    0  0.15246586716E+02 -0.27041820120E+02 -0.20362637373E+03  0.20597917011E+03  0.00000000000E+00 0. -1.
        -14    1    4    4    0    0  0.30740482292E+02  0.54150972278E+02 -0.23624037966E+03  0.24430886606E+03  0.00000000000E+00 0.  1.
</event>
<event>
12    1  0.1623092E-001  0.1977373E+03  0.7818608E-02  0.1152702E+00
         21   -1    0    0  503  502  0.00000000000E+00  0.00000000000E+00  0.42488190570E+03  0.42488190570E+03  0.00000000000E+00 0.  1.
         21   -1    0    0  501  503 -0.00000000000E+00 -0.00000000000E+00 -0.16790007656E+03  0.16790007656E+03  0.00000000000E+00 0.  1.
          6    2    1    2  501    0 -0.68233367477E+02 -0.67135006900E+02 -0.74479163051E+02  0.20682028417E+03  0.16752487167E+03 0.  0.
         24    2    3    3    0    0 -0.11404599368E+03 -0.52267021369E+02 -0.42260352993E+02  0.14868255602E+03  0.67692206584E+02 0.  0.
         -6    2    1    2    0  502  0.68233367477E+02  0.67135006900E+02  0.33146099219E+03  0.38596169808E+03  0.17302352863E+03 0.  0.
        -24    2    5    5    0    0  0.70541562692E+02  0.42115626629E+02  0.94965466993E+02  0.14808878960E+03  0.78498481583E+02 0.  0.
          5    1    3    3  501    0  0.45812626202E+02 -0.14867985531E+02 -0.32218810057E+02  0.58137728153E+02  0.47000000000E+01 0. -1.
        -13    1    4    4    0    0 -0.13613377481E+02 -0.42089798268E+01 -0.34203377539E+02  0.37052808162E+02  0.00000000000E+00 0.  1.
         14    1    4    4    0    0 -0.10043261620E+03 -0.48058041542E+02 -0.80569754545E+01  0.11162974786E+03  0.00000000000E+00 0. -1.
         -5    1    5    5    0  502 -0.23081952145E+01  0.25019380271E+02  0.23649552519E+03  0.23787290848E+03  0.47000000000E+01 0.  1.
         11    1    6    6    0    0  0.24516814000E+02 -0.23110748128E+02  0.31175690383E+02  0.45903208152E+02  0.00000000000E+00 0. -1.
        -12    1    6    6    0    0  0.46024748691E+02  0.65226374757E+02  0.63789776609E+02  0.10218558145E+03  0.00000000000E+00 0.  1.
</event>
<event>
12    1  0.1623092E-001  0.1840843E+03  0.7818608E-02  0.1164130E+00
         21   -1    0    0  503  502  0.00000000000E+00  0.00000000000E+00  0.47953847654E+03  0.47953847654E+03  0.00000000000E+00 0. -1.
         21   -1    0    0  501  503 -0.00000000000E+00 -0.00000000000E+00 -0.90215408709E+02  0.90215408709E+02  0.00000000000E+00 0. -1.
          6    2    1    2  501    0  0.36808373470E+02  0.50893149166E+02  0.60440864702E+02  0.19285797224E+03  0.17203525901E+03 0.  0.
         24    2    3    3    0    0  0.75954720513E+02  0.90773357831E+01  0.79299512006E+02  0.13237047507E+03  0.73362200580E+02 0.  0.
         -6    2    1    2    0  502 -0.36808373470E+02 -0.50893149166E+02  0.32888220313E+03  0.37689591301E+03  0.17303773206E+03 0.  0.
        -24    2    5    5    0    0 -0.11221503064E+02  0.24113612883E+02  0.25413590529E+03  0.26785554740E+03  0.80337708831E+02 0.  0.
          5    1    3    3  501    0 -0.39146347043E+02  0.41815813383E+02 -0.18858647304E+02  0.60487497169E+02  0.47000000000E+01 0. -1.
        -11    1    4    4    0    0  0.20322144920E+02  0.63502227072E+01  0.73322659338E+02  0.76351341017E+02  0.00000000000E+00 0.  1.
         12    1    4    4    0    0  0.55632575593E+02  0.27271130759E+01  0.59768526678E+01  0.56019134058E+02  0.00000000000E+00 0. -1.
         -5    1    5    5    0  502 -0.25586870406E+02 -0.75006762049E+02  0.74746297843E+02  0.10904036561E+03  0.47000000000E+01 0.  1.
         11    1    6    6    0    0 -0.12749511238E+02  0.10394252802E+02  0.25350375020E+03  0.25403689081E+03  0.00000000000E+00 0. -1.
        -12    1    6    6    0    0  0.15280081741E+01  0.13719360081E+02  0.63215509300E+00  0.13818656595E+02  0.00000000000E+00 0.  1.
</event>
<event>
12    1  0.1623092E-001  0.1759722E+03  0.7818608E-02  0.1171919E+00
         21   -1    0    0  501  502  0.00000000000E+00  0.00000000000E+00  0.63834472530E+03  0.63834472530E+03  0.00000000000E+00 0.  1.
         21   -1    0    0  502  503 -0.00000000000E+00 -0.00000000000E+00 -0.57371470359E+02  0.57371470359E+02  0.00000000000E+00 0.  1.
         -6    2    1    2    0  503  0.42720771008E+01 -0.34805114574E+02  0.15286563008E+03  0.23309676407E+03  0.17244290045E+03 0.  0.
        -24    2    3    3    0    0 -0.52891405152E+02 -0.25784342295E+02  0.14299759513E+03  0.17420273933E+03  0.80224367444E+02 0.  0.
          6    2    1    2  501    0 -0.42720771008E+01  0.34805114574E+02  0.42810762486E+03  0.46261943159E+03  0.17178752393E+03 0.  0.
         24    2    5    5    0    0  0.61668529962E+02  0.26916740115E+02  0.31217108420E+03  0.32892664356E+03  0.78831672219E+02 0.  0.
          5    1    5    5  501    0 -0.65940607063E+02  0.78883744594E+01  0.11593654066E+03  0.13369278803E+03  0.47000000000E+01 0. -1.
        -11    1    6    6    0    0  0.44022723398E+02 -0.21659042227E+02  0.19086830100E+03  0.19707314026E+03  0.00000000000E+00 0.  1.
         12    1    6    6    0    0  0.17645806564E+02  0.48575782341E+02  0.12130278320E+03  0.13185350329E+03  0.00000000000E+00 0. -1.
         -5    1    3    3    0  503  0.57163482253E+02 -0.90207722798E+01  0.98680349488E+01  0.58894024735E+02  0.47000000000E+01 0.  1.
         11    1    4    4    0    0  0.38097345271E+01 -0.39138394160E+02  0.74850539404E+02  0.84551352583E+02  0.00000000000E+00 0. -1.
        -12    1    4    4    0    0 -0.56701139679E+02  0.13354051865E+02  0.68147055726E+02  0.89651386750E+02  0.00000000000E+00 0.  1.
</event>
<event>
12    1  0.1623092E-001  0.1927297E+03  0.7818608E-02  0.1156305E+00
         21   -1    0    0  503  502  0.00000000000E+00  0.00000000000E+00  0.22940542474E+03  0.22940542474E+03  0.00000000000E+00 0.  1.
         21   -1    0    0  501  503 -0.00000000000E+00 -0.00000000000E+00 -0.22655805855E+03  0.22655805855E+03  0.00000000000E+00 0.  1.
          6    2    1    2  501    0  0.65557338104E+02 -0.49392128247E+02  0.12419766385E+03  0.22821223017E+03  0.17296940591E+03 0.  0.
         24    2    3    3    0    0 -0.30244994027E+02 -0.23596620021E+02  0.82877423654E+02  0.12063459618E+03  0.78819276214E+02 0.  0.
         -6    2    1    2    0  502 -0.65557338104E+02  0.49392128247E+02 -0.12135029766E+03  0.22775125312E+03  0.17437715344E+03 0.  0.
        -24    2    5    5    0    0 -0.67380165530E+02 -0.16987516773E+02 -0.12109309803E+03  0.16117996708E+03  0.80540554789E+02 0.  0.
          5    1    3    3  501    0  0.95802332131E+02 -0.25795508226E+02  0.41320240196E+02  0.10757763400E+03  0.47000000000E+01 0. -1.
        -11    1    4    4    0    0  0.28932924016E+01  0.24221964733E+02  0.45076578077E+02  0.51254000894E+02  0.00000000000E+00 0.  1.
         12    1    4    4    0    0 -0.33138286429E+02 -0.47818584755E+02  0.37800845577E+02  0.69380595282E+02  0.00000000000E+00 0. -1.
         -5    1    5    5    0  502  0.18228274258E+01  0.66379645020E+02 -0.25719963628E+00  0.66571286036E+02  0.47000000000E+01 0.  1.
         11    1    6    6    0    0  0.81300578636E+01  0.94147858871E+01  0.36750102678E+01  0.12970803161E+02  0.00000000000E+00 0. -1.
        -12    1    6    6    0    0 -0.75510223393E+02 -0.26402302660E+02 -0.12476810829E+03  0.14820916392E+03  0.00000000000E+00 0.  1.
</event>
<event>
12    1  0.1623092E-001  0.2186360E+03  0.7818608E-02  0.1135267E+00
         21   -1    0    0  501  502  0.00000000000E+00  0.00000000000E+00  0.16600219111E+03  0.16600219111E+03  0.00000000000E+00 0. -1.
         21   -1    0    0  502  503 -0.00000000000E+00 -0.00000000000E+00 -0.39041016013E+03  0.39041016013E+03  0.00000000000E+00 0.  1.
         -6    2    1    2    0  503  0.31162677729E+02  0.13058305001E+03 -0.25682641421E+03  0.33728551979E+03  0.17256497151E+03 0.  0.
        -24    2    3    3    0    0  0.36481449104E+01  0.15487736667E+03 -0.23959046665E+03  0.29646357439E+03  0.80540372233E+02 0.  0.
          6    2    1    2  501    0 -0.31162677729E+02 -0.13058305001E+03  0.32418445191E+02  0.21912683145E+03  0.17012515170E+03 0.  0.
         24    2    5    5    0    0 -0.46571124923E+02 -0.12373537632E+03 -0.28109109498E+02  0.15611900847E+03  0.78126242334E+02 0.  0.
          5    1    5    5  501    0  0.15408447194E+02 -0.68476736935E+01  0.60527554689E+02  0.63007822979E+02  0.47000000000E+01 0. -1.
        -11    1    6    6    0    0 -0.18914670901E+02  0.49544736646E+01 -0.13328855089E+02  0.23663684467E+02  0.00000000000E+00 0.  1.
         12    1    6    6    0    0 -0.27656454022E+02 -0.12868984998E+03 -0.14780254409E+02  0.13245532401E+03  0.00000000000E+00 0. -1.
         -5    1    3    3    0  503  0.27514532819E+02 -0.24294316662E+02 -0.17235947555E+02  0.40821945402E+02  0.47000000000E+01 0.  1.
         11    1    4    4    0    0 -0.13405677857E+02  0.20669156058E+02 -0.42373644960E+01  0.24997629264E+02  0.00000000000E+00 0. -1.
        -12    1    4    4    0    0  0.17053822767E+02  0.13420821061E+03 -0.23535310216E+03  0.27146594512E+03  0.00000000000E+00 0.  1.
</event>
<event>
12    1  0.1623092E-001  0.2384125E+03  0.7818608E-02  0.1121398E+00
         21   -1    0    0  503  502  0.00000000000E+00  0.00000000000E+00  0.16318300001E+03  0.16318300001E+03  0.00000000000E+00 0. -1.
         21   -1    0    0  501  503 -0.00000000000E+00 -0.00000000000E+00 -0.34418842472E+03  0.34418842472E+03  0.00000000000E+00 0. -1.
          6    2    1    2  501    0  0.11371022115E+03 -0.11586353180E+03 -0.99890871729E+02  0.25553793270E+03  0.17019716919E+03 0.  0.
         24    2    3    3    0    0  0.15217886770E+02  0.37148151008E+01 -0.39204872565E+02  0.89090939716E+02  0.78452466996E+02 0.  0.
         -6    2    1    2    0  502 -0.11371022115E+03  0.11586353180E+03 -0.81114552984E+02  0.25183349203E+03  0.17460287685E+03 0.  0.
        -24    2    5    5    0    0 -0.10327201915E+03  0.11384762596E+03 -0.91495672989E+01  0.17893583018E+03  0.91147818761E+02 0.  0.
          5    1    3    3  501    0  0.98492334385E+02 -0.11957834690E+03 -0.60685999164E+02  0.16644699299E+03  0.47000000000E+01 0. -1.
        -11    1    4    4    0    0 -0.14737854754E+02  0.13706085446E+02  0.15853174495E+02  0.25619997708E+02  0.00000000000E+00 0.  1.
         12    1    4    4    0    0  0.29955741524E+02 -0.99912703451E+01 -0.55058047060E+02  0.63470942008E+02  0.00000000000E+00 0. -1.
         -5    1    5    5    0  502 -0.10438202001E+02  0.20159058382E+01 -0.71964985685E+02  0.72897661842E+02  0.47000000000E+01 0.  1.
         13    1    6    6    0    0 -0.28576624486E+02  0.66597469623E+02  0.34610999319E+02  0.80310445778E+02  0.00000000000E+00 0. -1.
        -14    1    6    6    0    0 -0.74695394668E+02  0.47250156339E+02 -0.43760566618E+02  0.98625384407E+02  0.00000000000E+00 0.  1.
</event>
<event>
12    1  0.1623092E-001  0.2226255E+03  0.7818608E-02  0.1132192E+00
         21   -1    0    0  503  502  0.00000000000E+00  0.00000000000E+00  0.57058886751E+02  0.57058886751E+02  0.00000000000E+00 0.  1.
         21   -1    0    0  501  503 -0.00000000000E+00 -0.00000000000E+00 -0.12336368661E+04  0.12336368661E+04  0.00000000000E+00 0.  1.
          6    2    1    2  501    0 -0.13747074289E+03 -0.18724033103E+02 -0.94061242208E+03  0.96628571338E+03  0.17235880235E+03 0.  0.
         24    2    3    3    0    0 -0.16472257812E+03 -0.34356276962E+02 -0.76583938451E+03  0.78864919058E+03  0.84520420199E+02 0.  0.
         -6    2    1    2    0  502  0.13747074289E+03  0.18724033103E+02 -0.23596555730E+03  0.32441003950E+03  0.17410725123E+03 0.  0.
        -24    2    5    5    0    0  0.45880709083E+02  0.24131309712E+02 -0.38115272543E+02  0.10627063886E+03  0.84577273000E+02 0.  0.
          5    1    3    3  501    0  0.27251835222E+02  0.15632243859E+02 -0.17477303757E+03  0.17763652280E+03  0.47000000000E+01 0. -1.
        -11    1    4    4    0    0 -0.14566798410E+03 -0.24428406242E+02 -0.74199294474E+03  0.75655101524E+03  0.00000000000E+00 0.  1.
         12    1    4    4    0    0 -0.19054594022E+02 -0.99278707201E+01 -0.23846439771E+02  0.32098175340E+02  0.00000000000E+00 0. -1.
         -5    1    5    5    0  502  0.91590033812E+02 -0.54072766095E+01 -0.19785028476E+03  0.21813940064E+03  0.47000000000E+01 0.  1.
         13    1    6    6    0    0  0.35378213412E+02  0.25974651424E+00 -0.61689981977E+02  0.71114972606E+02  0.00000000000E+00 0. -1.
        -14    1    6    6    0    0  0.10502495671E+02  0.23871563198E+02  0.23574709433E+02  0.35155666253E+02  0.00000000000E+00 0.  1.
</event>
<event>
12    1  0.1623092E-001  0.1739723E+03  0.7818608E-02  0.1174176E+00
         21   -1    0    0  503  502  0.00000000000E+00  0.00000000000E+00  0.12296013149E+02  0.12296013149E+02  0.00000000000E+00 0.  1.
         21   -1    0    0  501  503 -0.00000000000E+00 -0.00000000000E+00 -0.25264061120E+04  0.25264061120E+04  0.00000000000E+00 0.  1.
          6    2    1    2  501    0 -0.24067977841E+02 -0.18128584911E+02 -0.14878232319E+04  0.14977741313E+04  0.16970994611E+03 0.  0.
         24    2    3    3    0    0 -0.37475298364E+02  0.18522698293E+02 -0.13820655576E+04  0.13849475011E+04  0.78910626482E+02 0.  0.
         -6    2    1    2    0  502  0.24067977841E+02  0.18128584911E+02 -0.10262868670E+04  0.10409279939E+04  0.17134305352E+03 0.  0.
        -24    2    5    5    0    0 -0.11947598756E+02 -0.51848189133E+02 -0.54775343866E+03  0.55594324910E+03  0.78791413394E+02 0.  0.
          5    1    3    3  501    0  0.13407320522E+02 -0.36651283205E+02 -0.10575767432E+03  0.11282663019E+03  0.47000000000E+01 0. -1.
        -13    1    4    4    0    0  0.11820704890E+02  0.31985027319E+02 -0.76909761835E+03  0.76985317925E+03  0.00000000000E+00 0.  1.
         14    1    4    4    0    0 -0.49296003254E+02 -0.13462329025E+02 -0.61296793923E+03  0.61509432184E+03  0.00000000000E+00 0. -1.
         -5    1    5    5    0  502  0.36015576598E+02  0.69976774044E+02 -0.47853342830E+03  0.48498474477E+03  0.47000000000E+01 0.  1.
         13    1    6    6    0    0 -0.23568754282E+02  0.11662762828E+02 -0.24342138993E+03  0.24483765906E+03  0.00000000000E+00 0. -1.
        -14    1    6    6    0    0  0.11621155525E+02 -0.63510951961E+02 -0.30433204873E+03  0.31110559004E+03  0.00000000000E+00 0.  1.
</event>
<event>
12    1  0.1623092E-001  0.2617083E+03  0.7818608E-02  0.1106195E+00
         21   -1    0    0  503  502  0.00000000000E+00  0.00000000000E+00  0.31440117792E+03  0.31440117792E+03  0.00000000000E+00 0.  1.
         21   -1    0    0  501  503 -0.00000000000E+00 -0.00000000000E+00 -0.21754725735E+03  0.21754725735E+03  0.00000000000E+00 0. -1.
          6    2    1    2  501    0 -0.13873893156E+03  0.13977199253E+03  0.42301025385E+02  0.26461480230E+03  0.17160103679E+03 0.  0.
         24    2    3    3    0    0 -0.10500664989E+03  0.15909792455E+02  0.28905611791E+02  0.13545893314E+03  0.78956128067E+02 0.  0.
         -6    2    1    2    0  502  0.13873893156E+03 -0.13977199253E+03  0.54552895185E+02  0.26733363297E+03  0.17235588740E+03 0.  0.
        -24    2    5    5    0    0  0.44479614962E+02 -0.12617876721E+03  0.12924499772E+01  0.15811660333E+03  0.84259553642E+02 0.  0.
          5    1    3    3  501    0 -0.33732281671E+02  0.12386220007E+03  0.13395413595E+02  0.12915586916E+03  0.47000000000E+01 0. -1.
        -11    1    4    4    0    0 -0.23219044697E+02  0.34264892428E+02  0.30836246130E+02  0.51614735930E+02  0.00000000000E+00 0.  1.
         12    1    4    4    0    0 -0.81787605188E+02 -0.18355099973E+02 -0.19306343391E+01  0.83844197214E+02  0.00000000000E+00 0. -1.
         -5    1    5    5    0  502  0.94259316594E+02 -0.13593225312E+02  0.53260445208E+02  0.10921702964E+03  0.47000000000E+01 0.  1.
         13    1    6    6    0    0  0.42002300823E+02 -0.16826149140E+02 -0.14695058478E+02  0.47573704007E+02  0.00000000000E+00 0. -1.
        -14    1    6    6    0    0  0.24773141398E+01 -0.10935261807E+03  0.15987508455E+02  0.11054289933E+03  0.00000000000E+00 0.  1.
</event>
<event>
12    1  0.1623092E-001  0.2310207E+03  0.7818608E-02  0.1128865E+00
         21   -1    0    0  503  502  0.00000000000E+00  0.00000000000E+00  0.14269932881E+04  0.14269932881E+04  0.00000000000E+00 0. -1.
         21   -1    0    0  501  503 -0.00000000000E+00 -0.00000000000E+00 -0.34923161422E+02  0.34923161422E+02  0.00000000000E+00 0.  1.
          6    2    1    2  501    0  0.62357061446E+02  0.11223041565E+03  0.75930262629E+03  0.79366936512E+03  0.19205862004E+03 0.  0.
         24    2    3    3    0    0 -0.65709138854E+01 -0.35894445490E+01  0.15622510384E+03  0.17569695968E+03  0.80044222465E+02 0.  0.
         -6    2    1    2    0  502 -0.62357061446E+02 -0.11223041565E+03  0.63276750037E+03  0.66824708438E+03  0.17226545490E+03 0.  0.
        -24    2    5    5    0    0 -0.70023290394E+02 -0.85009325545E+02  0.62356807987E+03  0.63813930880E+03  0.79087170701E+02 0.  0.
          5    1    3    3  501    0  0.68927975331E+02  0.11581986020E+03  0.60307752245E+03  0.61797240544E+03  0.47000000000E+01 0. -1.
        -13    1    4    4    0    0  0.20846222582E+02  0.26460077006E+02  0.38572204014E+02  0.51210502767E+02  0.00000000000E+00 0.  1.
         14    1    4    4    0    0 -0.27417136468E+02 -0.30049521555E+02  0.11765289982E+03  0.12448645691E+03  0.00000000000E+00 0. -1.
         -5    1    5    5    0  502  0.76662289482E+01 -0.27221090110E+02  0.91994204929E+01  0.30107775581E+02  0.47000000000E+01 0.  1.
         11    1    6    6    0    0  0.16146137094E+02 -0.17110957680E+02  0.71324263936E+02  0.75104149298E+02  0.00000000000E+00 0. -1.
        -12    1    6    6    0    0 -0.86169427488E+02 -0.67898367865E+02  0.55224381594E+03  0.56303515950E+03  0.00000000000E+00 0.  1.
</event>
<event>
12    1  0.1623092E-001  0.3105073E+03  0.7818608E-02  0.1080194E+00
         21   -1    0    0  501  502  0.00000000000E+00  0.00000000000E+00  0.18974480216E+03  0.18974480216E+03  0.00000000000E+00 0.  1.
         21   -1    0    0  502  503 -0.00000000000E+00 -0.00000000000E+00 -0.58710870559E+03  0.58710870559E+03  0.00000000000E+00 0. -1.
         -6    2    1    2    0  503  0.18676806625E+03 -0.17828630892E+03 -0.34248050538E+03  0.46228528720E+03  0.17247165471E+03 0.  0.
        -24    2    3    3    0    0  0.20493658253E+03 -0.16534078179E+03 -0.26779739435E+03  0.38419982934E+03  0.80978314741E+02 0.  0.
          6    2    1    2  501    0 -0.18676806625E+03  0.17828630892E+03 -0.54883398050E+02  0.31456822055E+03  0.17109254654E+03 0.  0.
         24    2    5    5    0    0 -0.14632350544E+03  0.19170954893E+03 -0.12526799313E+02  0.25430117045E+03  0.79680896056E+02 0.  0.
          5    1    5    5  501    0 -0.40444560813E+02 -0.13423240011E+02 -0.42356598737E+02  0.60267050105E+02  0.47000000000E+01 0. -1.
        -11    1    6    6    0    0 -0.10267256322E+03  0.99818473579E+02 -0.40461607569E+02  0.14880364442E+03  0.00000000000E+00 0.  1.
         12    1    6    6    0    0 -0.43650942215E+02  0.91891075351E+02  0.27934808257E+02  0.10549752603E+03  0.00000000000E+00 0. -1.
         -5    1    3    3    0  503 -0.18168516283E+02 -0.12945527130E+02 -0.74683111031E+02  0.78085457864E+02  0.47000000000E+01 0.  1.
         13    1    4    4    0    0 -0.35376569548E+01 -0.22269949537E+02 -0.19246440472E+02  0.29646098224E+02  0.00000000000E+00 0. -1.
        -14    1    4    4    0    0  0.20847423949E+03 -0.14307083225E+03 -0.24855095388E+03  0.35455373111E+03  0.00000000000E+00 0.  1.
</event>
<event>
12    1  0.1623092E-001  0.1802821E+03  0.7818608E-02  0.1168374E+00
         21   -1    0    0  503  502  0.00000000000E+00  0.00000000000E+00  0.91063164237E+02  0.91063164237E+02  0.00000000000E+00 0. -1.
         21   -1    0    0  501  503 -0.00000000000E+00 -0.00000000000E+00 -0.35696900550E+03  0.35696900550E+03  0.00000000000E+00 0. -1.
          6    2    1    2  501    0 -0.19066821977E+02 -0.31658500965E+02 -0.10062539401E+03  0.20345236848E+03  0.17292076781E+03 0.  0.
         24    2    3    3    0    0  0.17360284918E+02  0.42402265062E+02 -0.72273635014E+02  0.11605761224E+03  0.78399996589E+02 0.  0.
         -6    2    1    2    0  502  0.19066821977E+02  0.31658500965E+02 -0.16528044725E+03  0.24457980125E+03  0.17645353086E+03 0.  0.
        -24    2    5    5    0    0  0.40153609777E+02 -0.34763994098E+02 -0.69219945219E+02  0.12580981127E+03  0.90641382004E+02 0.  0.
          5    1    3    3  501    0 -0.36427106895E+02 -0.74060766027E+02 -0.28351758997E+02  0.87394756247E+02  0.47000000000E+01 0. -1.
        -11    1    4    4    0    0  0.11154962931E+02 -0.61153280158E+01 -0.65445610555E+02  0.66670521039E+02  0.00000000000E+00 0.  1.
         12    1    4    4    0    0  0.62053219877E+01  0.48517593078E+02 -0.68280244596E+01  0.49387091198E+02  0.00000000000E+00 0. -1.
         -5    1    5    5    0  502 -0.21086787799E+02  0.66422495063E+02 -0.96060502032E+02  0.11876998998E+03  0.47000000000E+01 0.  1.
         11    1    6    6    0    0  0.12798410027E+02 -0.33070545299E+02  0.14052034906E+02  0.38143412939E+02  0.00000000000E+00 0. -1.
        -12    1    6    6    0    0  0.27355199750E+02 -0.16934487991E+01 -0.83271980125E+02  0.87666398330E+02  0.00000000000E+00 0.  1.
</event>
<event>
12    1  0.1623092E-001  0.1902582E+03  0.7818608E-02  0.1158969E+00
         21   -1    0    0  501  502  0.00000000000E+00  0.00000000000E+00  0.10257827115E+04  0.10257827115E+04  0.00000000000E+00 0. -1.
         21   -1    0    0  502  503 -0.00000000000E+00 -0.00000000000E+00 -0.32955865878E+03  0.32955865878E+03  0.00000000000E+00 0. -1.
         -6    2    1    2    0  503  0.45019102858E+02  0.57037689678E+02 -0.29321785381E+03  0.34777326694E+03  0.17230646459E+03 0.  0.
        -24    2    3    3    0    0  0.50070847765E+02  0.92106032095E+02 -0.14668812550E+03  0.19694767214E+03  0.79248775742E+02 0.  0.
          6    2    1    2  501    0 -0.45019102858E+02 -0.57037689678E+02  0.98944190655E+03  0.10075681034E+04  0.17583565858E+03 0.  0.
         24    2    5    5    0    0 -0.72519416635E+02  0.17698720322E+02  0.52081093427E+03  0.53219574782E+03  0.80099776885E+02 0.  0.
          5    1    5    5  501    0  0.27500313778E+02 -0.74736410000E+02  0.46863097229E+03  0.47537235555E+03  0.47000000000E+01 0. -1.
        -11    1    6    6    0    0  0.25026243452E+01 -0.17839547886E+02  0.20031485231E+03  0.20112322754E+03  0.00000000000E+00 0.  1.
         12    1    6    6    0    0 -0.75022040981E+02  0.35538268208E+02  0.32049608195E+03  0.33107252028E+03  0.00000000000E+00 0. -1.
         -5    1    3    3    0  503 -0.50517449075E+01 -0.35068342417E+02 -0.14652972831E+03  0.15082559479E+03  0.47000000000E+01 0.  1.
         11    1    4    4    0    0  0.20747937011E+02  0.73255109750E+02 -0.14285556643E+03  0.16187804315E+03  0.00000000000E+00 0. -1.
        -12    1    4    4    0    0  0.29322910755E+02  0.18850922345E+02 -0.38325590634E+01  0.35069628988E+02  0.00000000000E+00 0.  1.
</event>
<event>
12    1  0.1623092E-001  0.3150932E+03  0.7818608E-02  0.1077940E+00
         21   -1    0    0  503  502  0.00000000000E+00  0.00000000000E+00  0.28511985297E+03  0.28511985297E+03  0.00000000000E+00 0. -1.
         21   -1    0    0  501  503 -0.00000000000E+00 -0.00000000000E+00 -0.38635819956E+03  0.38635819956E+03  0.00000000000E+00 0.  1.
          6    2    1    2  501    0 -0.22633895436E+03 -0.13532439994E+03 -0.15624919917E+03  0.35170662155E+03  0.17245787866E+03 0.  0.
         24    2    3    3    0    0 -0.16657358096E+03 -0.15699725291E+03 -0.87327038584E+02  0.25782389345E+03  0.80325917811E+02 0.  0.
         -6    2    1    2    0  502  0.22633895436E+03  0.13532439994E+03  0.55010852588E+02  0.31977143099E+03  0.17229497582E+03 0.  0.
        -24    2    5    5    0    0  0.89667608409E+02  0.73542701330E+01 -0.11063944679E+02  0.12116785659E+03  0.80404435900E+02 0.  0.
          5    1    3    3  501    0 -0.59765373403E+02  0.21672852965E+02 -0.68922160590E+02  0.93882728092E+02  0.47000000000E+01 0. -1.
        -11    1    4    4    0    0 -0.13190792710E+03 -0.76271583128E+02 -0.37875777297E+02  0.15700837599E+03  0.00000000000E+00 0.  1.
         12    1    4    4    0    0 -0.34665653866E+02 -0.80725669780E+02 -0.49451261287E+02  0.10081551747E+03  0.00000000000E+00 0. -1.
         -5    1    5    5    0  502  0.13667134596E+03  0.12797012981E+03  0.66074797267E+02  0.19860357440E+03  0.47000000000E+01 0.  1.
         13    1    6    6    0    0  0.52789342745E+02  0.43353911435E+02 -0.13258514254E+02  0.69584944811E+02  0.00000000000E+00 0. -1.
        -14    1    6    6    0    0  0.36878265664E+02 -0.35999641302E+02  0.21945695747E+01  0.51582911781E+02  0.00000000000E+00 0.  1.
</event>
<event>
12    1  0.1623092E-001  0.2427380E+03  0.7818608E-02  0.1118182E+00
         21   -1    0    0  501  502  0.00000000000E+00  0.00000000000E+00  0.64469732619E+03  0.64469732619E+03  0.00000000000E+00 0.  1.
         21   -1    0    0  502  503 -0.00000000000E+00 -0.00000000000E+00 -0.91128891295E+02  0.91128891295E+02  0.00000000000E+00 0.  1.
         -6    2    1    2    0  503  0.15527693782E+03 -0.66996920562E+02  0.29296184380E+03  0.37968366378E+03  0.17243412608E+03 0.  0.
        -24    2    3    3    0    0  0.44847372420E+02 -0.89233436194E+02  0.17171605511E+03  0.21411862274E+03  0.79915505828E+02 0.  0.
          6    2    1    2  501    0 -0.15527693782E+03  0.66996920562E+02  0.26060659110E+03  0.35614255370E+03  0.17413273228E+03 0.  0.
         24    2    5    5    0    0 -0.17479923114E+03  0.87925795749E+02  0.23719578114E+03  0.31886932234E+03  0.84439856575E+02 0.  0.
          5    1    5    5  501    0  0.19522293316E+02 -0.20928875188E+02  0.23410809959E+02  0.37273231358E+02  0.47000000000E+01 0. -1.
        -13    1    6    6    0    0 -0.15719077881E+03  0.40272880920E+02  0.17798939047E+03  0.24085487124E+03  0.00000000000E+00 0.  1.
         14    1    6    6    0    0 -0.17608452326E+02  0.47652914829E+02  0.59206390663E+02  0.78014451100E+02  0.00000000000E+00 0. -1.
         -5    1    3    3    0  503  0.11042956540E+03  0.22236515632E+02  0.12124578869E+03  0.16556504104E+03  0.47000000000E+01 0.  1.
         13    1    4    4    0    0 -0.16384274035E+02 -0.44383858565E+02  0.95389458760E+02  0.10647779195E+03  0.00000000000E+00 0. -1.
        -14    1    4    4    0    0  0.61231646455E+02 -0.44849577629E+02  0.76326596350E+02  0.10764083078E+03  0.00000000000E+00 0.  1.
</event>
<event>
12    1  0.1623092E-001  0.2277860E+03  0.7818608E-02  0.1128758E+00
         21   -1    0    0  503  502  0.00000000000E+00  0.00000000000E+00  0.12190502687E+03  0.12190502687E+03  0.00000000000E+00 0. -1.
         21   -1    0    0  501  503 -0.00000000000E+00 -0.00000000000E+00 -0.42304728475E+03  0.42304728475E+03  0.00000000000E+00 0. -1.
          6    2    1    2  501    0 -0.20922442212E+02 -0.14144395932E+03 -0.17299625962E+03  0.28359461396E+03  0.17336105968E+03 0.  0.
         24    2    3    3    0    0 -0.67042302534E+02 -0.14419376795E+03 -0.14456343309E+03  0.22914171149E+03  0.79503614475E+02 0.  0.
         -6    2    1    2    0  502  0.20922442212E+02  0.14144395932E+03 -0.12814599827E+03  0.26135769765E+03  0.17731978749E+03 0.  0.
        -24    2    5    5    0    0 -0.17451827701E+02  0.11728340433E+03 -0.20552811745E+02  0.14450436739E+03  0.79994567951E+02 0.  0.
          5    1    3    3  501    0  0.46119860322E+02  0.27498086290E+01 -0.28432826532E+02  0.54452902477E+02  0.47000000000E+01 0. -1.
        -11    1    4    4    0    0 -0.35062622137E+02 -0.77642000842E+02 -0.25295355456E+02  0.88868007593E+02  0.00000000000E+00 0.  1.
         12    1    4    4    0    0 -0.31979680397E+02 -0.66551767103E+02 -0.11926807763E+03  0.14027370389E+03  0.00000000000E+00 0. -1.
         -5    1    5    5    0  502  0.38374269913E+02  0.24160554987E+02 -0.10759318652E+03  0.11685333027E+03  0.47000000000E+01 0.  1.
         13    1    6    6    0    0 -0.39818832859E+02  0.36702885431E+02 -0.27223539385E+02  0.60611569406E+02  0.00000000000E+00 0. -1.
        -14    1    6    6    0    0  0.22367005158E+02  0.80580518898E+02  0.66707276399E+01  0.83892797980E+02  0.00000000000E+00 0.  1.
</event>
<event>
12    1  0.1623092E-001  0.4239232E+03  0.7818608E-02  0.1036103E+00
         21   -1    0    0  503  502  0.00000000000E+00  0.00000000000E+00  0.69983360226E+03  0.69983360226E+03  0.00000000000E+00 0. -1.
         21   -1    0    0  501  503 -0.00000000000E+00 -0.00000000000E+00 -0.25708711809E+03  0.25708711809E+03  0.00000000000E+00 0. -1.
          6    2    1    2  501    0  0.38111042895E+03  0.20290060034E+02  0.17440532089E+03  0.45839726947E+03  0.18453724586E+03 0.  0.
         24    2    3    3    0    0  0.81181076292E+02  0.26716543818E+02  0.85905645287E+02  0.14558231001E+03  0.80686357173E+02 0.  0.
         -6    2    1    2    0  502 -0.38111042895E+03 -0.20290060034E+02  0.26834116328E+03  0.49852345089E+03  0.17567528451E+03 0.  0.
        -24    2    5    5    0    0 -0.15290114636E+03  0.45139472311E+02  0.83953708781E+02  0.19788858309E+03  0.81825018054E+02 0.  0.
          5    1    3    3  501    0  0.29992935266E+03 -0.64264837841E+01  0.88499675608E+02  0.31281495946E+03  0.47000000000E+01 0. -1.
        -11    1    4    4    0    0  0.77533753024E+02  0.24968325942E+01  0.92002665645E+02  0.12034204384E+03  0.00000000000E+00 0.  1.
         12    1    4    4    0    0  0.36473232685E+01  0.24219711224E+02 -0.60970203579E+01  0.25240266164E+02  0.00000000000E+00 0. -1.
         -5    1    5    5    0  502 -0.22820928259E+03 -0.65429532345E+02  0.18438745450E+03  0.30063486780E+03  0.47000000000E+01 0.  1.
         11    1    6    6    0    0 -0.95118352606E+02 -0.14139031029E+02  0.39874017643E+02  0.10410259595E+03  0.00000000000E+00 0. -1.
        -12    1    6    6    0    0 -0.57782793753E+02  0.59278503339E+02  0.44079691138E+02  0.93785987135E+02  0.00000000000E+00 0.  1.
</event>
<event>
12    1  0.1623092E-001  0.1734398E+03  0.7818608E-02  0.1174814E+00
         21   -1    0    0  503  502  0.00000000000E+00  0.00000000000E+00  0.31493758544E+04  0.31493758544E+04  0.00000000000E+00 0.  1.
         21   -1    0    0  501  503 -0.00000000000E+00 -0.00000000000E+00 -0.15364485993E+02  0.15364485993E+02  0.00000000000E+00 0.  1.
          6    2    1    2  501    0 -0.14981615058E+02  0.11406291592E+02  0.57910815872E+03  0.60395691124E+03  0.17042047664E+03 0.  0.
         24    2    3    3    0    0 -0.10692063454E+02 -0.35762519554E+01  0.11123721632E+03  0.13580289213E+03  0.77081758007E+02 0.  0.
         -6    2    1    2    0  502  0.14981615058E+02 -0.11406291592E+02  0.25549032097E+04  0.25607834292E+04  0.17241463945E+03 0.  0.
        -24    2    5    5    0    0 -0.41268904716E+02  0.31522051941E+02  0.18380306685E+04  0.18404117931E+04  0.77859281840E+02 0.  0.
          5    1    3    3  501    0 -0.42895516040E+01  0.14982543547E+02  0.46787094240E+03  0.46815401910E+03  0.47000000000E+01 0. -1.
        -11    1    4    4    0    0 -0.37931181280E+01  0.15958145361E+02  0.11375688911E+03  0.11493337187E+03  0.00000000000E+00 0.  1.
         12    1    4    4    0    0 -0.68989453265E+01 -0.19534397316E+02 -0.25196727892E+01  0.20869520265E+02  0.00000000000E+00 0. -1.
         -5    1    5    5    0  502  0.56250519774E+02 -0.42928343533E+02  0.71687254125E+03  0.72037163607E+03  0.47000000000E+01 0.  1.
         13    1    6    6    0    0  0.17044030930E+01  0.12686170787E+02  0.45474292022E+02  0.47241455885E+02  0.00000000000E+00 0. -1.
        -14    1    6    6    0    0 -0.42973307809E+02  0.18835881154E+02  0.17925563765E+04  0.17931703372E+04  0.00000000000E+00 0.  1.
</event>
<event>
12    1  0.1623092E-001  0.3046517E+03  0.7818608E-02  0.1082971E+00
         21   -1    0    0  501  502  0.00000000000E+00  0.00000000000E+00  0.87288021562E+02  0.87288021562E+02  0.00000000000E+00 0. -1.
         21   -1    0    0  502  503 -0.00000000000E+00 -0.00000000000E+00 -0.11377620891E+04  0.11377620891E+04  0.00000000000E+00 0.  1.
         -6    2    1    2    0  503  0.18326632108E+03  0.17182510430E+03 -0.68270838285E+03  0.74748937255E+03  0.17186976215E+03 0.  0.
        -24    2    3    3    0    0  0.92430080386E+02  0.17825800338E+02 -0.30665290660E+03  0.33106792801E+03  0.81907807426E+02 0.  0.
          6    2    1    2  501    0 -0.18326632108E+03 -0.17182510430E+03 -0.36776568472E+03  0.47756073814E+03  0.17234340386E+03 0.  0.
         24    2    5    5    0    0 -0.93466120170E+02 -0.32945802790E+02 -0.98079025816E+02  0.16116775393E+03  0.80834448477E+02 0.  0.
          5    1    5    5  501    0 -0.89800200908E+02 -0.13887930152E+03 -0.26968665890E+03  0.31639298422E+03  0.47000000000E+01 0. -1.
        -13    1    6    6    0    0 -0.16301552599E+02 -0.45198045360E+02 -0.50422103390E+02  0.69649066267E+02  0.00000000000E+00 0.  1.
         14    1    6    6    0    0 -0.77164567570E+02  0.12252242571E+02 -0.47656922425E+02  0.91518687662E+02  0.00000000000E+00 0. -1.
         -5    1    3    3    0  503  0.90836240691E+02  0.15399930397E+03 -0.37605547625E+03  0.41642144453E+03  0.47000000000E+01 0.  1.
         13    1    4    4    0    0  0.34843989734E+02  0.39624503646E+02 -0.77290412920E+02  0.93584255295E+02  0.00000000000E+00 0. -1.
        -14    1    4    4    0    0  0.57586090652E+02 -0.21798703308E+02 -0.22936249368E+03  0.23748367272E+03  0.00000000000E+00 0.  1.
</event>
<event>
12    1  0.1623092E-001  0.2217229E+03  0.7818608E-02  0.1132810E+00
         21   -1    0    0  501  502  0.00000000000E+00  0.00000000000E+00  0.11110693196E+03  0.11110693196E+03  0.00000000000E+00 0. -1.
         21   -1    0    0  502  503 -0.00000000000E+00 -0.00000000000E+00 -0.69775596615E+03  0.69775596615E+03  0.00000000000E+00 0. -1.
         -6    2    1    2    0  503 -0.13982182641E+03  0.15536900262E+02 -0.53947180431E+03  0.58325882271E+03  0.17137528474E+03 0.  0.
        -24    2    3    3    0    0 -0.60427419697E+02 -0.69220398515E+01 -0.44878433458E+03  0.46056333390E+03  0.83736598243E+02 0.  0.
          6    2    1    2  501    0  0.13982182641E+03 -0.15536900262E+02 -0.47177229882E+02  0.22560407540E+03  0.16994107628E+03 0.  0.
         24    2    5    5    0    0  0.66676540729E+02  0.12919551500E+01 -0.91659837855E+02  0.13822996251E+03  0.79111101800E+02 0.  0.
          5    1    5    5  501    0  0.73145285683E+02 -0.16828855412E+02  0.44482607973E+02  0.87374112895E+02  0.47000000000E+01 0. -1.
        -13    1    6    6    0    0 -0.10778505471E+02 -0.16515705290E+02 -0.36502357877E+02  0.41489358057E+02  0.00000000000E+00 0.  1.
         14    1    6    6    0    0  0.77455046200E+02  0.17807660440E+02 -0.55157479978E+02  0.96740604452E+02  0.00000000000E+00 0. -1.
         -5    1    3    3    0  503 -0.79394406716E+02  0.22458940114E+02 -0.90687469728E+02  0.12269548881E+03  0.47000000000E+01 0.  1.
         11    1    4    4    0    0 -0.63218769063E+02 -0.17001523136E+02 -0.44444421575E+03  0.44923971937E+03  0.00000000000E+00 0. -1.
        -12    1    4    4    0    0  0.27913493666E+01  0.10079483285E+02 -0.43401188329E+01  0.11323614531E+02  0.00000000000E+00 0.  1.
</event>
<event>
12    1  0.1623092E-001  0.2263308E+03  0.7818608E-02  0.1129315E+00
         21   -1    0    0  503  502  0.00000000000E+00  0.00000000000E+00  0.14140265251E+04  0.14140265251E+04  0.00000000000E+00 0. -1.
         21   -1    0    0  501  503 -0.00000000000E+00 -0.00000000000E+00 -0.82433839825E+02  0.82433839825E+02  0.00000000000E+00 0. -1.
          6    2    1    2  501    0 -0.63574404194E+02 -0.13303973253E+03  0.10501660207E+03  0.24917751369E+03  0.17122987857E+03 0.  0.
         24    2    3    3    0    0 -0.34669069097E+02 -0.47949341516E+02 -0.14296755342E+02  0.99733007943E+02  0.79001214903E+02 0.  0.
         -6    2    1    2    0  502  0.63574404194E+02  0.13303973253E+03  0.12265760832E+04  0.12472828512E+04  0.17171006902E+03 0.  0.
        -24    2    5    5    0    0  0.89254622751E+02  0.50911843097E+02  0.91480329543E+03  0.92381905876E+03  0.77576933080E+02 0.  0.
          5    1    3    3  501    0 -0.28905335097E+02 -0.85090391013E+02  0.11931335741E+03  0.14944450574E+03  0.47000000000E+01 0. -1.
        -13    1    4    4    0    0  0.12196718527E+02  0.15004943823E+02 -0.82306889514E+01  0.21015530509E+02  0.00000000000E+00 0.  1.
         14    1    4    4    0    0 -0.46865787624E+02 -0.62954285339E+02 -0.60660663909E+01  0.78717477434E+02  0.00000000000E+00 0. -1.
         -5    1    5    5    0  502 -0.25680218557E+02  0.82127889432E+02  0.31177278774E+03  0.32346379245E+03  0.47000000000E+01 0.  1.
         11    1    6    6    0    0  0.90239465193E+02  0.65609838157E+02  0.73579673152E+03  0.74420739183E+03  0.00000000000E+00 0. -1.
        -12    1    6    6    0    0 -0.98484244155E+00 -0.14697995060E+02  0.17900656392E+03  0.17961166693E+03  0.00000000000E+00 0.  1.
</event>
<event>
12    1  0.1623092E-001  0.2021434E+03  0.7818608E-02  0.1148238E+00
         21   -1    0    0  503  502  0.00000000000E+00  0.00000000000E+00  0.13718329772E+03  0.13718329772E+03  0.00000000000E+00 0.  1.
         21   -1    0    0  501  503 -0.00000000000E+00 -0.00000000000E+00 -0.32002222337E+03  0.32002222337E+03  0.00000000000E+00 0.  1.
          6    2    1    2  501    0  0.88685770378E+02  0.52419750589E+02 -0.15403018882E+03  0.25301955123E+03  0.17228057963E+03 0.  0.
         24    2    3    3    0    0  0.10195833650E+03  0.90709703822E+02 -0.10588845816E+03  0.18991647871E+03  0.78943971055E+02 0.  0.
         -6    2    1    2    0  502 -0.88685770378E+02 -0.52419750589E+02 -0.28808736827E+02  0.20418596986E+03  0.17392231269E+03 0.  0.
        -24    2    5    5    0    0  0.73926746860E+00  0.21991168067E+00 -0.55044087113E+02  0.97049817973E+02  0.79926345875E+02 0.  0.
          5    1    3    3  501    0 -0.13272566121E+02 -0.38289953233E+02 -0.48141730659E+02  0.63103072515E+02  0.47000000000E+01 0. -1.
        -13    1    4    4    0    0  0.96004432903E+02  0.58462286761E+02 -0.10950296494E+03  0.15692542637E+03  0.00000000000E+00 0.  1.
         14    1    4    4    0    0  0.59539035961E+01  0.32247417062E+02  0.36145067861E+01  0.32991052340E+02  0.00000000000E+00 0. -1.
         -5    1    5    5    0  502 -0.89425037846E+02 -0.52639662269E+02  0.26235350287E+02  0.10713615189E+03  0.47000000000E+01 0.  1.
         13    1    6    6    0    0  0.36946743603E+02 -0.78758380184E+01 -0.10763115278E+02  0.39280215604E+02  0.00000000000E+00 0. -1.
        -14    1    6    6    0    0 -0.36207476135E+02  0.80957496991E+01 -0.44280971835E+02  0.57769602369E+02  0.00000000000E+00 0.  1.
</event>
<event>
12    1  0.1623092E-001  0.1819866E+03  0.7818608E-02  0.1165958E+00
         21   -1    0    0  501  502  0.00000000000E+00  0.00000000000E+00  0.21536616038E+03  0.21536616038E+03  0.00000000000E+00 0. -1.
         21   -1    0    0  502  503 -0.00000000000E+00 -0.00000000000E+00 -0.21814696281E+03  0.21814696281E+03  0.00000000000E+00 0. -1.
         -6    2    1    2    0  503 -0.56180800431E+02  0.19393803680E+02  0.11655566071E+03  0.21611190600E+03  0.17200794143E+03 0.  0.
        -24    2    3    3    0    0 -0.86588784970E+02 -0.76959918478E+01  0.31773502588E+02  0.12193862486E+03  0.79389084847E+02 0.  0.
          6    2    1    2  501    0  0.56180800431E+02 -0.19393803680E+02 -0.11933646314E+03  0.21740121718E+03  0.17172564118E+03 0.  0.
         24    2    5    5    0    0 -0.18502912428E+02 -0.52264198828E+02 -0.45005551960E+02  0.10692364389E+03  0.79581792312E+02 0.  0.
          5    1    5    5  501    0  0.74683712859E+02  0.32870395148E+02 -0.74330911184E+02  0.11047757329E+03  0.47000000000E+01 0. -1.
        -13    1    6    6    0    0  0.91083896167E+01  0.67241935280E+01  0.14709047533E+02  0.18561616830E+02  0.00000000000E+00 0.  1.
         14    1    6    6    0    0 -0.27611302044E+02 -0.58988392356E+02 -0.59714599492E+02  0.88362027058E+02  0.00000000000E+00 0. -1.
         -5    1    3    3    0  503  0.30407984539E+02  0.27089795528E+02  0.84782158121E+02  0.94173281143E+02  0.47000000000E+01 0.  1.
         13    1    4    4    0    0  0.45972308691E+00 -0.12104266896E+02  0.32596835004E+02  0.34774678643E+02  0.00000000000E+00 0. -1.
        -14    1    4    4    0    0 -0.87048508057E+02  0.44082750481E+01 -0.82333241640E+00  0.87163946217E+02  0.00000000000E+00 0.  1.
</event>
<event>
12    1  0.1623092E-001  0.1838319E+03  0.7818608E-02  0.1165245E+00
         21   -1    0    0  503  502  0.00000000000E+00  0.00000000000E+00  0.36701528150E+03  0.36701528150E+03  0.00000000000E+00 0. -1.
         21   -1    0    0  501  503 -0.00000000000E+00 -0.00000000000E+00 -0.98503173057E+02  0.98503173057E+02  0.00000000000E+00 0. -1.
          6    2    1    2  501    0 -0.11755998018E+02  0.55532277632E+02  0.20194298618E+03  0.27000471956E+03  0.16999865167E+03 0.  0.
         24    2    3    3    0    0 -0.63164047589E+02 -0.74868065224E+01  0.78704981469E+02  0.12227561500E+03  0.68637473271E+02 0.  0.
         -6    2    1    2    0  502  0.11755998018E+02 -0.55532277632E+02  0.66569122257E+02  0.19551373499E+03  0.17484889243E+03 0.  0.
        -24    2    5    5    0    0  0.34158237826E+02  0.29753172984E+02  0.27148018643E+02  0.98810157777E+02  0.83512848411E+02 0.  0.
          5    1    3    3  501    0  0.51408049571E+02  0.63019084155E+02  0.12323800471E+03  0.14772910456E+03  0.47000000000E+01 0. -1.
        -13    1    4    4    0    0 -0.34441742292E+02  0.25704164144E+02  0.16263658773E+02  0.45950454439E+02  0.00000000000E+00 0.  1.
         14    1    4    4    0    0 -0.28722305297E+02 -0.33190970666E+02  0.62441322696E+02  0.76325160566E+02  0.00000000000E+00 0. -1.
         -5    1    5    5    0  502 -0.22402239807E+02 -0.85285450616E+02  0.39421103615E+02  0.96703577211E+02  0.47000000000E+01 0.  1.
         11    1    6    6    0    0 -0.16786355547E+01 -0.10945097184E+02 -0.22633794299E+02  0.25197254098E+02  0.00000000000E+00 0. -1.
        -12    1    6    6    0    0  0.35836873380E+02  0.40698270168E+02  0.49781812941E+02  0.73612903679E+02  0.00000000000E+00 0.  1.
</event>
<event>
12    1  0.1623092E-001  0.3306238E+03  0.7818608E-02  0.1070922E+00
         21   -1    0    0  503  502  0.00000000000E+00  0.00000000000E+00  0.10650136865E+04  0.10650136865E+04  0.00000000000E+00 0.  1.
         21   -1    0    0  501  503 -0.00000000000E+00 -0.00000000000E+00 -0.12184239382E+03  0.12184239382E+03  0.00000000000E+00 0.  1.
          6    2    1    2  501    0  0.17569926123E+03 -0.22034649350E+03  0.23461713434E+03  0.40496024935E+03  0.17182780983E+03 0.  0.
         24    2    3    3    0    0  0.30112657687E+02 -0.31746102950E+02  0.66639370523E+02  0.11340547647E+03  0.80656116849E+02 0.  0.
         -6    2    1    2    0  502 -0.17569926123E+03  0.22034649350E+03  0.70855415830E+03  0.78189583093E+03  0.17288518615E+03 0.  0.
        -24    2    5    5    0    0 -0.14176984241E+03  0.14272972397E+03  0.32611700014E+03  0.39016143326E+03  0.73506352832E+02 0.  0.
          5    1    3    3  501    0  0.14558660354E+03 -0.18860039055E+03  0.16797776382E+03  0.29155477287E+03  0.47000000000E+01 0. -1.
        -13    1    4    4    0    0  0.44711269318E+02 -0.49087919306E+02  0.36742219107E+02  0.75886178522E+02  0.00000000000E+00 0.  1.
         14    1    4    4    0    0 -0.14598611631E+02  0.17341816355E+02  0.29897151416E+02  0.37519297952E+02  0.00000000000E+00 0. -1.
         -5    1    5    5    0  502 -0.33929418819E+02  0.77616769537E+02  0.38243715816E+03  0.39173439767E+03  0.47000000000E+01 0.  1.
         13    1    6    6    0    0 -0.70769859416E+01 -0.26480300423E+01 -0.10712008421E+01  0.76317274825E+01  0.00000000000E+00 0. -1.
        -14    1    6    6    0    0 -0.13469285647E+03  0.14537775401E+03  0.32718820098E+03  0.38252970578E+03  0.00000000000E+00 0.  1.
</event>
<event>
12    1  0.1623092E-001  0.2811772E+03  0.7818608E-02  0.1095344E+00
         21   -1    0    0  501  502  0.00000000000E+00  0.00000000000E+00  0.83827732648E+03  0.83827732648E+03  0.00000000000E+00 0. -1.
         21   -1    0    0  502  503 -0.00000000000E+00 -0.00000000000E+00 -0.95423431937E+02  0.95423431937E+02  0.00000000000E+00 0. -1.
         -6    2    1    2    0  503 -0.21874513726E+03 -0.41486296000E+02  0.30523912734E+03  0.41353989096E+03  0.16814805597E+03 0.  0.
        -24    2    3    3    0    0 -0.18116132261E+03  0.27184373628E+02  0.20754026197E+03  0.28825875796E+03  0.80384925365E+02 0.  0.
          6    2    1    2  501    0  0.21874513726E+03  0.41486296000E+02  0.43761476720E+03  0.52016086746E+03  0.17172680550E+03 0.  0.
         24    2    5    5    0    0  0.41080575544E+02  0.50441606736E+02  0.17489600682E+03  0.20284693593E+03  0.79538021347E+02 0.  0.
          5    1    5    5  501    0  0.17766456171E+03 -0.89553107363E+01  0.26271876039E+03  0.31731393152E+03  0.47000000000E+01 0. -1.
        -11    1    6    6    0    0  0.64159679007E+02  0.46729580142E+02  0.13589162644E+03  0.15737424252E+03  0.00000000000E+00 0.  1.
         12    1    6    6    0    0 -0.23079103464E+02  0.37120265936E+01  0.39004380373E+02  0.45472693415E+02  0.00000000000E+00 0. -1.
         -5    1    3    3    0  503 -0.37583814651E+02 -0.68670669627E+02  0.97698865372E+02  0.12528113300E+03  0.47000000000E+01 0.  1.
         13    1    4    4    0    0 -0.10479967604E+03  0.53784297530E+02  0.13948293766E+03  0.18256837803E+03  0.00000000000E+00 0. -1.
        -14    1    4    4    0    0 -0.76361646565E+02 -0.26599923903E+02  0.68057324312E+02  0.10569037993E+03  0.00000000000E+00 0.  1.
</event>
<event>
12    1  0.1623092E-001  0.2044555E+03  0.7818608E-02  0.1148994E+00
         21   -1    0    0  503  502  0.00000000000E+00  0.00000000000E+00  0.37390306837E+03  0.37390306837E+03  0.00000000000E+00 0. -1.
         21   -1    0    0  501  503 -0.00000000000E+00 -0.00000000000E+00 -0.37022682723E+03  0.37022682723E+03  0.00000000000E+00 0. -1.
          6    2    1    2  501    0  0.76216289268E+02 -0.42912679843E+02 -0.31344158537E+03  0.36681599249E+03  0.16928651472E+03 0.  0.
         24    2    3    3    0    0  0.99881079035E+01 -0.47806690673E+02 -0.27213178540E+03  0.28846605361E+03  0.82290421607E+02 0.  0.
         -6    2    1    2    0  502 -0.76216289268E+02  0.42912679843E+02  0.31711782651E+03  0.37731390311E+03  0.18480163622E+03 0.  0.
        -24    2    5    5    0    0 -0.26316494326E+02  0.97860297661E+02  0.22161240592E+03  0.25626595559E+03  0.79315734888E+02 0.  0.
          5    1    3    3  501    0  0.66228181365E+02  0.48940108302E+01 -0.41309799974E+02  0.78349938881E+02  0.47000000000E+01 0. -1.
        -11    1    4    4    0    0 -0.25776897901E+02  0.10054420037E+02 -0.79345653106E+02  0.84031378036E+02  0.00000000000E+00 0.  1.
         12    1    4    4    0    0  0.35765005804E+02 -0.57861110711E+02 -0.19278613229E+03  0.20443467557E+03  0.00000000000E+00 0. -1.
         -5    1    5    5    0  502 -0.49899794942E+02 -0.54947617818E+02  0.95505420587E+02  0.12104794753E+03  0.47000000000E+01 0.  1.
         13    1    6    6    0    0 -0.11098025763E+02  0.90958413071E+02  0.22133494270E+03  0.23955324240E+03  0.00000000000E+00 0. -1.
        -14    1    6    6    0    0 -0.15218468564E+02  0.69018845900E+01  0.27746322825E+00  0.16712713190E+02  0.00000000000E+00 0.  1.
</event>
<event>
12    1  0.1623092E-001  0.2141177E+03  0.7818608E-02  0.1138630E+00
         21   -1    0    0  501  502  0.00000000000E+00  0.00000000000E+00  0.74258323741E+02  0.74258323741E+02  0.00000000000E+00 0. -1.
         21   -1    0    0  502  503 -0.00000000000E+00 -0.00000000000E+00 -0.74071908686E+03  0.74071908686E+03  0.00000000000E+00 0.  1.
         -6    2    1    2    0  503  0.12198000178E+03 -0.29939042155E+02 -0.16508404518E+03  0.27036853279E+03  0.17340973004E+03 0.  0.
        -24    2    3    3    0    0  0.99675012259E+02  0.25181838755E+02 -0.47099436215E+02  0.13816307896E+03  0.79381650425E+02 0.  0.
          6    2    1    2  501    0 -0.12198000178E+03  0.29939042155E+02 -0.50137671794E+03  0.54460887781E+03  0.17159472434E+03 0.  0.
         24    2    5    5    0    0 -0.91045955463E+02  0.83961525387E+02 -0.30885400309E+03  0.34221710513E+03  0.79892728502E+02 0.  0.
          5    1    5    5  501    0 -0.30934046316E+02 -0.54022483231E+02 -0.19252271485E+03  0.20239177268E+03  0.47000000000E+01 0. -1.
        -13    1    6    6    0    0  0.11538908269E+01  0.24403548920E+02 -0.13070290757E+03  0.13296659246E+03  0.00000000000E+00 0.  1.
         14    1    6    6    0    0 -0.92199846289E+02  0.59557976466E+02 -0.17815109552E+03  0.20925051267E+03  0.00000000000E+00 0. -1.
         -5    1    3    3    0  503  0.22304989520E+02 -0.55120880911E+02 -0.11798460897E+03  0.13220545383E+03  0.47000000000E+01 0.  1.
         13    1    4    4    0    0  0.46998162243E+02 -0.12847889180E+02  0.12170529686E+02  0.50219690395E+02  0.00000000000E+00 0. -1.
        -14    1    4    4    0    0  0.52676850016E+02  0.38029727935E+02 -0.59269965901E+02  0.87943388565E+02  0.00000000000E+00 0.  1.
</event>
<event>
12    1  0.1623092E-001  0.2169113E+03  0.7818608E-02  0.1136362E+00
         21   -1    0    0  501  502  0.00000000000E+00  0.00000000000E+00  0.33719668979E+03  0.33719668979E+03  0.00000000000E+00 0.  1.
         21   -1    0    0  502  503 -0.00000000000E+00 -0.00000000000E+00 -0.15317550245E+03  0.15317550245E+03  0.00000000000E+00 0. -1.
         -6    2    1    2    0  503 -0.68929828457E+01 -0.13218720145E+03  0.17603482997E+02  0.21762446949E+03  0.17184166452E+03 0.  0.
        -24    2    3    3    0    0  0.59185743896E+02 -0.10891527143E+03  0.17462789571E+02  0.14740986524E+03  0.77841060630E+02 0.  0.
          6    2    1    2  501    0  0.68929828457E+01  0.13218720145E+03  0.16641770434E+03  0.27274772275E+03  0.17080836779E+03 0.  0.
         24    2    5    5    0    0 -0.21353143198E+02  0.53948649577E+01  0.43260840837E+02  0.93683926137E+02  0.80125628698E+02 0.  0.
          5    1    5    5  501    0  0.28246126044E+02  0.12679233649E+03  0.12315686350E+03  0.17906379662E+03  0.47000000000E+01 0. -1.
        -13    1    6    6    0    0 -0.14639579964E+02  0.23391042009E+02  0.61368167188E+02  0.67286775015E+02  0.00000000000E+00 0.  1.
         14    1    6    6    0    0 -0.67135632342E+01 -0.17996177052E+02 -0.18107326352E+02  0.26397151122E+02  0.00000000000E+00 0. -1.
         -5    1    3    3    0  503 -0.66078726741E+02 -0.23271930021E+02  0.14069342641E+00  0.70214604245E+02  0.47000000000E+01 0.  1.
         13    1    4    4    0    0  0.21436034027E+01 -0.46761094031E+02  0.38334901601E+02  0.60504211682E+02  0.00000000000E+00 0. -1.
        -14    1    4    4    0    0  0.57042140493E+02 -0.62154177401E+02 -0.20872112030E+02  0.86905653562E+02  0.00000000000E+00 0.  1.
</event>
<event>
12    1  0.1623092E-001  0.1735735E+03  0.7818608E-02  0.1174411E+00
         21   -1    0    0  503  502  0.00000000000E+00  0.00000000000E+00  0.35698585013E+03  0.35698585013E+03  0.00000000000E+00 0. -1.
         21   -1    0    0  501  503 -0.00000000000E+00 -0.00000000000E+00 -0.93665962807E+02  0.93665962807E+02  0.00000000000E+00 0. -1.
          6    2    1    2  501    0  0.10715841101E+02 -0.14198411224E+02  0.20395206332E+03  0.26720614103E+03  0.17171561823E+03 0.  0.
         24    2    3    3    0    0 -0.20895411696E+02  0.53210891918E+02  0.12243649095E+03  0.15670653021E+03  0.79361357389E+02 0.  0.
         -6    2    1    2    0  502 -0.10715841101E+02  0.14198411224E+02  0.59367824004E+02  0.18344567190E+03  0.17265964172E+03 0.  0.
        -24    2    5    5    0    0  0.31317878965E+02  0.86041497235E+01  0.87200572187E+02  0.13250569491E+03  0.94334397008E+02 0.  0.
          5    1    3    3  501    0  0.31611252798E+02 -0.67409303142E+02  0.81515572371E+02  0.11049961083E+03  0.47000000000E+01 0. -1.
        -11    1    4    4    0    0  0.87571209074E+01  0.51618807438E+02  0.31632471441E+02  0.61170268083E+02  0.00000000000E+00 0.  1.
         12    1    4    4    0    0 -0.29652532604E+02  0.15920844794E+01  0.90804019505E+02  0.95536262126E+02  0.00000000000E+00 0. -1.
         -5    1    5    5    0  502 -0.42033720066E+02  0.55942615005E+01 -0.27832748182E+02  0.50939976990E+02  0.47000000000E+01 0.  1.
         13    1    6    6    0    0 -0.45761390155E+01  0.28754501860E+02 -0.67890456565E+01  0.29897383940E+02  0.00000000000E+00 0. -1.
        -14    1    6    6    0    0  0.35894017981E+02 -0.20150352137E+02  0.93989617843E+02  0.10260831097E+03  0.00000000000E+00 0.  1.
</event>
<event>
12    1  0.1623092E-001  0.1894256E+03  0.7818608E-02  0.1160929E+00
         21   -1    0    0  501  502  0.00000000000E+00  0.00000000000E+00  0.55532477037E+03  0.55532477037E+03  0.00000000000E+00 0. -1.
         21   -1    0    0  502  503 -0.00000000000E+00 -0.00000000000E+00 -0.72417775282E+02  0.72417775282E+02  0.00000000000E+00 0. -1.
         -6    2    1    2    0  503 -0.38957510986E+02 -0.50537247179E+02  0.12586087027E+03  0.22742695609E+03  0.17835459253E+03 0.  0.
        -24    2    3    3    0    0  0.19165515631E+02 -0.88152681677E+02  0.76715837950E+02  0.14239442504E+03  0.79073637911E+02 0.  0.
          6    2    1    2  501    0  0.38957510986E+02  0.50537247179E+02  0.35704612482E+03  0.40031558957E+03  0.16940760014E+03 0.  0.
         24    2    5    5    0    0  0.17013046945E+02  0.25230715496E+01  0.33108108965E+03  0.34129700254E+03  0.81074942880E+02 0.  0.
          5    1    5    5  501    0  0.21944464041E+02  0.48014175629E+02  0.25965035176E+02  0.59018587031E+02  0.47000000000E+01 0. -1.
        -11    1    6    6    0    0 -0.13228675062E+02  0.16223516743E+02  0.27733148852E+03  0.27812039635E+03  0.00000000000E+00 0.  1.
         12    1    6    6    0    0  0.30241722007E+02 -0.13700445193E+02  0.53749601125E+02  0.63176606189E+02  0.00000000000E+00 0. -1.
         -5    1    3    3    0  503 -0.58123026617E+02  0.37615434498E+02  0.49145032318E+02  0.85032531052E+02  0.47000000000E+01 0.  1.
         11    1    4    4    0    0 -0.23269884665E+02 -0.24825034930E+02 -0.30533265273E+00  0.34027387787E+02  0.00000000000E+00 0. -1.
        -12    1    4    4    0    0  0.42435400296E+02 -0.63327646747E+02  0.77021170603E+02  0.10836703725E+03  0.00000000000E+00 0.  1.
</event>
<event>
12    1  0.1623092E-001  0.2281926E+03  0.7818608E-02  0.1128141E+00
         21   -1    0    0  501  502  0.00000000000E+00  0.00000000000E+00  0.38146057788E+03  0.38146057788E+03  0.00000000000E+00 0. -1.
         21   -1    0    0  502  503 -0.00000000000E+00 -0.00000000000E+00 -0.38289777975E+03  0.38289777975E+03  0.00000000000E+00 0.  1.
         -6    2    1    2    0  503  0.14546589707E+03  0.30159563506E+02 -0.30775731332E+03  0.38238472455E+03  0.17156219626E+03 0.  0.
        -24    2    3    3    0    0  0.17387414344E+03  0.17767542267E+02 -0.28459537669E+03  0.34340837325E+03  0.79917952120E+02 0.  0.
          6    2    1    2  501    0 -0.14546589707E+03 -0.30159563506E+02  0.30632011145E+03  0.38197363308E+03  0.17321062095E+03 0.  0.
         24    2    5    5    0    0 -0.49221171182E+02 -0.47678652334E+01  0.25099285575E+03  0.26799564913E+03  0.79867378085E+02 0.  0.
          5    1    5    5  501    0 -0.96244725891E+02 -0.25391698273E+02  0.55327255692E+02  0.11397798395E+03  0.47000000000E+01 0. -1.
        -13    1    6    6    0    0 -0.20583500880E+02  0.21567924925E+02  0.20753948968E+03  0.20966996845E+03  0.00000000000E+00 0.  1.
         14    1    6    6    0    0 -0.28637670302E+02 -0.26335790158E+02  0.43453366077E+02  0.58325680681E+02  0.00000000000E+00 0. -1.
         -5    1    3    3    0  503 -0.28408246367E+02  0.12392021240E+02 -0.23161936631E+02  0.38976351298E+02  0.47000000000E+01 0.  1.
         11    1    4    4    0    0  0.15225694690E+03 -0.11354238726E+01 -0.18418242677E+03  0.23896994246E+03  0.00000000000E+00 0. -1.
        -12    1    4    4    0    0  0.21617196538E+02  0.18902966139E+02 -0.10041294992E+03  0.10443843080E+03  0.00000000000E+00 0.  1.
</event>
<event>
12    1  0.1623092E-001  0.1843344E+03  0.7818608E-02  0.1164032E+00
         21   -1    0    0  501  502  0.00000000000E+00  0.00000000000E+00  0.19913382514E+03  0.19913382514E+03  0.00000000000E+00 0. -1.
         21   -1    0    0  502  503 -0.00000000000E+00 -0.00000000000E+00 -0.23683597269E+03  0.23683597269E+03  0.00000000000E+00 0. -1.
         -6    2    1    2    0  503  0.49857683829E+01  0.64274350210E+02 -0.13537423514E+03  0.22870362430E+03  0.17269370066E+03 0.  0.
        -24    2    3    3    0    0 -0.46670876415E+02  0.39561102987E+01 -0.11387158686E+03  0.14629517267E+03  0.79004542510E+02 0.  0.
          6    2    1    2  501    0 -0.49857683829E+01 -0.64274350210E+02  0.97672087596E+02  0.20726617353E+03  0.17106542611E+03 0.  0.
         24    2    5    5    0    0  0.44226133253E+02 -0.27783995684E+02  0.83172751890E+00  0.92577453175E+02  0.76432923449E+02 0.  0.
          5    1    5    5  501    0 -0.49211901636E+02 -0.36490354525E+02  0.96840360077E+02  0.11468872035E+03  0.47000000000E+01 0. -1.
        -11    1    6    6    0    0  0.16393723057E+02 -0.52224084258E+02 -0.54544696430E+01  0.55007821002E+02  0.00000000000E+00 0.  1.
         12    1    6    6    0    0  0.27832410197E+02  0.24440088574E+02  0.62861971619E+01  0.37569632173E+02  0.00000000000E+00 0. -1.
         -5    1    3    3    0  503  0.51656644798E+02  0.60318239911E+02 -0.21502648280E+02  0.82408451635E+02  0.47000000000E+01 0.  1.
         11    1    4    4    0    0  0.19764058597E+02 -0.76841125630E+01 -0.12747264341E+02  0.24741793514E+02  0.00000000000E+00 0. -1.
        -12    1    4    4    0    0 -0.66434935012E+02  0.11640222862E+02 -0.10112432252E+03  0.12155337915E+03  0.00000000000E+00 0.  1.
</event>
<event>
12    1  0.1623092E-001  0.1786165E+03  0.7818608E-02  0.1169179E+00
         21   -1    0    0  503  502  0.00000000000E+00  0.00000000000E+00  0.11750273390E+03  0.11750273390E+03  0.00000000000E+00 0. -1.
         21   -1    0    0  501  503 -0.00000000000E+00 -0.00000000000E+00 -0.38941031070E+03  0.38941031070E+03  0.00000000000E+00 0.  1.
          6    2    1    2  501    0 -0.12131845328E+02 -0.46407890886E+02 -0.27555683629E+03  0.32838306547E+03  0.17205520525E+03 0.  0.
         24    2    3    3    0    0 -0.15884700299E+02  0.17626775782E+01 -0.41575935828E+02  0.89419387544E+02  0.77536041252E+02 0.  0.
         -6    2    1    2    0  502  0.12131845328E+02  0.46407890886E+02  0.36492594990E+01  0.17852997913E+03  0.17192661907E+03 0.  0.
        -24    2    5    5    0    0  0.57236998193E+02 -0.20401274218E+02  0.10013735523E+01  0.97739876661E+02  0.76549296463E+02 0.  0.
          5    1    3    3  501    0  0.37528549713E+01 -0.48170568464E+02 -0.23398090046E+03  0.23896367792E+03  0.47000000000E+01 0. -1.
        -11    1    4    4    0    0 -0.15471320847E+02  0.23875082116E+02 -0.56140907116E+02  0.62937927886E+02  0.00000000000E+00 0.  1.
         12    1    4    4    0    0 -0.41337945253E+00 -0.22112404538E+02  0.14564971288E+02  0.26481459658E+02  0.00000000000E+00 0. -1.
         -5    1    5    5    0  502 -0.45105152865E+02  0.66809165104E+02  0.26478859466E+01  0.80790102468E+02  0.47000000000E+01 0.  1.
         11    1    6    6    0    0 -0.73907611657E+00  0.24347507639E+02 -0.20046482558E+01  0.24441071506E+02  0.00000000000E+00 0. -1.
        -12    1    6    6    0    0  0.57976074309E+02 -0.44748781857E+02  0.30060218081E+01  0.73298805155E+02  0.00000000000E+00 0.  1.
</event>
<event>
12    1  0.1623092E-001  0.1749397E+03  0.7818608E-02  0.1174257E+00
         21   -1    0    0  503  502  0.00000000000E+00  0.00000000000E+00  0.57308193475E+03  0.57308193475E+03  0.00000000000E+00 0.  1.
         21   -1    0    0  501  503 -0.00000000000E+00 -0.00000000000E+00 -0.61792470699E+02  0.61792470699E+02  0.00000000000E+00 0.  1.
          6    2    1    2  501    0  0.20269803524E+02  0.30300827436E+02  0.12361015083E+03  0.20955201849E+03  0.16523793143E+03 0.  0.
         24    2    3    3    0    0 -0.28619358703E+02  0.68226947275E+02  0.84143269879E+02  0.13601110850E+03  0.77103487228E+02 0.  0.
         -6    2    1    2    0  502 -0.20269803524E+02 -0.30300827436E+02  0.38767931322E+03  0.42532238697E+03  0.17109902944E+03 0.  0.
        -24    2    5    5    0    0  0.28765110259E+02 -0.17174486723E+02  0.16975055423E+03  0.20151050706E+03  0.10329007325E+03 0.  0.
          5    1    3    3  501    0  0.48889162227E+02 -0.37926119839E+02  0.39466880952E+02  0.73540909985E+02  0.47000000000E+01 0. -1.
        -11    1    4    4    0    0 -0.14412976117E+02  0.83634123024E+02  0.74558143777E+02  0.11296600027E+03  0.00000000000E+00 0.  1.
         12    1    4    4    0    0 -0.14206382586E+02 -0.15407175750E+02  0.95851261023E+01  0.23045108226E+02  0.00000000000E+00 0. -1.
         -5    1    5    5    0  502 -0.49034913784E+02 -0.13126340713E+02  0.21792875900E+03  0.22381187991E+03  0.47000000000E+01 0.  1.
         13    1    6    6    0    0 -0.24170348981E+02  0.25086139915E+02  0.29067462993E+02  0.45370007610E+02  0.00000000000E+00 0. -1.
        -14    1    6    6    0    0  0.52935459240E+02 -0.42260626637E+02  0.14068309123E+03  0.15614049945E+03  0.00000000000E+00 0.  1.
</event>
<event>
12    1  0.1623092E-001  0.1748068E+03  0.7818608E-02  0.1172979E+00
         21   -1    0    0  501  502  0.00000000000E+00  0.00000000000E+00  0.36604370085E+02  0.36604370085E+02  0.00000000000E+00 0.  1.
         21   -1    0    0  502  503 -0.00000000000E+00 -0.00000000000E+00 -0.11363531757E+04  0.11363531757E+04  0.00000000000E+00 0.  1.
         -6    2    1    2    0  503 -0.12177896116E+02  0.21681566332E+02 -0.85273975390E+03  0.87047258490E+03  0.17302901984E+03 0.  0.
        -24    2    3    3    0    0  0.30292183105E+02 -0.93872139388E+01 -0.19032090173E+03  0.20595034867E+03  0.72026136495E+02 0.  0.
          6    2    1    2  501    0  0.12177896116E+02 -0.21681566332E+02 -0.24700905168E+03  0.30248496085E+03  0.17281576449E+03 0.  0.
         24    2    5    5    0    0 -0.26386318116E+02 -0.33208229427E+02 -0.54483955453E+02  0.10574130718E+03  0.80085568972E+02 0.  0.
          5    1    5    5  501    0  0.38564214232E+02  0.11526663095E+02 -0.19252509623E+03  0.19674365367E+03  0.47000000000E+01 0. -1.
        -13    1    6    6    0    0  0.19245035862E+02 -0.74343924588E+01 -0.48855181142E+02  0.53032728771E+02  0.00000000000E+00 0.  1.
         14    1    6    6    0    0 -0.45631353978E+02 -0.25773836968E+02 -0.56287743117E+01  0.52708578412E+02  0.00000000000E+00 0. -1.
         -5    1    3    3    0  503 -0.42470079221E+02  0.31068780271E+02 -0.66241885217E+03  0.66452223623E+03  0.47000000000E+01 0.  1.
         11    1    4    4    0    0  0.84220027209E+01  0.31070933129E+02 -0.90171927366E+02  0.95746067806E+02  0.00000000000E+00 0. -1.
        -12    1    4    4    0    0  0.21870180384E+02 -0.40458147068E+02 -0.10014897437E+03  0.11020428087E+03  0.00000000000E+00 0.  1.
</event>
<event>
12    1  0.1623092E-001  0.1784306E+03  0.7818608E-02  0.1169621E+00
         21   -1    0    0  501  502  0.00000000000E+00  0.00000000000E+00  0.77723132356E+03  0.77723132356E+03  0.00000000000E+00 0. -1.
         21   -1    0    0  502  503 -0.00000000000E+00 -0.00000000000E+00 -0.16338785672E+03  0.16338785672E+03  0.00000000000E+00 0. -1.
         -6    2    1    2    0  503  0.34593313523E+02  0.27720420896E+02 -0.10088894322E+03  0.20395108042E+03  0.17161685600E+03 0.  0.
        -24    2    3    3    0    0  0.51987884426E+02 -0.23135591172E+02 -0.11209332889E+03  0.14884633182E+03  0.79701445465E+02 0.  0.
          6    2    1    2  501    0 -0.34593313523E+02 -0.27720420896E+02  0.71473241006E+03  0.73666809985E+03  0.17283620070E+03 0.  0.
         24    2    5    5    0    0  0.11646611060E+02 -0.58079606121E+02  0.29127633866E+03  0.30958854619E+03  0.86569499650E+02 0.  0.
          5    1    5    5  501    0 -0.46239924582E+02  0.30359185225E+02  0.42345607140E+03  0.42707955367E+03  0.47000000000E+01 0. -1.
        -11    1    6    6    0    0 -0.26895465626E+02 -0.19730815265E+02  0.38094631261E+02  0.50634692387E+02  0.00000000000E+00 0.  1.
         12    1    6    6    0    0  0.38542076686E+02 -0.38348790857E+02  0.25318170740E+03  0.25895385380E+03  0.00000000000E+00 0. -1.
         -5    1    3    3    0  503 -0.17394570903E+02  0.50856012068E+02  0.11204385663E+02  0.55104748602E+02  0.47000000000E+01 0.  1.
         13    1    4    4    0    0  0.70374651535E+02 -0.31798958138E+01 -0.86374730269E+02  0.11145984634E+03  0.00000000000E+00 0. -1.
        -14    1    4    4    0    0 -0.18386767109E+02 -0.19955695358E+02 -0.25718598617E+02  0.37386485483E+02  0.00000000000E+00 0.  1.
</event>
<event>
12    1  0.1623092E-001  0.2624552E+03  0.7818608E-02  0.1105697E+00
         21   -1    0    0  501  502  0.00000000000E+00  0.00000000000E+00  0.18409456508E+03  0.18409456508E+03  0.00000000000E+00 0.  1.
         21   -1    0    0  502  503 -0.00000000000E+00 -0.00000000000E+00 -0.52356938753E+03  0.52356938753E+03  0.00000000000E+00 0.  1.
         -6    2    1    2    0  503  0.93846453058E+02 -0.17547854902E+03 -0.35883798170E+03  0.44449548109E+03  0.17091418222E+03 0.  0.
        -24    2    3    3    0    0  0.71370675613E+02 -0.19559600960E+03 -0.34488298420E+03  0.41092905817E+03  0.81036076843E+02 0.  0.
          6    2    1    2  501    0 -0.93846453058E+02  0.17547854902E+03  0.19363159242E+02  0.26316847152E+03  0.17112227952E+03 0.  0.
         24    2    5    5    0    0 -0.51518177831E+02  0.19389502575E+03  0.17538370917E+02  0.21673282410E+03  0.80100679955E+02 0.  0.
          5    1    5    5  501    0 -0.42328275227E+02 -0.18416476733E+02  0.18247883244E+01  0.46435647421E+02  0.47000000000E+01 0. -1.
        -13    1    6    6    0    0 -0.77538126203E+01  0.12468412497E+03 -0.20235688438E+02  0.12655329200E+03  0.00000000000E+00 0.  1.
         14    1    6    6    0    0 -0.43764365211E+02  0.69210900781E+02  0.37774059355E+02  0.90179532097E+02  0.00000000000E+00 0. -1.
         -5    1    3    3    0  503  0.22475777445E+02  0.20117460586E+02 -0.13954997496E+02  0.33566422915E+02  0.47000000000E+01 0.  1.
         13    1    4    4    0    0  0.43920108947E+01 -0.12275864428E+03 -0.21541451412E+03  0.24797658639E+03  0.00000000000E+00 0. -1.
        -14    1    4    4    0    0  0.66978664719E+02 -0.72837365325E+02 -0.12946847008E+03  0.16295247178E+03  0.00000000000E+00 0.  1.
</event>
<event>
12    1  0.1623092E-001  0.2360780E+03  0.7818608E-02  0.1122439E+00
         21   -1    0    0  501  502  0.00000000000E+00  0.00000000000E+00  0.81901109188E+03  0.81901109188E+03  0.00000000000E+00 0. -1.
         21   -1    0    0  502  503 -0.00000000000E+00 -0.00000000000E+00 -0.98568949169E+02  0.98568949169E+02  0.00000000000E+00 0. -1.
         -6    2    1    2    0  503  0.11089764435E+03  0.11736136522E+03  0.10487229855E+03  0.25829324566E+03  0.17217788529E+03 0.  0.
        -24    2    3    3    0    0  0.65453614840E+01  0.92972814625E+02  0.86162626750E+02  0.14940641378E+03  0.78813020577E+02 0.  0.
          6    2    1    2  501    0 -0.11089764435E+03 -0.11736136522E+03  0.61556984416E+03  0.65928679539E+03  0.17222330844E+03 0.  0.
         24    2    5    5    0    0 -0.66229379511E+02 -0.64332941989E+02  0.55159159381E+03  0.56482741750E+03  0.79067484235E+02 0.  0.
          5    1    5    5  501    0 -0.44668264835E+02 -0.53028423228E+02  0.63978250348E+02  0.94459377888E+02  0.47000000000E+01 0. -1.
        -11    1    6    6    0    0  0.89182866597E+01 -0.18583337994E+02  0.33608560102E+02  0.39426026937E+02  0.00000000000E+00 0.  1.
         12    1    6    6    0    0 -0.75147666170E+02 -0.45749603996E+02  0.51798303371E+03  0.52540139057E+03  0.00000000000E+00 0. -1.
         -5    1    3    3    0  503  0.10435228286E+03  0.24388550592E+02  0.18709671798E+02  0.10888683188E+03  0.47000000000E+01 0.  1.
         11    1    4    4    0    0  0.87032138008E+01  0.90046824109E+02  0.33271851237E+02  0.96390832278E+02  0.00000000000E+00 0. -1.
        -12    1    4    4    0    0 -0.21578523169E+01  0.29259905167E+01  0.52890775514E+02  0.53015581498E+02  0.00000000000E+00 0.  1.
</event>
<event>
12    1  0.1623092E-001  0.1862645E+03  0.7818608E-02  0.1162211E+00
         21   -1    0    0  501  502  0.00000000000E+00  0.00000000000E+00  0.67483367014E+03  0.67483367014E+03  0.00000000000E+00 0.  1.
         21   -1    0    0  502  503 -0.00000000000E+00 -0.00000000000E+00 -0.87716557576E+02  0.87716557576E+02  0.00000000000E+00 0.  1.
         -6    2    1    2    0  503  0.71228711949E+02  0.98926120131E+01  0.47591579084E+02  0.19224833457E+03  0.17182278827E+03 0.  0.
        -24    2    3    3    0    0  0.12664323741E+02  0.66394465406E+02  0.30627005561E+02  0.10898889812E+03  0.79824534522E+02 0.  0.
          6    2    1    2  501    0 -0.71228711949E+02 -0.98926120131E+01  0.53952553349E+03  0.57030189315E+03  0.17024997759E+03 0.  0.
         24    2    5    5    0    0 -0.11383371399E+03 -0.36732258389E+02  0.33929181297E+03  0.36378025834E+03  0.53942272441E+02 0.  0.
          5    1    5    5  501    0  0.42605002041E+02  0.26839646376E+02  0.20023372051E+03  0.20652163481E+03  0.47000000000E+01 0. -1.
        -11    1    6    6    0    0 -0.91407924713E+02 -0.74225691087E+01  0.27183607011E+03  0.28688909398E+03  0.00000000000E+00 0.  1.
         12    1    6    6    0    0 -0.22425789277E+02 -0.29309689281E+02  0.67455742867E+02  0.76891164357E+02  0.00000000000E+00 0. -1.
         -5    1    3    3    0  503  0.58564388208E+02 -0.56501853393E+02  0.16964573523E+02  0.83259436450E+02  0.47000000000E+01 0.  1.
         13    1    4    4    0    0 -0.15341293782E+01  0.36305553584E+02  0.56269755319E+02  0.66983073516E+02  0.00000000000E+00 0. -1.
        -14    1    4    4    0    0  0.14198453119E+02  0.30088911823E+02 -0.25642749758E+02  0.42005824606E+02  0.00000000000E+00 0.  1.
</event>
<event>
12    1  0.1623092E-001  0.1938836E+03  0.7818608E-02  0.1155199E+00
         21   -1    0    0  503  502  0.00000000000E+00  0.00000000000E+00  0.22223622899E+03  0.22223622899E+03  0.00000000000E+00 0.  1.
         21   -1    0    0  501  503 -0.00000000000E+00 -0.00000000000E+00 -0.18792706634E+03  0.18792706634E+03  0.00000000000E+00 0.  1.
          6    2    1    2  501    0 -0.73129858119E+02  0.48216575823E+02  0.83261629381E+02  0.21019530543E+03  0.17197893233E+03 0.  0.
         24    2    3    3    0    0 -0.91397716502E+02 -0.18681747691E+02  0.64038400249E+02  0.13807926784E+03  0.79135435953E+02 0.  0.
         -6    2    1    2    0  502  0.73129858119E+02 -0.48216575823E+02 -0.48952466735E+02  0.19996798990E+03  0.17296831691E+03 0.  0.
        -24    2    5    5    0    0  0.29778477390E+02  0.24600171955E+02 -0.41946949250E+02  0.11480468652E+03  0.99642577841E+02 0.  0.
          5    1    3    3  501    0  0.18267858383E+02  0.66898323515E+02  0.19223229132E+02  0.72116037587E+02  0.47000000000E+01 0. -1.
        -11    1    4    4    0    0 -0.74792819268E+02  0.27107058335E+01  0.72845859387E+01  0.75195604476E+02  0.00000000000E+00 0.  1.
         12    1    4    4    0    0 -0.16604897234E+02 -0.21392453525E+02  0.56753814310E+02  0.62883663369E+02  0.00000000000E+00 0. -1.
         -5    1    5    5    0  502  0.43351380729E+02 -0.72816747779E+02 -0.70055174847E+01  0.85163303385E+02  0.47000000000E+01 0.  1.
         11    1    6    6    0    0 -0.59182441909E+01 -0.31397764653E+02 -0.35995904120E+02  0.48130555294E+02  0.00000000000E+00 0. -1.
        -12    1    6    6    0    0  0.35696721581E+02  0.55997936609E+02 -0.59510451303E+01  0.66674131222E+02  0.00000000000E+00 0.  1.
</event>
<event>
12    1  0.1623092E-001  0.2803413E+03  0.7818608E-02  0.1095606E+00
         21   -1    0    0  503  502  0.00000000000E+00  0.00000000000E+00  0.48994433317E+02  0.48994433317E+02  0.00000000000E+00 0. -1.
         21   -1    0    0  501  503 -0.00000000000E+00 -0.00000000000E+00 -0.20887201520E+04  0.20887201520E+04  0.00000000000E+00 0.  1.
          6    2    1    2  501    0  0.18737850772E+03  0.11846670629E+03 -0.50164448388E+03  0.57429361845E+03  0.17035523569E+03 0.  0.
         24    2    3    3    0    0  0.10736905077E+03  0.74219902185E+02 -0.16786320376E+03  0.22818478321E+03  0.82786068666E+02 0.  0.
         -6    2    1    2    0  502 -0.18737850772E+03 -0.11846670629E+03 -0.15380812348E+04  0.15634209668E+04  0.17159886111E+03 0.  0.
        -24    2    5    5    0    0 -0.18235565090E+03 -0.61154792454E+02 -0.13696926545E+04  0.13854134150E+04  0.79491323503E+02 0.  0.
          5    1    3    3  501    0  0.80009456951E+02  0.44246804105E+02 -0.33378128012E+03  0.34610883524E+03  0.47000000000E+01 0. -1.
        -13    1    4    4    0    0  0.10051373852E+03  0.66864079909E+02 -0.17723224623E+03  0.21444133444E+03  0.00000000000E+00 0.  1.
         14    1    4    4    0    0  0.68553122522E+01  0.73558222755E+01  0.93690424612E+01  0.13743448769E+02  0.00000000000E+00 0. -1.
         -5    1    5    5    0  502 -0.50228568206E+01 -0.57311913836E+02 -0.16838858025E+03  0.17800755185E+03  0.47000000000E+01 0.  1.
         13    1    6    6    0    0 -0.10292758538E+03 -0.13357162226E+02 -0.49135335205E+03  0.50219579666E+03  0.00000000000E+00 0. -1.
        -14    1    6    6    0    0 -0.79428065525E+02 -0.47797630228E+02 -0.87833930247E+03  0.88321761832E+03  0.00000000000E+00 0.  1.
</event>
<event>
12    1  0.1623092E-001  0.1975064E+03  0.7818608E-02  0.1153230E+00
         21   -1    0    0  503  502  0.00000000000E+00  0.00000000000E+00  0.40249865840E+03  0.40249865840E+03  0.00000000000E+00 0. -1.
         21   -1    0    0  501  503 -0.00000000000E+00 -0.00000000000E+00 -0.22941021975E+03  0.22941021975E+03  0.00000000000E+00 0. -1.
          6    2    1    2  501    0 -0.91466161338E+02 -0.35664919053E+02 -0.15688311185E+03  0.24734420225E+03  0.16409996491E+03 0.  0.
         24    2    3    3    0    0 -0.12792010388E+02 -0.32032717280E+02 -0.14187925949E+03  0.16703218259E+03  0.81119018977E+02 0.  0.
         -6    2    1    2    0  502  0.91466161338E+02  0.35664919053E+02  0.32997155050E+03  0.38456467590E+03  0.17137888054E+03 0.  0.
        -24    2    5    5    0    0  0.59363920710E+02 -0.26268253032E+02  0.10115082723E+03  0.14530062709E+03  0.81649777611E+02 0.  0.
          5    1    3    3  501    0 -0.78674150950E+02 -0.36322017733E+01 -0.15003852359E+02  0.80312019668E+02  0.47000000000E+01 0. -1.
        -11    1    4    4    0    0  0.25335387399E+02 -0.28585256386E+01 -0.11264219069E+02  0.27873565518E+02  0.00000000000E+00 0.  1.
         12    1    4    4    0    0 -0.38127397786E+02 -0.29174191641E+02 -0.13061504042E+03  0.13915861707E+03  0.00000000000E+00 0. -1.
         -5    1    5    5    0  502  0.32102240628E+02  0.61933172085E+02  0.22882072327E+03  0.23926404881E+03  0.47000000000E+01 0.  1.
         13    1    6    6    0    0  0.45284653430E+02  0.20408840071E+02  0.75052486425E+02  0.90000535042E+02  0.00000000000E+00 0. -1.
        -14    1    6    6    0    0  0.14079267280E+02 -0.46677093103E+02  0.26098340806E+02  0.55300092048E+02  0.00000000000E+00 0.  1.
</event>
<event>
12    1  0.1623092E-001  0.1778283E+03  0.7818608E-02  0.1170028E+00
         21   -1    0    0  503  502  0.00000000000E+00  0.00000000000E+00  0.30142325594E+02  0.30142325594E+02  0.00000000000E+00 0. -1.
         21   -1    0    0  501  503 -0.00000000000E+00 -0.00000000000E+00 -0.11059228664E+04  0.11059228664E+04  0.00000000000E+00 0. -1.
          6    2    1    2  501    0  0.43066804701E+02 -0.88564318910E+01 -0.67008944805E+03  0.69328404869E+03  0.17230704495E+03 0.  0.
         24    2    3    3    0    0  0.82469162708E+02 -0.43499311980E+02 -0.40641046060E+03  0.42439490169E+03  0.79045664985E+02 0.  0.
         -6    2    1    2    0  502 -0.43066804701E+02  0.88564318910E+01 -0.40569109272E+03  0.44278114326E+03  0.17186242190E+03 0.  0.
        -24    2    5    5    0    0  0.15746824201E+02  0.41652681589E+02 -0.12764960868E+03  0.15666264720E+03  0.79157147979E+02 0.  0.
          5    1    3    3  501    0 -0.39402358007E+02  0.34642880089E+02 -0.26367898745E+03  0.26888914701E+03  0.47000000000E+01 0. -1.
        -13    1    4    4    0    0  0.28441826610E+02  0.38087517489E+01 -0.31263357499E+02  0.42436324216E+02  0.00000000000E+00 0.  1.
         14    1    4    4    0    0  0.54027336098E+02 -0.47308063728E+02 -0.37514710310E+03  0.38195857747E+03  0.00000000000E+00 0. -1.
         -5    1    5    5    0  502 -0.58813628902E+02 -0.32796249698E+02 -0.27804148404E+03  0.28611849606E+03  0.47000000000E+01 0.  1.
         13    1    6    6    0    0  0.25431597748E+02 -0.14017192533E+02 -0.20562583683E+02  0.35581845065E+02  0.00000000000E+00 0. -1.
        -14    1    6    6    0    0 -0.96847735470E+01  0.55669874122E+02 -0.10708702500E+03  0.12108080214E+03  0.00000000000E+00 0.  1.
</event>
<event>
12    1  0.1623092E-001  0.1840348E+03  0.7818608E-02  0.1164632E+00
         21   -1    0    0  503  502  0.00000000000E+00  0.00000000000E+00  0.65372891239E+03  0.65372891239E+03  0.00000000000E+00 0. -1.
         21   -1    0    0  501  503 -0.00000000000E+00 -0.00000000000E+00 -0.13491165131E+03  0.13491165131E+03  0.00000000000E+00 0. -1.
          6    2    1    2  501    0 -0.52095750836E+02  0.12060921785E+02 -0.50789595490E+02  0.19091463807E+03  0.17609481233E+03 0.  0.
         24    2    3    3    0    0  0.53839327966E+00 -0.11575499161E+02  0.33667075348E+02  0.88522974490E+02  0.81046671751E+02 0.  0.
         -6    2    1    2    0  502  0.52095750836E+02 -0.12060921785E+02  0.56960685657E+03  0.59772592564E+03  0.17310366268E+03 0.  0.
        -24    2    5    5    0    0  0.29118228899E+02  0.50144748196E+02  0.21463994396E+03  0.23658729444E+03  0.80875678182E+02 0.  0.
          5    1    3    3  501    0 -0.52634144116E+02  0.23636420946E+02 -0.84456670837E+02  0.10239166358E+03  0.47000000000E+01 0. -1.
        -11    1    4    4    0    0  0.15873619701E+01  0.28588361809E+02  0.38582279566E+02  0.48045878548E+02  0.00000000000E+00 0.  1.
         12    1    4    4    0    0 -0.10489686904E+01 -0.40163860970E+02 -0.49152042178E+01  0.40477095942E+02  0.00000000000E+00 0. -1.
         -5    1    5    5    0  502  0.22977521937E+02 -0.62205669980E+02  0.35496691261E+03  0.36113863120E+03  0.47000000000E+01 0.  1.
         13    1    6    6    0    0  0.21744148120E+02  0.39187487420E+02  0.36066689744E+02  0.57526283183E+02  0.00000000000E+00 0. -1.
        -14    1    6    6    0    0  0.73740807793E+01  0.10957260776E+02  0.17857325422E+03  0.17906101126E+03  0.00000000000E+00 0.  1.
</event>
<event>
12    1  0.1623092E-001  0.2820500E+03  0.7818608E-02  0.1094590E+00
         21   -1    0    0  501  502  0.00000000000E+00  0.00000000000E+00  0.23585637635E+03  0.23585637635E+03  0.00000000000E+00 0. -1.
         21   -1    0    0  502  503 -0.00000000000E+00 -0.00000000000E+00 -0.53260173566E+03  0.53260173566E+03  0.00000000000E+00 0. -1.
         -6    2    1    2    0  503 -0.97295983349E+02 -0.20125054195E+03 -0.38115094792E+03  0.47416054327E+03  0.17199967059E+03 0.  0.
        -24    2    3    3    0    0 -0.12828779977E+03 -0.11790738631E+03 -0.28305374033E+03  0.34167761450E+03  0.79147084740E+02 0.  0.
          6    2    1    2  501    0  0.97295983349E+02  0.20125054195E+03  0.84405588617E+02  0.29429756874E+03  0.17180939021E+03 0.  0.
         24    2    5    5    0    0  0.74687832888E+02  0.20020177621E+03  0.11530725032E+03  0.25570701195E+03  0.80195326599E+02 0.  0.
          5    1    5    5  501    0  0.22608150461E+02  0.10487657415E+01 -0.30901661701E+02  0.38590556782E+02  0.47000000000E+01 0. -1.
        -11    1    6    6    0    0 -0.48841165710E+01 -0.56206707917E+01  0.23516637048E+01  0.78087679571E+01  0.00000000000E+00 0.  1.
         12    1    6    6    0    0  0.79571949459E+02  0.20582244700E+03  0.11295558661E+03  0.24789824400E+03  0.00000000000E+00 0. -1.
         -5    1    3    3    0  503  0.30991816424E+02 -0.83343155644E+02 -0.98097207594E+02  0.13248292877E+03  0.47000000000E+01 0.  1.
         13    1    4    4    0    0 -0.44912162447E+02 -0.70443186128E+02 -0.19208930051E+03  0.20946991235E+03  0.00000000000E+00 0. -1.
        -14    1    4    4    0    0 -0.83375637326E+02 -0.47464200178E+02 -0.90964439810E+02  0.13220770215E+03  0.00000000000E+00 0.  1.
</event>
<event>
12    1  0.1623092E-001  0.1867795E+03  0.7818608E-02  0.1161865E+00
         21   -1    0    0  501  502  0.00000000000E+00  0.00000000000E+00  0.49812798234E+03  0.49812798234E+03  0.00000000000E+00 0. -1.
         21   -1    0    0  502  503 -0.00000000000E+00 -0.00000000000E+00 -0.30730434178E+03  0.30730434178E+03  0.00000000000E+00 0. -1.
         -6    2    1    2    0  503 -0.89326617100E+01 -0.65758203819E+02 -0.25912702639E+03  0.31825454790E+03  0.17243899687E+03 0.  0.
        -24    2    3    3    0    0 -0.51538540844E+02 -0.77992090043E+02 -0.11950848590E+03  0.17169276654E+03  0.80356335018E+02 0.  0.
          6    2    1    2  501    0  0.89326617100E+01  0.65758203819E+02  0.44995066694E+03  0.48717777622E+03  0.17459280956E+03 0.  0.
         24    2    5    5    0    0  0.13911572732E+02  0.11278576403E+03  0.32830111627E+03  0.35657500384E+03  0.80311580726E+02 0.  0.
          5    1    5    5  501    0 -0.49789110220E+01 -0.47027560210E+02  0.12164955067E+03  0.13060277238E+03  0.47000000000E+01 0. -1.
        -11    1    6    6    0    0 -0.22408484645E+02  0.42827635596E+02  0.20193915947E+03  0.20764337380E+03  0.00000000000E+00 0.  1.
         12    1    6    6    0    0  0.36320057377E+02  0.69958128433E+02  0.12636195680E+03  0.14893163004E+03  0.00000000000E+00 0. -1.
         -5    1    3    3    0  503  0.42605879134E+02  0.12233886225E+02 -0.13961854049E+03  0.14656178137E+03  0.47000000000E+01 0.  1.
         13    1    4    4    0    0 -0.17574755581E+02 -0.34632101229E+01 -0.77696114974E+02  0.79734259513E+02  0.00000000000E+00 0. -1.
        -14    1    4    4    0    0 -0.33963785263E+02 -0.74528879920E+02 -0.41812370923E+02  0.91958507022E+02  0.00000000000E+00 0.  1.
</event>
<event>
12    1  0.1623092E-001  0.2410218E+03  0.7818608E-02  0.1119118E+00
         21   -1    0    0  501  502  0.00000000000E+00  0.00000000000E+00  0.34040929495E+03  0.34040929495E+03  0.00000000000E+00 0.  1.
         21   -1    0    0  502  503 -0.00000000000E+00 -0.00000000000E+00 -0.52848584754E+03  0.52848584754E+03  0.00000000000E+00 0.  1.
         -6    2    1    2    0  503  0.84570181452E+02  0.14640697879E+03 -0.45153719764E+03  0.51183720875E+03  0.17176835673E+03 0.  0.
        -24    2    3    3    0    0  0.12492065870E+03  0.10231480442E+03 -0.34200000701E+03  0.38696620737E+03  0.81886205626E+02 0.  0.
          6    2    1    2  501    0 -0.84570181452E+02 -0.14640697879E+03  0.26346064505E+03  0.35705793374E+03  0.17173158571E+03 0.  0.
         24    2    5    5    0    0 -0.18288067086E+02 -0.13432831287E+03  0.23863436443E+03  0.28510206487E+03  0.77189885823E+02 0.  0.
          5    1    5    5  501    0 -0.66282114365E+02 -0.12078665922E+02  0.24826280615E+02  0.71955868867E+02  0.47000000000E+01 0. -1.
        -13    1    6    6    0    0 -0.22398354703E+02 -0.75282186290E+02  0.65963762875E+02  0.10256857159E+03  0.00000000000E+00 0.  1.
         14    1    6    6    0    0  0.41102876164E+01 -0.59046126575E+02  0.17267060156E+03  0.18253349328E+03  0.00000000000E+00 0. -1.
         -5    1    3    3    0  503 -0.40350477252E+02  0.44092174368E+02 -0.10953719063E+03  0.12487100138E+03  0.47000000000E+01 0.  1.
         13    1    4    4    0    0  0.60436274805E+02  0.91589580073E+01 -0.17319251418E+03  0.18366294343E+03  0.00000000000E+00 0. -1.
        -14    1    4    4    0    0  0.64484383899E+02  0.93155846412E+02 -0.16880749284E+03  0.20330326393E+03  0.00000000000E+00 0.  1.
</event>
<event>
12    1  0.1623092E-001  0.2347933E+03  0.7818608E-02  0.1123386E+00
         21   -1    0    0  501  502  0.00000000000E+00  0.00000000000E+00  0.36399090892E+03  0.36399090892E+03  0.00000000000E+00 0.  1.
         21   -1    0    0  502  503 -0.00000000000E+00 -0.00000000000E+00 -0.15544303258E+03  0.15544303258E+03  0.00000000000E+00 0.  1.
         -6    2    1    2    0  503 -0.12864516268E+03 -0.96003107876E+02  0.61128797892E+02  0.24219707324E+03  0.17075279720E+03 0.  0.
        -24    2    3    3    0    0 -0.13592205417E+03 -0.41564295130E+02  0.84115167247E+01  0.16592296743E+03  0.85189682873E+02 0.  0.
          6    2    1    2  501    0  0.12864516268E+03  0.96003107876E+02  0.14741907844E+03  0.27723686826E+03  0.17135262424E+03 0.  0.
         24    2    5    5    0    0  0.13004707705E+03  0.23571576153E+02  0.12552470296E+03  0.20140978979E+03  0.85683084205E+02 0.  0.
          5    1    5    5  501    0 -0.14019143699E+01  0.72431531723E+02  0.21894375479E+02  0.75827078470E+02  0.47000000000E+01 0. -1.
        -13    1    6    6    0    0  0.77543042278E+02  0.35973393741E+02  0.11978294342E+03  0.14715625028E+03  0.00000000000E+00 0.  1.
         14    1    6    6    0    0  0.52504034768E+02 -0.12401817588E+02  0.57417595430E+01  0.54253539507E+02  0.00000000000E+00 0. -1.
         -5    1    3    3    0  503  0.72768914967E+01 -0.54438812746E+02  0.52717281167E+02  0.76274105807E+02  0.47000000000E+01 0.  1.
         11    1    4    4    0    0 -0.44736400675E+02  0.26171061633E+02  0.71890555164E+01  0.52325448221E+02  0.00000000000E+00 0. -1.
        -12    1    4    4    0    0 -0.91185653498E+02 -0.67735356763E+02  0.12224612082E+01  0.11359751921E+03  0.00000000000E+00 0.  1.
</event>
<event>
12    1  0.1623092E-001  0.1766746E+03  0.7818608E-02  0.1171392E+00
         21   -1    0    0  501  502  0.00000000000E+00  0.00000000000E+00  0.44305463059E+03  0.44305463059E+03  0.00000000000E+00 0. -1.
         21   -1    0    0  502  503 -0.00000000000E+00 -0.00000000000E+00 -0.77397587332E+02  0.77397587332E+02  0.00000000000E+00 0. -1.
         -6    2    1    2    0  503  0.34815039309E+02  0.66248614226E+01  0.10257984094E+03  0.20429523901E+03  0.17308363633E+03 0.  0.
        -24    2    3    3    0    0  0.35178294169E+02 -0.18125881641E+02  0.13601528344E+03  0.16242938118E+03  0.79480101757E+02 0.  0.
          6    2    1    2  501    0 -0.34815039309E+02 -0.66248614226E+01  0.26307720232E+03  0.31615697891E+03  0.17172549369E+03 0.  0.
         24    2    5    5    0    0 -0.36672241437E+02  0.56400716097E+02  0.20783700089E+03  0.23219721191E+03  0.78698362184E+02 0.  0.
          5    1    5    5  501    0  0.18572021285E+01 -0.63025577520E+02  0.55240201428E+02  0.83959767003E+02  0.47000000000E+01 0. -1.
        -11    1    6    6    0    0  0.19694109099E+02  0.15231916765E+02  0.20406124957E+02  0.32191290085E+02  0.00000000000E+00 0.  1.
         12    1    6    6    0    0 -0.56366350536E+02  0.41168799331E+02  0.18743087594E+03  0.20000592183E+03  0.00000000000E+00 0. -1.
         -5    1    3    3    0  503 -0.36325486005E+00  0.24750743063E+02 -0.33435442504E+02  0.41865857828E+02  0.47000000000E+01 0.  1.
         13    1    4    4    0    0  0.37675087135E+02 -0.20825142241E+02  0.21979297910E+02  0.48334131590E+02  0.00000000000E+00 0. -1.
        -14    1    4    4    0    0 -0.24967929663E+01  0.26992606001E+01  0.11403598553E+03  0.11409524959E+03  0.00000000000E+00 0.  1.
</event>
<event>
12    1  0.1623092E-001  0.2787418E+03  0.7818608E-02  0.1096400E+00
         21   -1    0    0  503  502  0.00000000000E+00  0.00000000000E+00  0.32175971029E+03  0.32175971029E+03  0.00000000000E+00 0.  1.
         21   -1    0    0  501  503 -0.00000000000E+00 -0.00000000000E+00 -0.25439997937E+03  0.25439997937E+03  0.00000000000E+00 0. -1.
          6    2    1    2  501    0 -0.21882205360E+03  0.33777781837E+01 -0.31596125951E+02  0.28052684441E+03  0.17263399066E+03 0.  0.
         24    2    3    3    0    0 -0.12874781590E+03  0.57857685080E+02 -0.57413757911E+02  0.17203689707E+03  0.79855134686E+02 0.  0.
         -6    2    1    2    0  502  0.21882205360E+03 -0.33777781837E+01  0.98955856873E+02  0.29563284525E+03  0.17237174087E+03 0.  0.
        -24    2    5    5    0    0  0.23977924796E+03  0.70753183242E+01  0.80100932348E+02  0.26520145683E+03  0.79821710447E+02 0.  0.
          5    1    3    3  501    0 -0.90074237706E+02 -0.54479906896E+02  0.25817631960E+02  0.10848994734E+03  0.47000000000E+01 0. -1.
        -13    1    4    4    0    0 -0.10719536976E+03  0.56191069463E+02 -0.11854318020E+02  0.12160924488E+03  0.00000000000E+00 0.  1.
         14    1    4    4    0    0 -0.21552446138E+02  0.16666156171E+01 -0.45559439892E+02  0.50427652190E+02  0.00000000000E+00 0. -1.
         -5    1    5    5    0  502 -0.20957194361E+02 -0.10453096508E+02  0.18854924526E+02  0.30431388417E+02  0.47000000000E+01 0.  1.
         11    1    6    6    0    0  0.15941107196E+02  0.22437341864E+02  0.16101299878E+02  0.31887380989E+02  0.00000000000E+00 0. -1.
        -12    1    6    6    0    0  0.22383814077E+03 -0.15362023540E+02  0.63999632469E+02  0.23331407584E+03  0.00000000000E+00 0.  1.
</event>
<event>
12    1  0.1623092E-001  0.1817376E+03  0.7818608E-02  0.1167633E+00
         21   -1    0    0  503  502  0.00000000000E+00  0.00000000000E+00  0.60710465221E+03  0.60710465221E+03  0.00000000000E+00 0. -1.
         21   -1    0    0  501  503 -0.00000000000E+00 -0.00000000000E+00 -0.89611357868E+02  0.89611357868E+02  0.00000000000E+00 0. -1.
          6    2    1    2  501    0  0.51571577518E+02  0.31308632002E+02  0.37426903268E+02  0.18555138219E+03  0.17143128156E+03 0.  0.
         24    2    3    3    0    0  0.41613585600E+02 -0.46600062044E+02  0.28148108248E+02  0.10632315333E+03  0.81296006342E+02 0.  0.
         -6    2    1    2    0  502 -0.51571577518E+02 -0.31308632002E+02  0.48006639108E+03  0.51116462789E+03  0.16488080216E+03 0.  0.
        -24    2    5    5    0    0 -0.97076193870E+02 -0.15858275104E+02  0.37040416525E+03  0.39134277091E+03  0.79212665669E+02 0.  0.
          5    1    3    3  501    0  0.99579919184E+01  0.77908694046E+02  0.92787950199E+01  0.79228228858E+02  0.47000000000E+01 0. -1.
        -11    1    4    4    0    0 -0.17486074298E+02 -0.26897838818E+02  0.30105125631E+02  0.43995171515E+02  0.00000000000E+00 0.  1.
         12    1    4    4    0    0  0.59099659897E+02 -0.19702223226E+02 -0.19570173826E+01  0.62327981815E+02  0.00000000000E+00 0. -1.
         -5    1    5    5    0  502  0.45504616352E+02 -0.15450356898E+02  0.10966222583E+03  0.11982185698E+03  0.47000000000E+01 0.  1.
         13    1    6    6    0    0 -0.81389266682E+02 -0.40166922219E+02  0.32557220486E+03  0.33798647154E+03  0.00000000000E+00 0. -1.
        -14    1    6    6    0    0 -0.15686927188E+02  0.24308647115E+02  0.44831960393E+02  0.53356299364E+02  0.00000000000E+00 0.  1.
</event>
<event>
12    1  0.1623092E-001  0.1976479E+03  0.7818608E-02  0.1151781E+00
         21   -1    0    0  501  502  0.00000000000E+00  0.00000000000E+00  0.20316331642E+03  0.20316331642E+03  0.00000000000E+00 0. -1.
         21   -1    0    0  502  503 -0.00000000000E+00 -0.00000000000E+00 -0.21483425350E+03  0.21483425350E+03  0.00000000000E+00 0.  1.
         -6    2    1    2    0  503  0.56120865822E+02  0.79532294179E+02 -0.73836901228E+02  0.21080370939E+03  0.17178876131E+03 0.  0.
        -24    2    3    3    0    0  0.63844263399E+02  0.11473944371E+03 -0.64950290863E+02  0.17338371350E+03  0.92747732656E+02 0.  0.
          6    2    1    2  501    0 -0.56120865822E+02 -0.79532294179E+02  0.62165964141E+02  0.20719386053E+03  0.17201671822E+03 0.  0.
         24    2    5    5    0    0 -0.20696652773E+02 -0.73197243872E+02  0.10430378889E+03  0.15158186536E+03  0.79445538470E+02 0.  0.
          5    1    5    5  501    0 -0.35424213049E+02 -0.63350503065E+01 -0.42137824747E+02  0.55611995171E+02  0.47000000000E+01 0. -1.
        -13    1    6    6    0    0  0.14262140059E+02  0.11153589323E+02  0.11842005971E+02  0.21634331495E+02  0.00000000000E+00 0.  1.
         14    1    6    6    0    0 -0.34958792832E+02 -0.84350833195E+02  0.92461782917E+02  0.12994753386E+03  0.00000000000E+00 0. -1.
         -5    1    3    3    0  503 -0.77233975775E+01 -0.35207149535E+02 -0.88866103644E+01  0.37419995889E+02  0.47000000000E+01 0.  1.
         11    1    4    4    0    0  0.84072605720E+02  0.10021929011E+03 -0.36988754456E+02  0.13594218293E+03  0.00000000000E+00 0. -1.
        -12    1    4    4    0    0 -0.20228342321E+02  0.14520153602E+02 -0.27961536407E+02  0.37441530577E+02  0.00000000000E+00 0.  1.
</event>
<event>
12    1  0.1623092E-001  0.2077070E+03  0.7818608E-02  0.1143607E+00
         21   -1    0    0  503  502  0.00000000000E+00  0.00000000000E+00  0.91603327282E+02  0.91603327282E+02  0.00000000000E+00 0.  1.
         21   -1    0    0  501  503 -0.00000000000E+00 -0.00000000000E+00 -0.48279539166E+03  0.48279539166E+03  0.00000000000E+00 0. -1.
          6    2    1    2  501    0 -0.85663539951E+01 -0.11579836527E+03 -0.24438942680E+03  0.32005007662E+03  0.17094799148E+03 0.  0.
         24    2    3    3    0    0  0.28207830157E+02 -0.12076604467E+03 -0.24057255549E+03  0.28245118082E+03  0.80767542155E+02 0.  0.
         -6    2    1    2    0  502  0.85663539951E+01  0.11579836527E+03 -0.14680263758E+03  0.25434864233E+03  0.17221955067E+03 0.  0.
        -24    2    5    5    0    0 -0.38038479122E+02  0.25707004089E+02 -0.11675411586E+03  0.14845498110E+03  0.79369905448E+02 0.  0.
          5    1    3    3  501    0 -0.36774184152E+02  0.49676793940E+01 -0.38168713101E+01  0.37598895798E+02  0.47000000000E+01 0. -1.
        -13    1    4    4    0    0 -0.26623693964E+02 -0.56623382369E+02 -0.11923932403E+03  0.13465899490E+03  0.00000000000E+00 0.  1.
         14    1    4    4    0    0  0.54831524122E+02 -0.64142662298E+02 -0.12133323146E+03  0.14779218592E+03  0.00000000000E+00 0. -1.
         -5    1    5    5    0  502  0.46604833117E+02  0.90091361184E+02 -0.30048521724E+02  0.10589366123E+03  0.47000000000E+01 0.  1.
         11    1    6    6    0    0 -0.13641971311E+01 -0.26926495068E+02 -0.42469468693E+02  0.50304601594E+02  0.00000000000E+00 0. -1.
        -12    1    6    6    0    0 -0.36674281991E+02  0.52633499156E+02 -0.74284647165E+02  0.98150379507E+02  0.00000000000E+00 0.  1.
</event>
<event>
12    1  0.1623092E-001  0.1779642E+03  0.7818608E-02  0.1170300E+00
         21   -1    0    0  503  502  0.00000000000E+00  0.00000000000E+00  0.15187164899E+03  0.15187164899E+03  0.00000000000E+00 0. -1.
         21   -1    0    0  501  503 -0.00000000000E+00 -0.00000000000E+00 -0.44499989728E+03  0.44499989728E+03  0.00000000000E+00 0. -1.
          6    2    1    2  501    0 -0.50455122928E+01  0.47360277028E+02 -0.36561691008E+03  0.40662882180E+03  0.17147250728E+03 0.  0.
         24    2    3    3    0    0  0.14624330007E+02  0.47367061191E+02 -0.91540443104E+02  0.13180723879E+03  0.80845444889E+02 0.  0.
         -6    2    1    2    0  502  0.50455122928E+01 -0.47360277028E+02  0.72488661781E+02  0.19024272447E+03  0.16931991936E+03 0.  0.
        -24    2    5    5    0    0  0.50740485361E+02  0.70549147445E+01  0.93440757513E+01  0.95067242311E+02  0.79536784774E+02 0.  0.
          5    1    3    3  501    0 -0.19669842300E+02 -0.67841636690E-02 -0.27407646697E+03  0.27482158301E+03  0.47000000000E+01 0. -1.
        -11    1    4    4    0    0 -0.31876431863E+02  0.12170523371E+02 -0.20158247327E+02  0.39630587716E+02  0.00000000000E+00 0.  1.
         12    1    4    4    0    0  0.46500761870E+02  0.35196537820E+02 -0.71382195777E+02  0.92176651073E+02  0.00000000000E+00 0. -1.
         -5    1    5    5    0  502 -0.45694973068E+02 -0.54415191772E+02  0.63144586030E+02  0.95175482159E+02  0.47000000000E+01 0.  1.
         13    1    6    6    0    0  0.49328396258E+02 -0.29396952673E+02  0.11343447933E+02  0.58533283821E+02  0.00000000000E+00 0. -1.
        -14    1    6    6    0    0  0.14120891029E+01  0.36451867417E+02 -0.19993721815E+01  0.36533958490E+02  0.00000000000E+00 0.  1.
</event>
<event>
12    1  0.1623092E-001  0.2270174E+03  0.7818608E-02  0.1128905E+00
         21   -1    0    0  501  502  0.00000000000E+00  0.00000000000E+00  0.27716552351E+03  0.27716552351E+03  0.00000000000E+00 0. -1.
         21   -1    0    0  502  503 -0.00000000000E+00 -0.00000000000E+00 -0.30885904912E+03  0.30885904912E+03  0.00000000000E+00 0. -1.
         -6    2    1    2    0  503 -0.69394610170E+02 -0.13076873873E+03 -0.20121703149E+03  0.30335652594E+03  0.17210698160E+03 0.  0.
        -24    2    3    3    0    0 -0.65125174241E+02 -0.16167012719E+03 -0.15203454240E+03  0.24492595923E+03  0.80595937091E+02 0.  0.
          6    2    1    2  501    0  0.69394610170E+02  0.13076873873E+03  0.16952350588E+03  0.28266804669E+03  0.17101734014E+03 0.  0.
         24    2    5    5    0    0  0.17620902779E+02  0.35851570907E+02  0.46670957754E+01  0.85463808718E+02  0.75408550353E+02 0.  0.
          5    1    5    5  501    0  0.51773707391E+02  0.94917167818E+02  0.16485641010E+03  0.19720423798E+03  0.47000000000E+01 0. -1.
        -11    1    6    6    0    0 -0.28948532536E+02  0.90642422893E+01  0.87885508776E+01  0.31581903850E+02  0.00000000000E+00 0.  1.
         12    1    6    6    0    0  0.46569435315E+02  0.26787328618E+02 -0.41214551023E+01  0.53881904868E+02  0.00000000000E+00 0. -1.
         -5    1    3    3    0  503 -0.42694359295E+01  0.30901388466E+02 -0.49182489092E+02  0.58430566706E+02  0.47000000000E+01 0.  1.
         11    1    4    4    0    0 -0.50353357850E+02 -0.13341588890E+03 -0.15762370638E+03  0.21255703440E+03  0.00000000000E+00 0. -1.
        -12    1    4    4    0    0 -0.14771816391E+02 -0.28254238288E+02  0.55891639814E+01  0.32368924831E+02  0.00000000000E+00 0.  1.
</event>
<event>
12    1  0.1623092E-001  0.1942167E+03  0.7818608E-02  0.1155418E+00
         21   -1    0    0  501  502  0.00000000000E+00  0.00000000000E+00  0.17191967084E+03  0.17191967084E+03  0.00000000000E+00 0. -1.
         21   -1    0    0  502  503 -0.00000000000E+00 -0.00000000000E+00 -0.48428778835E+03  0.48428778835E+03  0.00000000000E+00 0. -1.
         -6    2    1    2    0  503  0.19334759028E+02 -0.79390474213E+02 -0.39989577953E+03  0.44317875536E+03  0.17266758358E+03 0.  0.
        -24    2    3    3    0    0 -0.92098435852E+00  0.21959974294E+02 -0.19525358929E+03  0.21386952184E+03  0.84457797501E+02 0.  0.
          6    2    1    2  501    0 -0.19334759028E+02  0.79390474213E+02  0.87527662015E+02  0.21302870382E+03  0.17619153422E+03 0.  0.
         24    2    5    5    0    0 -0.25435909066E+02  0.11103110909E+02  0.11165399755E+03  0.14019630660E+03  0.80113199123E+02 0.  0.
          5    1    5    5  501    0  0.61011500379E+01  0.68287363304E+02 -0.24126335534E+02  0.72832397222E+02  0.47000000000E+01 0. -1.
        -11    1    6    6    0    0 -0.36846250015E+02 -0.21404209530E+02  0.31620576654E+02  0.53062672320E+02  0.00000000000E+00 0.  1.
         12    1    6    6    0    0  0.11410340949E+02  0.32507320439E+02  0.80033420895E+02  0.87133634280E+02  0.00000000000E+00 0. -1.
         -5    1    3    3    0  503  0.20255743386E+02 -0.10135044851E+03 -0.20464219024E+03  0.22930923352E+03  0.47000000000E+01 0.  1.
         11    1    4    4    0    0  0.40137045811E-01 -0.30289967867E+02 -0.40799671364E+02  0.50814338014E+02  0.00000000000E+00 0. -1.
        -12    1    4    4    0    0 -0.96112140433E+00  0.52249942162E+02 -0.15445391793E+03  0.16305518383E+03  0.00000000000E+00 0.  1.
</event>
<event>
12    1  0.1623092E-001  0.2099124E+03  0.7818608E-02  0.1141655E+00
         21   -1    0    0  501  502  0.00000000000E+00  0.00000000000E+00  0.19442753501E+03  0.19442753501E+03  0.00000000000E+00 0. -1.
         21   -1    0    0  502  503 -0.00000000000E+00 -0.00000000000E+00 -0.23021793556E+03  0.23021793556E+03  0.00000000000E+00 0.  1.
         -6    2    1    2    0  503 -0.10625699638E+03 -0.56045479179E+02  0.90139076340E+01  0.21000476141E+03  0.17201483734E+03 0.  0.
        -24    2    3    3    0    0 -0.13371483750E+03 -0.76395577893E+02  0.51358292612E+00  0.17447442118E+03  0.82006815514E+02 0.  0.
          6    2    1    2  501    0  0.10625699638E+03  0.56045479179E+02 -0.44804308185E+02  0.21464070917E+03  0.17213820896E+03 0.  0.
         24    2    5    5    0    0  0.59518199468E+02  0.36451142237E+02 -0.96439967965E+02  0.14213702279E+03  0.77660569072E+02 0.  0.
          5    1    5    5  501    0  0.46738796915E+02  0.19594336942E+02  0.51635659780E+02  0.72503686376E+02  0.47000000000E+01 0. -1.
        -11    1    6    6    0    0  0.58497272697E+02  0.58043759558E+02 -0.81176254335E+02  0.11567451407E+03  0.00000000000E+00 0.  1.
         12    1    6    6    0    0  0.10209267705E+01 -0.21592617321E+02 -0.15263713630E+02  0.26462508725E+02  0.00000000000E+00 0. -1.
         -5    1    3    3    0  503  0.27457841116E+02  0.20350098714E+02  0.85003247078E+01  0.35530340225E+02  0.47000000000E+01 0.  1.
         13    1    4    4    0    0 -0.11398216474E+03 -0.81553529626E+02  0.25254667304E+02  0.14241035880E+03  0.00000000000E+00 0. -1.
        -14    1    4    4    0    0 -0.19732672763E+02  0.51579517331E+01 -0.24741084378E+02  0.32064062385E+02  0.00000000000E+00 0.  1.
</event>
<event>
12    1  0.1623092E-001  0.2242325E+03  0.7818608E-02  0.1130826E+00
         21   -1    0    0  503  502  0.00000000000E+00  0.00000000000E+00  0.16198506643E+03  0.16198506643E+03  0.00000000000E+00 0.  1.
         21   -1    0    0  501  503 -0.00000000000E+00 -0.00000000000E+00 -0.39697506719E+03  0.39697506719E+03  0.00000000000E+00 0.  1.
          6    2    1    2  501    0 -0.14171271010E+03 -0.24403687904E+01 -0.24841723408E+03  0.33465104954E+03  0.17375774852E+03 0.  0.
         24    2    3    3    0    0 -0.12706122562E+03 -0.13879159917E+02 -0.26776621684E+03  0.30741164658E+03  0.80411363874E+02 0.  0.
         -6    2    1    2    0  502  0.14171271010E+03  0.24403687904E+01  0.13427233317E+02  0.22430908408E+03  0.17333732144E+03 0.  0.
        -24    2    5    5    0    0  0.11073200323E+03  0.61501088960E+02 -0.17507471192E+02  0.15064078148E+03  0.79637761234E+02 0.  0.
          5    1    3    3  501    0 -0.14651484478E+02  0.11438791126E+02  0.19348982757E+02  0.27239402959E+02  0.47000000000E+01 0. -1.
        -13    1    4    4    0    0 -0.37472553338E+02  0.81377542953E+01 -0.16462421520E+03  0.16903120283E+03  0.00000000000E+00 0.  1.
         14    1    4    4    0    0 -0.89588672282E+02 -0.22016914212E+02 -0.10314200163E+03  0.13838044375E+03  0.00000000000E+00 0. -1.
         -5    1    5    5    0  502  0.30980706866E+02 -0.59060720170E+02  0.30934704509E+02  0.73668302600E+02  0.47000000000E+01 0.  1.
         13    1    6    6    0    0  0.95866860512E+02  0.21956576374E+02 -0.35721517937E+02  0.10463542915E+03  0.00000000000E+00 0. -1.
        -14    1    6    6    0    0  0.14865142720E+02  0.39544512587E+02  0.18214046746E+02  0.46005352326E+02  0.00000000000E+00 0.  1.
</event>
<event>
12    1  0.1623092E-001  0.2033833E+03  0.7818608E-02  0.1146931E+00
         21   -1    0    0  503  502  0.00000000000E+00  0.00000000000E+00  0.12401894061E+03  0.12401894061E+03  0.00000000000E+00 0. -1.
         21   -1    0    0  501  503 -0.00000000000E+00 -0.00000000000E+00 -0.39966782104E+03  0.39966782104E+03  0.00000000000E+00 0. -1.
          6    2    1    2  501    0 -0.74409529312E+02  0.78778774030E+02 -0.24445722365E+03  0.31800016661E+03  0.17211013475E+03 0.  0.
         24    2    3    3    0    0  0.26399312838E+02  0.42706702222E+01 -0.84663353968E+02  0.11484985040E+03  0.72852194822E+02 0.  0.
         -6    2    1    2    0  502  0.74409529312E+02 -0.78778774030E+02 -0.31191656786E+02  0.20568659504E+03  0.17202087849E+03 0.  0.
        -24    2    5    5    0    0  0.84948839084E+02 -0.10471394229E+03  0.84532545793E+01  0.15692678577E+03  0.79832597397E+02 0.  0.
          5    1    3    3  501    0 -0.10080884215E+03  0.74508103808E+02 -0.15979386968E+03  0.20315031621E+03  0.47000000000E+01 0. -1.
        -11    1    4    4    0    0  0.13361512664E+02  0.13303105125E+02 -0.94382872694E+02  0.96247749504E+02  0.00000000000E+00 0.  1.
         12    1    4    4    0    0  0.13037800175E+02 -0.90324349028E+01  0.97195187259E+01  0.18602100901E+02  0.00000000000E+00 0. -1.
         -5    1    5    5    0  502 -0.10539309773E+02  0.25935168261E+02 -0.39644911366E+02  0.48759809274E+02  0.47000000000E+01 0.  1.
         13    1    6    6    0    0  0.26511004050E+02 -0.91180156332E+02  0.16585092494E+02  0.96393565851E+02  0.00000000000E+00 0. -1.
        -14    1    6    6    0    0  0.58437835035E+02 -0.13533785960E+02 -0.81318379145E+01  0.60533219919E+02  0.00000000000E+00 0.  1.
</event>
<event>
12    1  0.1623092E-001  0.2538574E+03  0.7818608E-02  0.1111003E+00
         21   -1    0    0  501  502  0.00000000000E+00  0.00000000000E+00  0.28038795147E+03  0.28038795147E+03  0.00000000000E+00 0.  1.
         21   -1    0    0  502  503 -0.00000000000E+00 -0.00000000000E+00 -0.24251818787E+03  0.24251818787E+03  0.00000000000E+00 0.  1.
         -6    2    1    2    0  503 -0.17199111533E+03 -0.71563646736E+02 -0.42398666150E+02  0.25666080581E+03  0.17139084883E+03 0.  0.
        -24    2    3    3    0    0 -0.90770342863E+02  0.25992140572E+02 -0.40256820254E+02  0.12961505413E+03  0.79149252462E+02 0.  0.
          6    2    1    2  501    0  0.17199111533E+03  0.71563646736E+02  0.80268429751E+02  0.26624533353E+03  0.17245653808E+03 0.  0.
         24    2    5    5    0    0  0.17725290177E+03  0.91668474341E+02  0.99060438198E+02  0.23783547483E+03  0.83252881621E+02 0.  0.
          5    1    5    5  501    0 -0.52617864451E+01 -0.20104827605E+02 -0.18792008447E+02  0.28409858696E+02  0.47000000000E+01 0. -1.
        -13    1    6    6    0    0  0.19924244275E+02  0.49473632636E+02  0.24587260123E+02  0.58729457656E+02  0.00000000000E+00 0.  1.
         14    1    6    6    0    0  0.15732865750E+03  0.42194841705E+02  0.74473178074E+02  0.17910601718E+03  0.00000000000E+00 0. -1.
         -5    1    3    3    0  503 -0.81220772466E+02 -0.97555787308E+02 -0.21418458968E+01  0.12704575168E+03  0.47000000000E+01 0.  1.
         13    1    4    4    0    0 -0.26810293668E+01  0.31372146117E+02 -0.24660151987E+02  0.39994031636E+02  0.00000000000E+00 0. -1.
        -14    1    4    4    0    0 -0.88089313496E+02 -0.53800055457E+01 -0.15596668267E+02  0.89621022494E+02  0.00000000000E+00 0.  1.
</event>
<event>
12    1  0.1623092E-001  0.1856783E+03  0.7818608E-02  0.1163226E+00
         21   -1    0    0  503  502  0.00000000000E+00  0.00000000000E+00  0.16029479811E+03  0.16029479811E+03  0.00000000000E+00 0. -1.
         21   -1    0    0  501  503 -0.00000000000E+00 -0.00000000000E+00 -0.23834834309E+03  0.23834834309E+03  0.00000000000E+00 0. -1.
          6    2    1    2  501    0 -0.44344914717E+02 -0.42412174525E+02 -0.10672536486E+03  0.21416518013E+03  0.17524598959E+03 0.  0.
         24    2    3    3    0    0 -0.96144488290E+02 -0.29729241170E+02 -0.56011054593E+02  0.14042181509E+03  0.80333414642E+02 0.  0.
         -6    2    1    2    0  502  0.44344914717E+02  0.42412174525E+02  0.28671819881E+02  0.18447796108E+03  0.17159481594E+03 0.  0.
        -24    2    5    5    0    0  0.51760635547E+02 -0.22300322148E+02  0.55203256740E+02  0.11398890318E+03  0.82277595576E+02 0.  0.
          5    1    3    3  501    0  0.51799573573E+02 -0.12682933354E+02 -0.50714310270E+02  0.73743365038E+02  0.47000000000E+01 0. -1.
        -11    1    4    4    0    0  0.10135898714E+02  0.71924780734E+01 -0.17577219204E+02  0.21527350476E+02  0.00000000000E+00 0.  1.
         12    1    4    4    0    0 -0.10628038700E+03 -0.36921719244E+02 -0.38433835389E+02  0.11889446462E+03  0.00000000000E+00 0. -1.
         -5    1    5    5    0  502 -0.74157208300E+01  0.64712496672E+02 -0.26531436859E+02  0.70489057894E+02  0.47000000000E+01 0.  1.
         13    1    6    6    0    0  0.44159449919E+02  0.22259872519E+02  0.10786861211E+02  0.50615366406E+02  0.00000000000E+00 0. -1.
        -14    1    6    6    0    0  0.76011856284E+01 -0.44560194666E+02  0.44416395529E+02  0.63373536776E+02  0.00000000000E+00 0.  1.
</event>
<event>
12    1  0.1623092E-001  0.2287654E+03  0.7818608E-02  0.1127845E+00
         21   -1    0    0  501  502  0.00000000000E+00  0.00000000000E+00  0.33524262575E+03  0.33524262575E+03  0.00000000000E+00 0. -1.
         21   -1    0    0  502  503 -0.00000000000E+00 -0.00000000000E+00 -0.26104763797E+03  0.26104763797E+03  0.00000000000E+00 0.  1.
         -6    2    1    2    0  503  0.14512858663E+03 -0.31339002561E+02 -0.15317075892E+03  0.27375529440E+03  0.17156992769E+03 0.  0.
        -24    2    3    3    0    0  0.63270058547E+02 -0.21469124628E+02 -0.48916235169E+01  0.10402897026E+03  0.79586902518E+02 0.  0.
          6    2    1    2  501    0 -0.14512858663E+03  0.31339002561E+02  0.22736574669E+03  0.32253496932E+03  0.17403788073E+03 0.  0.
         24    2    5    5    0    0 -0.14355731502E+03 -0.27705380635E+02  0.14291823003E+03  0.21937402152E+03  0.79517608318E+02 0.  0.
          5    1    5    5  501    0 -0.15712716147E+01  0.59044383196E+02  0.84447516658E+02  0.10316094780E+03  0.47000000000E+01 0. -1.
        -13    1    6    6    0    0 -0.12575259052E+02 -0.31447757097E+02  0.18087339687E+02  0.38395968846E+02  0.00000000000E+00 0.  1.
         14    1    6    6    0    0 -0.13098205596E+03  0.37423764621E+01  0.12483089034E+03  0.18097805267E+03  0.00000000000E+00 0. -1.
         -5    1    3    3    0  503  0.81858528084E+02 -0.98698779332E+01 -0.14827913540E+03  0.16972632414E+03  0.47000000000E+01 0.  1.
         13    1    4    4    0    0  0.81067216984E+02 -0.14284809805E+02 -0.12735347468E+02  0.83295489288E+02  0.00000000000E+00 0. -1.
        -14    1    4    4    0    0 -0.17797158437E+02 -0.71843148225E+01  0.78437239508E+01  0.20733480974E+02  0.00000000000E+00 0.  1.
</event>
<event>
12    1  0.1623092E-001  0.1951219E+03  0.7818608E-02  0.1154100E+00
         21   -1    0    0  501  502  0.00000000000E+00  0.00000000000E+00  0.32966268090E+02  0.32966268090E+02  0.00000000000E+00 0.  1.
         21   -1    0    0  502  503 -0.00000000000E+00 -0.00000000000E+00 -0.12508163455E+04  0.12508163455E+04  0.00000000000E+00 0. -1.
         -6    2    1    2    0  503  0.12224572784E+02 -0.90746346169E+02 -0.42791655519E+03  0.47030325640E+03  0.17230274302E+03 0.  0.
        -24    2    3    3    0    0  0.49244727933E+01 -0.12863459528E+03 -0.37719745220E+03  0.40640233083E+03  0.79459593650E+02 0.  0.
          6    2    1    2  501    0 -0.12224572784E+02  0.90746346169E+02 -0.78993352225E+03  0.81347935722E+03  0.17137489760E+03 0.  0.
         24    2    5    5    0    0  0.47711038600E+02  0.91203892446E+02 -0.58863491000E+03  0.60339435501E+03  0.83661204769E+02 0.  0.
          5    1    5    5  501    0 -0.59935611384E+02 -0.45754627727E+00 -0.20129861224E+03  0.21008500221E+03  0.47000000000E+01 0. -1.
        -11    1    6    6    0    0  0.21140315037E+01  0.70806029357E+02 -0.45962289654E+03  0.46504964246E+03  0.00000000000E+00 0.  1.
         12    1    6    6    0    0  0.45597007096E+02  0.20397863089E+02 -0.12901201346E+03  0.13834471255E+03  0.00000000000E+00 0. -1.
         -5    1    3    3    0  503  0.73000999904E+01  0.37888249110E+02 -0.50719102989E+02  0.63900925569E+02  0.47000000000E+01 0.  1.
         13    1    4    4    0    0 -0.27763300746E+01 -0.26130521843E+02 -0.19863881183E+03  0.20036938326E+03  0.00000000000E+00 0. -1.
        -14    1    4    4    0    0  0.77008028679E+01 -0.10250407344E+03 -0.17855864037E+03  0.20603294757E+03  0.00000000000E+00 0.  1.
</event>
<event>
12    1  0.1623092E-001  0.2106062E+03  0.7818608E-02  0.1141225E+00
         21   -1    0    0  503  502  0.00000000000E+00  0.00000000000E+00  0.36774612176E+03  0.36774612176E+03  0.00000000000E+00 0.  1.
         21   -1    0    0  501  503 -0.00000000000E+00 -0.00000000000E+00 -0.17770889166E+03  0.17770889166E+03  0.00000000000E+00 0.  1.
          6    2    1    2  501    0 -0.73725214100E+02  0.95803473526E+02 -0.60002135067E+02  0.21898681806E+03  0.17245653812E+03 0.  0.
         24    2    3    3    0    0  0.12297453349E+02  0.22882488968E+02  0.87863273267E+01  0.86807727955E+02  0.82362287635E+02 0.  0.
         -6    2    1    2    0  502  0.73725214100E+02 -0.95803473526E+02  0.25003936518E+03  0.32646819536E+03  0.17160444548E+03 0.  0.
        -24    2    5    5    0    0  0.28523725487E+02  0.19707673821E+02  0.87541975599E+02  0.12198472083E+03  0.77554363525E+02 0.  0.
          5    1    3    3  501    0 -0.86022667449E+02  0.72920984557E+02 -0.68788462393E+02  0.13217909011E+03  0.47000000000E+01 0. -1.
        -11    1    4    4    0    0 -0.19777102109E+02  0.20117960144E+02 -0.26736097879E+02  0.38867531668E+02  0.00000000000E+00 0.  1.
         12    1    4    4    0    0  0.32074555458E+02  0.27645288245E+01  0.35522425206E+02  0.47940196286E+02  0.00000000000E+00 0. -1.
         -5    1    5    5    0  502  0.45201488613E+02 -0.11551114735E+03  0.16249738958E+03  0.20448347452E+03  0.47000000000E+01 0.  1.
         13    1    6    6    0    0 -0.25550224709E+02  0.13117349908E+01  0.15006260041E+02  0.29660115842E+02  0.00000000000E+00 0. -1.
        -14    1    6    6    0    0  0.54073950196E+02  0.18395938830E+02  0.72535715558E+02  0.92324604991E+02  0.00000000000E+00 0.  1.
</event>
<event>
12    1  0.1623092E-001  0.1880804E+03  0.7818608E-02  0.1160964E+00
         21   -1    0    0  501  502  0.00000000000E+00  0.00000000000E+00  0.13466335282E+03  0.13466335282E+03  0.00000000000E+00 0. -1.
         21   -1    0    0  502  503 -0.00000000000E+00 -0.00000000000E+00 -0.37527577744E+03  0.37527577744E+03  0.00000000000E+00 0. -1.
         -6    2    1    2    0  503  0.58351772512E+02  0.35664484587E+02 -0.26204191575E+03  0.32064184634E+03  0.17166345912E+03 0.  0.
        -24    2    3    3    0    0  0.95835049906E+02  0.59339065501E+02 -0.19605364436E+03  0.24100502178E+03  0.83312109378E+02 0.  0.
          6    2    1    2  501    0 -0.58351772512E+02 -0.35664484587E+02  0.21429491125E+02  0.18929728392E+03  0.17520660316E+03 0.  0.
         24    2    5    5    0    0 -0.17239911395E+02  0.11052496376E+02  0.74269765371E+02  0.10752414641E+03  0.75007144944E+02 0.  0.
          5    1    5    5  501    0 -0.41111861116E+02 -0.46716980962E+02 -0.52840274246E+02  0.81773137503E+02  0.47000000000E+01 0. -1.
        -13    1    6    6    0    0  0.17522866121E+02 -0.12815439536E+02 -0.46466181820E+00  0.21714102289E+02  0.00000000000E+00 0.  1.
         14    1    6    6    0    0 -0.34762777517E+02  0.23867935912E+02  0.74734427189E+02  0.85810044125E+02  0.00000000000E+00 0. -1.
         -5    1    3    3    0  503 -0.37483277395E+02 -0.23674580914E+02 -0.65988271387E+02  0.79636824562E+02  0.47000000000E+01 0.  1.
         11    1    4    4    0    0  0.83724356501E+02  0.63012442129E+01 -0.13725785251E+03  0.16090118591E+03  0.00000000000E+00 0. -1.
        -12    1    4    4    0    0  0.12110693405E+02  0.53037821288E+02 -0.58795791848E+02  0.80103835868E+02  0.00000000000E+00 0.  1.
</event>
<event>
12    1  0.1623092E-001  0.1762300E+03  0.7818608E-02  0.1171626E+00
         21   -1    0    0  501  502  0.00000000000E+00  0.00000000000E+00  0.37595502873E+02  0.37595502873E+02  0.00000000000E+00 0. -1.
         21   -1    0    0  502  503 -0.00000000000E+00 -0.00000000000E+00 -0.83758208987E+03  0.83758208987E+03  0.00000000000E+00 0. -1.
         -6    2    1    2    0  503  0.26227534509E+01 -0.37490004174E+02 -0.34321557204E+03  0.38558921207E+03  0.17166750516E+03 0.  0.
        -24    2    3    3    0    0 -0.12246015575E+02 -0.87552823034E+02 -0.27486798168E+03  0.29944486094E+03  0.79368480328E+02 0.  0.
          6    2    1    2  501    0 -0.26227534509E+01  0.37490004174E+02 -0.45677101497E+03  0.48958838068E+03  0.17217619793E+03 0.  0.
         24    2    5    5    0    0 -0.60578995177E+02  0.77732955150E+01 -0.37241990683E+03  0.38291500924E+03  0.64784863392E+02 0.  0.
          5    1    5    5  501    0  0.57956241726E+02  0.29716708659E+02 -0.84351108140E+02  0.10667337143E+03  0.47000000000E+01 0. -1.
        -11    1    6    6    0    0  0.58771720348E+01  0.71862014550E+01 -0.16163408070E+03  0.16190045919E+03  0.00000000000E+00 0.  1.
         12    1    6    6    0    0 -0.66456167211E+02  0.58709406004E+00 -0.21078582613E+03  0.22101455006E+03  0.00000000000E+00 0. -1.
         -5    1    3    3    0  503  0.14868769026E+02  0.50062818860E+02 -0.68347590352E+02  0.86144351129E+02  0.47000000000E+01 0.  1.
         13    1    4    4    0    0 -0.37280374059E+02 -0.66916611327E+02 -0.23949450124E+03  0.25144636662E+03  0.00000000000E+00 0. -1.
        -14    1    4    4    0    0  0.25034358484E+02 -0.20636211707E+02 -0.35373480440E+02  0.47998494317E+02  0.00000000000E+00 0.  1.
</event>
<event>
12    1  0.1623092E-001  0.2516592E+03  0.7818608E-02  0.1112331E+00
         21   -1    0    0  501  502  0.00000000000E+00  0.00000000000E+00  0.23859625059E+03  0.23859625059E+03  0.00000000000E+00 0. -1.
         21   -1    0    0  502  503 -0.00000000000E+00 -0.00000000000E+00 -0.10987913759E+04  0.10987913759E+04  0.00000000000E+00 0. -1.
         -6    2    1    2    0  503  0.12097950642E+03 -0.13452308923E+03 -0.10127041135E+04  0.10435046683E+04  0.17492818154E+03 0.  0.
        -24    2    3    3    0    0  0.12559052437E+03 -0.39881343987E+02 -0.55672095062E+03  0.57775682205E+03  0.80630187635E+02 0.  0.
          6    2    1    2  501    0 -0.12097950642E+03  0.13452308923E+03  0.15250898825E+03  0.29388295816E+03  0.17428625617E+03 0.  0.
         24    2    5    5    0    0 -0.19412610707E+02  0.10187317710E+03  0.29001240250E+02  0.13060985908E+03  0.73911228415E+02 0.  0.
          5    1    5    5  501    0 -0.10156689571E+03  0.32649912129E+02  0.12350774800E+03  0.16327309908E+03  0.47000000000E+01 0. -1.
        -11    1    6    6    0    0  0.28013194890E+02  0.28612175983E+02  0.77011174170E+01  0.40776254265E+02  0.00000000000E+00 0.  1.
         12    1    6    6    0    0 -0.47425805597E+02  0.73261001121E+02  0.21300122833E+02  0.89833604818E+02  0.00000000000E+00 0. -1.
         -5    1    3    3    0  503 -0.46110179486E+01 -0.94641745247E+02 -0.45598316289E+03  0.46574784623E+03  0.47000000000E+01 0.  1.
         13    1    4    4    0    0  0.97082040909E+02 -0.60772836245E+02 -0.47690099449E+03  0.49046184239E+03  0.00000000000E+00 0. -1.
        -14    1    4    4    0    0  0.28508483459E+02  0.20891492258E+02 -0.79819956130E+02  0.87294979664E+02  0.00000000000E+00 0.  1.
</event>
<event>
12    1  0.1623092E-001  0.2001582E+03  0.7818608E-02  0.1149839E+00
         21   -1    0    0  503  502  0.00000000000E+00  0.00000000000E+00  0.43181041471E+03  0.43181041471E+03  0.00000000000E+00 0. -1.
         21   -1    0    0  501  503 -0.00000000000E+00 -0.00000000000E+00 -0.10601169813E+03  0.10601169813E+03  0.00000000000E+00 0. -1.
          6    2    1    2  501    0 -0.51104771518E+02 -0.87907842099E+02  0.26011766718E+03  0.32821411247E+03  0.17240596414E+03 0.  0.
         24    2    3    3    0    0 -0.36021868478E+02  0.12170432834E+02  0.70238736213E+02  0.11299502990E+03  0.79929358015E+02 0.  0.
         -6    2    1    2    0  502  0.51104771518E+02  0.87907842099E+02  0.65681049398E+02  0.20960800037E+03  0.17111992051E+03 0.  0.
        -24    2    5    5    0    0  0.47101466582E+02  0.12755527279E+03  0.42595392069E+02  0.16331563831E+03  0.79804351509E+02 0.  0.
          5    1    3    3  501    0 -0.15082903041E+02 -0.10007827493E+03  0.18987893097E+03  0.21521908257E+03  0.47000000000E+01 0. -1.
        -13    1    4    4    0    0 -0.59562254947E+02  0.21125761300E+02  0.52923413322E+02  0.82430866079E+02  0.00000000000E+00 0.  1.
         14    1    4    4    0    0  0.23540386470E+02 -0.89553284658E+01  0.17315322892E+02  0.30564163818E+02  0.00000000000E+00 0. -1.
         -5    1    5    5    0  502  0.40033049364E+01 -0.39647430692E+02  0.23085657329E+02  0.46292362061E+02  0.47000000000E+01 0.  1.
         13    1    6    6    0    0 -0.22065605040E+01  0.29120943371E+01 -0.16445959853E+02  0.16846922513E+02  0.00000000000E+00 0. -1.
        -14    1    6    6    0    0  0.49308027086E+02  0.12464317845E+03  0.59041351921E+02  0.14646871580E+03  0.00000000000E+00 0.  1.
</event>
<event>
12    1  0.1623092E-001  0.1775674E+03  0.7818608E-02  0.1172910E+00
         21   -1    0    0  501  502  0.00000000000E+00  0.00000000000E+00  0.11807141366E+04  0.11807141366E+04  0.00000000000E+00 0. -1.
         21   -1    0    0  502  503 -0.00000000000E+00 -0.00000000000E+00 -0.25489817207E+02  0.25489817207E+02  0.00000000000E+00 0. -1.
         -6    2    1    2    0  503 -0.16863131647E+02  0.30032009257E+02  0.66842028334E+03  0.69160383974E+03  0.17419503200E+03 0.  0.
        -24    2    3    3    0    0 -0.25974193136E+02  0.63399926699E+01  0.65751507432E+03  0.66357998070E+03  0.85425193065E+02 0.  0.
          6    2    1    2  501    0  0.16863131647E+02 -0.30032009257E+02  0.48680403607E+03  0.51460011408E+03  0.16324466635E+03 0.  0.
         24    2    5    5    0    0  0.68429339557E+02 -0.17990902248E+02  0.38229400244E+03  0.39734611976E+03  0.82030406004E+02 0.  0.
          5    1    5    5  501    0 -0.51566207910E+02 -0.12041107009E+02  0.10451003363E+03  0.11725399432E+03  0.47000000000E+01 0. -1.
        -13    1    6    6    0    0  0.63437594969E+02  0.14393444023E+02  0.16108640745E+03  0.17372486970E+03  0.00000000000E+00 0.  1.
         14    1    6    6    0    0  0.49917445877E+01 -0.32384346271E+02  0.22120759498E+03  0.22362125005E+03  0.00000000000E+00 0. -1.
         -5    1    3    3    0  503  0.91110614887E+01  0.23692016588E+02  0.10905209012E+02  0.28023859032E+02  0.47000000000E+01 0.  1.
         11    1    4    4    0    0  0.71862839302E+01  0.27983273498E+02  0.51075668539E+03  0.51157315992E+03  0.00000000000E+00 0. -1.
        -12    1    4    4    0    0 -0.33160477066E+02 -0.21643280828E+02  0.14675838893E+03  0.15200682079E+03  0.00000000000E+00 0.  1.
</event>
<event>
12    1  0.1623092E-001  0.1762347E+03  0.7818608E-02  0.1171617E+00
         21   -1    0    0  503  502  0.00000000000E+00  0.00000000000E+00  0.79660381010E+02  0.79660381010E+02  0.00000000000E+00 0. -1.
         21   -1    0    0  501  503 -0.00000000000E+00 -0.00000000000E+00 -0.63932483323E+03  0.63932483323E+03  0.00000000000E+00 0. -1.
          6    2    1    2  501    0  0.21006623003E+02 -0.23662065239E+02 -0.50508650403E+03  0.53494956570E+03  0.17337095993E+03 0.  0.
         24    2    3    3    0    0 -0.16982945100E+01  0.17529765790E+02 -0.10979161822E+03  0.13683850460E+03  0.79752116067E+02 0.  0.
         -6    2    1    2    0  502 -0.21006623003E+02  0.23662065239E+02 -0.54577948193E+02  0.18403564854E+03  0.17288492116E+03 0.  0.
        -24    2    5    5    0    0 -0.75228373679E+02 -0.12685379912E+02 -0.29734918910E+02  0.11403278346E+03  0.79366764024E+02 0.  0.
          5    1    3    3  501    0  0.22704917513E+02 -0.41191831029E+02 -0.39529488581E+03  0.39811106110E+03  0.47000000000E+01 0. -1.
        -13    1    4    4    0    0  0.36459632876E+02  0.22400933611E+02 -0.50911950286E+02  0.66506641307E+02  0.00000000000E+00 0.  1.
         14    1    4    4    0    0 -0.38157927386E+02 -0.48711678207E+01 -0.58879667938E+02  0.70331863297E+02  0.00000000000E+00 0. -1.
         -5    1    5    5    0  502  0.54221750676E+02  0.36347445151E+02 -0.24843029283E+02  0.70002865079E+02  0.47000000000E+01 0.  1.
         13    1    6    6    0    0 -0.71704515609E+02  0.11787349418E+02 -0.44523772464E+02  0.85222329700E+02  0.00000000000E+00 0. -1.
        -14    1    6    6    0    0 -0.35238580697E+01 -0.24472729330E+02  0.14788853554E+02  0.28810453762E+02  0.00000000000E+00 0.  1.
</event>
<event>
12    1  0.1623092E-001  0.1947980E+03  0.7818608E-02  0.1154277E+00
         21   -1    0    0  501  502  0.00000000000E+00  0.00000000000E+00  0.14257930966E+03  0.14257930966E+03  0.00000000000E+00 0.  1.
         21   -1    0    0  502  503 -0.00000000000E+00 -0.00000000000E+00 -0.12158125972E+04  0.12158125972E+04  0.00000000000E+00 0.  1.
         -6    2    1    2    0  503  0.68744286922E+02  0.58154421473E+02 -0.11369325253E+04  0.11534435222E+04  0.17236205552E+03 0.  0.
        -24    2    3    3    0    0  0.94607197822E+02  0.48250050188E+02 -0.55173467278E+03  0.56757186110E+03  0.80299932383E+02 0.  0.
          6    2    1    2  501    0 -0.68744286922E+02 -0.58154421473E+02  0.63699237770E+02  0.20494838460E+03  0.17273833894E+03 0.  0.
         24    2    5    5    0    0 -0.10184579368E+03 -0.55607865347E+02  0.89246841792E+01  0.14072583079E+03  0.79115795423E+02 0.  0.
          5    1    5    5  501    0  0.33101506755E+02 -0.25465561260E+01  0.54774553591E+02  0.64222553816E+02  0.47000000000E+01 0. -1.
        -11    1    6    6    0    0 -0.60974278524E+02 -0.61355952144E+02  0.33417851864E+02  0.92731700773E+02  0.00000000000E+00 0.  1.
         12    1    6    6    0    0 -0.40871515154E+02  0.57480867971E+01 -0.24493167685E+02  0.47994130016E+02  0.00000000000E+00 0. -1.
         -5    1    3    3    0  503 -0.25862910899E+02  0.99043712849E+01 -0.58519785249E+03  0.58587166111E+03  0.47000000000E+01 0.  1.
         11    1    4    4    0    0  0.81634867610E+02  0.65630211159E+00 -0.29216697229E+03  0.30335824043E+03  0.00000000000E+00 0. -1.
        -12    1    4    4    0    0  0.12972330212E+02  0.47593748076E+02 -0.25956770049E+03  0.26421362067E+03  0.00000000000E+00 0.  1.
</event>
<event>
12    1  0.1623092E-001  0.1752447E+03  0.7818608E-02  0.1172999E+00
         21   -1    0    0  501  502  0.00000000000E+00  0.00000000000E+00  0.21859638392E+03  0.21859638392E+03  0.00000000000E+00 0.  1.
         21   -1    0    0  502  503 -0.00000000000E+00 -0.00000000000E+00 -0.49901740380E+03  0.49901740380E+03  0.00000000000E+00 0.  1.
         -6    2    1    2    0  503  0.21933022093E+02 -0.20546865652E+02 -0.44480354037E+03  0.47733831982E+03  0.17058268052E+03 0.  0.
        -24    2    3    3    0    0 -0.31646867058E+02 -0.27328412907E+02 -0.12930906941E+03  0.15722014615E+03  0.79050443249E+02 0.  0.
          6    2    1    2  501    0 -0.21933022093E+02  0.20546865652E+02  0.16438252049E+03  0.24027546790E+03  0.17264836022E+03 0.  0.
         24    2    5    5    0    0 -0.66040670421E+02  0.10561047855E+01  0.47761054470E+02  0.11398995512E+03  0.79687552592E+02 0.  0.
          5    1    5    5  501    0  0.44107648328E+02  0.19490760866E+02  0.11662146602E+03  0.12628551278E+03  0.47000000000E+01 0. -1.
        -11    1    6    6    0    0 -0.82268630471E+02  0.12986630564E+02  0.40132099271E+02  0.92451963337E+02  0.00000000000E+00 0.  1.
         12    1    6    6    0    0  0.16227960051E+02 -0.11930525779E+02  0.76289551995E+01  0.21537991787E+02  0.00000000000E+00 0. -1.
         -5    1    3    3    0  503  0.53579889151E+02  0.67815472557E+01 -0.31549447096E+03  0.32011817367E+03  0.47000000000E+01 0.  1.
         11    1    4    4    0    0 -0.28837730714E+02  0.24277489844E+02 -0.51972402445E+02  0.64203908306E+02  0.00000000000E+00 0. -1.
        -12    1    4    4    0    0 -0.28091363437E+01 -0.51605902752E+02 -0.77336666967E+02  0.93016237847E+02  0.00000000000E+00 0.  1.
</event>
<event>
12    1  0.1623092E-001  0.2208751E+03  0.7818608E-02  0.1133389E+00
         21   -1    0    0  503  502  0.00000000000E+00  0.00000000000E+00  0.24123232594E+03  0.24123232594E+03  0.00000000000E+00 0.  1.
         21   -1    0    0  501  503 -0.00000000000E+00 -0.00000000000E+00 -0.44044160680E+03  0.44044160680E+03  0.00000000000E+00 0.  1.
          6    2    1    2  501    0 -0.13431546120E+03  0.30023920916E+02 -0.35075239220E+03  0.41450339132E+03  0.17275341340E+03 0.  0.
         24    2    3    3    0    0 -0.26974139816E+02 -0.37506414648E+02 -0.11606854148E+03  0.14770551785E+03  0.78807857002E+02 0.  0.
         -6    2    1    2    0  502  0.13431546120E+03 -0.30023920916E+02  0.15154311134E+03  0.26717054143E+03  0.17167616220E+03 0.  0.
        -24    2    5    5    0    0  0.52843746790E+02 -0.46269535278E+02  0.23407333464E+02  0.11438825251E+03  0.87197692532E+02 0.  0.
          5    1    3    3  501    0 -0.10734132139E+03  0.67530335564E+02 -0.23468385072E+03  0.26679787347E+03  0.47000000000E+01 0. -1.
        -11    1    4    4    0    0 -0.24877262536E+02 -0.24427523657E+02 -0.12626461652E+03  0.13098982971E+03  0.00000000000E+00 0.  1.
         12    1    4    4    0    0 -0.20968772797E+01 -0.13078890991E+02  0.10196075040E+02  0.16715688144E+02  0.00000000000E+00 0. -1.
         -5    1    5    5    0  502  0.81471714414E+02  0.16245614362E+02  0.12813577787E+03  0.15278228892E+03  0.47000000000E+01 0.  1.
         13    1    6    6    0    0  0.25394600140E+02  0.19253617747E+02 -0.13172261892E+02  0.34483271248E+02  0.00000000000E+00 0. -1.
        -14    1    6    6    0    0  0.27449146650E+02 -0.65523153025E+02  0.36579595356E+02  0.79904981263E+02  0.00000000000E+00 0.  1.
</event>
<event>
12    1  0.1623092E-001  0.2424648E+03  0.7818608E-02  0.1118189E+00
         21   -1    0    0  501  502  0.00000000000E+00  0.00000000000E+00  0.24309856436E+03  0.24309856436E+03  0.00000000000E+00 0.  1.
         21   -1    0    0  502  503 -0.00000000000E+00 -0.00000000000E+00 -0.25083224738E+03  0.25083224738E+03  0.00000000000E+00 0.  1.
         -6    2    1    2    0  503  0.15875530127E+03  0.62934714919E+02 -0.51081812160E+02  0.24778727666E+03  0.17211960642E+03 0.  0.
        -24    2    3    3    0    0  0.44663716239E+02 -0.30499211325E+01 -0.68924599427E+02  0.11470340450E+03  0.80013255346E+02 0.  0.
          6    2    1    2  501    0 -0.15875530127E+03 -0.62934714919E+02  0.43348129140E+02  0.24614353509E+03  0.17188238869E+03 0.  0.
         24    2    5    5    0    0 -0.14868306466E+02 -0.53126308134E+02  0.94763451351E+01  0.97923901200E+02  0.80348106113E+02 0.  0.
          5    1    5    5  501    0 -0.14388699481E+03 -0.98084067849E+01  0.33871784004E+02  0.14821963389E+03  0.47000000000E+01 0. -1.
        -13    1    6    6    0    0 -0.45212911924E+02 -0.37126099329E+02  0.20344205828E+02  0.61939013285E+02  0.00000000000E+00 0.  1.
         14    1    6    6    0    0  0.30344605457E+02 -0.16000208805E+02 -0.10867860693E+02  0.35984887915E+02  0.00000000000E+00 0. -1.
         -5    1    3    3    0  503  0.11409158504E+03  0.65984636052E+02  0.17842787267E+02  0.13308387216E+03  0.47000000000E+01 0.  1.
         13    1    4    4    0    0  0.16663692848E+02  0.14046244354E+02  0.13742198713E+02  0.25764775668E+02  0.00000000000E+00 0. -1.
        -14    1    4    4    0    0  0.28000023391E+02 -0.17096165486E+02 -0.82666798139E+02  0.88938628834E+02  0.00000000000E+00 0.  1.
</event>
<event>
12    1  0.1623092E-001  0.2837639E+03  0.7818608E-02  0.1093660E+00
         21   -1    0    0  503  502  0.00000000000E+00  0.00000000000E+00  0.51888815108E+03  0.51888815108E+03  0.00000000000E+00 0.  1.
         21   -1    0    0  501  503 -0.00000000000E+00 -0.00000000000E+00 -0.46468882660E+03  0.46468882660E+03  0.00000000000E+00 0.  1.
          6    2    1    2  501    0  0.22773284320E+02  0.22447563146E+03 -0.37428475975E+03  0.46965036209E+03  0.17197223505E+03 0.  0.
         24    2    3    3    0    0 -0.24561316272E+02  0.21896897728E+03 -0.28950577111E+03  0.37228273622E+03  0.78931444348E+02 0.  0.
         -6    2    1    2    0  502 -0.22773284320E+02 -0.22447563146E+03  0.42848408423E+03  0.51392661559E+03  0.17208725744E+03 0.  0.
        -24    2    5    5    0    0 -0.22996834162E+02 -0.84559672840E+02  0.10083443226E+03  0.15762209711E+03  0.83653751361E+02 0.  0.
          5    1    3    3  501    0  0.47334600592E+02  0.55066541774E+01 -0.84778988637E+02  0.97367625871E+02  0.47000000000E+01 0. -1.
        -11    1    4    4    0    0  0.22371605747E+02  0.13082725480E+03 -0.14433970344E+03  0.19608724928E+03  0.00000000000E+00 0.  1.
         12    1    4    4    0    0 -0.46932922019E+02  0.88141722484E+02 -0.14516606768E+03  0.17619548694E+03  0.00000000000E+00 0. -1.
         -5    1    5    5    0  502  0.22354984195E+00 -0.13991595862E+03  0.32764965197E+03  0.35630451848E+03  0.47000000000E+01 0.  1.
         11    1    6    6    0    0  0.24336536409E+02 -0.75128237593E+01  0.51781236343E+01  0.25990815486E+02  0.00000000000E+00 0. -1.
        -12    1    6    6    0    0 -0.47333370571E+02 -0.77046849081E+02  0.95656308627E+02  0.13163128163E+03  0.00000000000E+00 0.  1.
</event>
<event>
12    1  0.1623092E-001  0.2109297E+03  0.7818608E-02  0.1143391E+00
         21   -1    0    0  503  502  0.00000000000E+00  0.00000000000E+00  0.57021600765E+03  0.57021600765E+03  0.00000000000E+00 0.  1.
         21   -1    0    0  501  503 -0.00000000000E+00 -0.00000000000E+00 -0.80085766058E+02  0.80085766058E+02  0.00000000000E+00 0.  1.
          6    2    1    2  501    0 -0.41245477749E+02 -0.90860542332E+02  0.14453962513E+03  0.24542619973E+03  0.17142196093E+03 0.  0.
         24    2    3    3    0    0  0.27297276895E+02 -0.89081196596E+02  0.63149663656E+02  0.13890065765E+03  0.81393560940E+02 0.  0.
         -6    2    1    2    0  502  0.41245477749E+02  0.90860542332E+02  0.34559061645E+03  0.40487557398E+03  0.18583468093E+03 0.  0.
        -24    2    5    5    0    0 -0.15726445032E+01 -0.26324738928E+02  0.15060582508E+03  0.17334384699E+03  0.81673188070E+02 0.  0.
          5    1    3    3  501    0 -0.68542754644E+02 -0.17793457359E+01  0.81389961479E+02  0.10652554208E+03  0.47000000000E+01 0. -1.
        -13    1    4    4    0    0  0.19301499913E+02 -0.99031420893E+02  0.71487831209E+02  0.12365387270E+03  0.00000000000E+00 0.  1.
         14    1    4    4    0    0  0.79957769814E+01  0.99502242975E+01 -0.83381675524E+01  0.15246784948E+02  0.00000000000E+00 0. -1.
         -5    1    5    5    0  502  0.42818122252E+02  0.11718528126E+03  0.19498479137E+03  0.23153172699E+03  0.47000000000E+01 0.  1.
         11    1    6    6    0    0 -0.10563719845E+01 -0.34970855767E+02  0.16020843700E+02  0.38480437988E+02  0.00000000000E+00 0. -1.
        -12    1    6    6    0    0 -0.51627251867E+00  0.86461168386E+01  0.13458498138E+03  0.13486340900E+03  0.00000000000E+00 0.  1.
</event>
<event>
12    1  0.1623092E-001  0.1734889E+03  0.7818608E-02  0.1174381E+00
         21   -1    0    0  503  502  0.00000000000E+00  0.00000000000E+00  0.15985384910E+04  0.15985384910E+04  0.00000000000E+00 0. -1.
         21   -1    0    0  501  503 -0.00000000000E+00 -0.00000000000E+00 -0.74651239898E+02  0.74651239898E+02  0.00000000000E+00 0. -1.
          6    2    1    2  501    0  0.20080487313E+02  0.22244085293E+02  0.37896742904E+02  0.17710611738E+03  0.17038893271E+03 0.  0.
         24    2    3    3    0    0  0.52030628929E+02  0.62821868228E+02  0.48090237402E+02  0.12425381992E+03  0.80452267564E+02 0.  0.
         -6    2    1    2    0  502 -0.20080487313E+02 -0.22244085293E+02  0.14859905082E+04  0.14960836135E+04  0.17088113670E+03 0.  0.
        -24    2    5    5    0    0 -0.59107017834E+02 -0.59944768318E+01  0.54395875118E+03  0.55309207533E+03  0.80561451697E+02 0.  0.
          5    1    3    3  501    0 -0.31950141616E+02 -0.40577782935E+02 -0.10193494498E+02  0.52852297465E+02  0.47000000000E+01 0. -1.
        -11    1    4    4    0    0 -0.77531597485E+01  0.46840075325E+02  0.39533585120E+02  0.61781943114E+02  0.00000000000E+00 0.  1.
         12    1    4    4    0    0  0.59783788677E+02  0.15981792903E+02  0.85566522824E+01  0.62471876803E+02  0.00000000000E+00 0. -1.
         -5    1    5    5    0  502  0.39026530521E+02 -0.16249608461E+02  0.94203175704E+03  0.94299153821E+03  0.47000000000E+01 0.  1.
         11    1    6    6    0    0 -0.37260291188E+02  0.16447906960E+02  0.48150956811E+03  0.48322906279E+03  0.00000000000E+00 0. -1.
        -12    1    6    6    0    0 -0.21846726646E+02 -0.22442383792E+02  0.62449183075E+02  0.69863012547E+02  0.00000000000E+00 0.  1.
</event>
<event>
12    1  0.1623092E-001  0.2274843E+03  0.7818608E-02  0.1128837E+00
         21   -1    0    0  501  502  0.00000000000E+00  0.00000000000E+00  0.52678224981E+03  0.52678224981E+03  0.00000000000E+00 0.  1.
         21   -1    0    0  502  503 -0.00000000000E+00 -0.00000000000E+00 -0.11807471337E+03  0.11807471337E+03  0.00000000000E+00 0. -1.
         -6    2    1    2    0  503 -0.99954032729E+02  0.10758671741E+03  0.69778712076E+02  0.23794573108E+03  0.17373368083E+03 0.  0.
        -24    2    3    3    0    0 -0.10346488095E+03  0.11884468931E+03  0.10284361481E+02  0.17711205834E+03  0.80211416572E+02 0.  0.
          6    2    1    2  501    0  0.99954032729E+02 -0.10758671741E+03  0.33892882436E+03  0.40691123211E+03  0.17069942124E+03 0.  0.
         24    2    5    5    0    0  0.93471112632E+02 -0.13312294872E+03  0.33300189332E+03  0.37950054307E+03  0.81681288319E+02 0.  0.
          5    1    5    5  501    0  0.64829200962E+01  0.25536231301E+02  0.59269310370E+01  0.27410689039E+02  0.47000000000E+01 0. -1.
        -13    1    6    6    0    0  0.10047549377E+03 -0.92381352447E+02  0.28603712291E+03  0.31693354952E+03  0.00000000000E+00 0.  1.
         14    1    6    6    0    0 -0.70043811399E+01 -0.40741596269E+02  0.46964770406E+02  0.62566993543E+02  0.00000000000E+00 0. -1.
         -5    1    3    3    0  503  0.35108482244E+01 -0.11257971898E+02  0.59494350594E+02  0.60833672741E+02  0.47000000000E+01 0.  1.
         11    1    4    4    0    0 -0.57698529007E+02  0.99283880323E+01  0.65523945461E+01  0.58912027743E+02  0.00000000000E+00 0. -1.
        -12    1    4    4    0    0 -0.45766351946E+02  0.10891630128E+03  0.37319669353E+01  0.11820003059E+03  0.00000000000E+00 0.  1.
</event>
<event>
12    1  0.1623092E-001  0.1965050E+03  0.7818608E-02  0.1152759E+00
         21   -1    0    0  501  502  0.00000000000E+00  0.00000000000E+00  0.18414434053E+03  0.18414434053E+03  0.00000000000E+00 0.  1.
         21   -1    0    0  502  503 -0.00000000000E+00 -0.00000000000E+00 -0.27970896742E+03  0.27970896742E+03  0.00000000000E+00 0.  1.
         -6    2    1    2    0  503  0.47708481601E+02 -0.81832098260E+02 -0.16395508061E+03  0.25578725984E+03  0.17196878297E+03 0.  0.
        -24    2    3    3    0    0  0.56803571337E+01  0.10103669686E+02 -0.12285699959E+03  0.14656413528E+03  0.79074982164E+02 0.  0.
          6    2    1    2  501    0 -0.47708481601E+02  0.81832098260E+02  0.68390453715E+02  0.20806604811E+03  0.17216746119E+03 0.  0.
         24    2    5    5    0    0 -0.70375439675E+02  0.60053184141E+00  0.49613496602E+02  0.12153846586E+03  0.85773168826E+02 0.  0.
          5    1    5    5  501    0  0.22666958073E+02  0.81231566418E+02  0.18776957113E+02  0.86527582247E+02  0.47000000000E+01 0. -1.
        -13    1    6    6    0    0  0.96610042525E+01 -0.11580547476E+02  0.36542167392E+02  0.39531937478E+02  0.00000000000E+00 0.  1.
         14    1    6    6    0    0 -0.80036443927E+02  0.12181079317E+02  0.13071329210E+02  0.82006528381E+02  0.00000000000E+00 0. -1.
         -5    1    3    3    0  503  0.42028124467E+02 -0.91935767946E+02 -0.41098081014E+02  0.10922312455E+03  0.47000000000E+01 0.  1.
         13    1    4    4    0    0 -0.24768745433E+02 -0.69013658174E+01 -0.10356305824E+03  0.10670720047E+03  0.00000000000E+00 0. -1.
        -14    1    4    4    0    0  0.30449102567E+02  0.17005035503E+02 -0.19293941350E+02  0.39856934809E+02  0.00000000000E+00 0.  1.
</event>
<event>
12    1  0.1623092E-001  0.2160081E+03  0.7818608E-02  0.1136920E+00
         21   -1    0    0  503  502  0.00000000000E+00  0.00000000000E+00  0.20369730986E+03  0.20369730986E+03  0.00000000000E+00 0. -1.
         21   -1    0    0  501  503 -0.00000000000E+00 -0.00000000000E+00 -0.27279490990E+03  0.27279490990E+03  0.00000000000E+00 0.  1.
          6    2    1    2  501    0 -0.86119263873E+01 -0.12911492841E+03  0.60988951772E+02  0.22445298328E+03  0.17295854836E+03 0.  0.
         24    2    3    3    0    0 -0.51575704530E+02 -0.50291001109E+02 -0.15486550875E+02  0.10642887450E+03  0.76798658712E+02 0.  0.
         -6    2    1    2    0  502  0.86119263873E+01  0.12911492841E+03 -0.13008655181E+03  0.25203923648E+03  0.17279014944E+03 0.  0.
        -24    2    5    5    0    0  0.26702948799E+01  0.93230650083E+01 -0.99420067408E+02  0.12815252698E+03  0.80278704228E+02 0.  0.
          5    1    3    3  501    0  0.42963778143E+02 -0.78823927306E+02  0.76475502646E+02  0.11802410878E+03  0.47000000000E+01 0. -1.
        -11    1    4    4    0    0 -0.42036790847E+02 -0.70798420538E+02 -0.15645067935E+02  0.83810955644E+02  0.00000000000E+00 0.  1.
         12    1    4    4    0    0 -0.95389136833E+01  0.20507419429E+02  0.15851705990E+00  0.22617918860E+02  0.00000000000E+00 0. -1.
         -5    1    5    5    0  502  0.59416315074E+01  0.11979186341E+03 -0.30666484405E+02  0.12388670949E+03  0.47000000000E+01 0.  1.
         13    1    6    6    0    0 -0.33987483544E+02  0.55007763399E+01 -0.78627997311E+02  0.85835712493E+02  0.00000000000E+00 0. -1.
        -14    1    6    6    0    0  0.36657778424E+02  0.38222886684E+01 -0.20792070098E+02  0.42316814490E+02  0.00000000000E+00 0.  1.
</event>
<event>
12    1  0.1623092E-001  0.2209598E+03  0.7818608E-02  0.1133361E+00
         21   -1    0    0  503  502  0.00000000000E+00  0.00000000000E+00  0.10040397450E+03  0.10040397450E+03  0.00000000000E+00 0.  1.
         21   -1    0    0  501  503 -0.00000000000E+00 -0.00000000000E+00 -0.59234506541E+03  0.59234506541E+03  0.00000000000E+00 0.  1.
          6    2    1    2  501    0 -0.13325853674E+03 -0.34415171719E+02 -0.39363443334E+03  0.45090724841E+03  0.17154310799E+03 0.  0.
         24    2    3    3    0    0 -0.57206140724E+01  0.40065563116E+00 -0.10571470534E+03  0.13405093504E+03  0.82226323697E+02 0.  0.
         -6    2    1    2    0  502  0.13325853674E+03  0.34415171719E+02 -0.98306657568E+02  0.24184179150E+03  0.17286124937E+03 0.  0.
        -24    2    5    5    0    0  0.14808158448E+03  0.65423961966E+02 -0.59474279449E+02  0.18977153697E+03  0.79168149303E+02 0.  0.
          5    1    3    3  501    0 -0.12753792267E+03 -0.34815827351E+02 -0.28791972799E+03  0.31685631337E+03  0.47000000000E+01 0. -1.
        -13    1    4    4    0    0 -0.70206001813E+01 -0.20341242402E+02 -0.11062307470E+03  0.11269658214E+03  0.00000000000E+00 0.  1.
         14    1    4    4    0    0  0.12999861089E+01  0.20741898034E+02  0.49083693601E+01  0.21354352898E+02  0.00000000000E+00 0. -1.
         -5    1    5    5    0  502 -0.14823047741E+02 -0.31008790247E+02 -0.38832378119E+02  0.52070254535E+02  0.47000000000E+01 0.  1.
         11    1    6    6    0    0  0.51091921783E+02  0.63391078261E+02 -0.40452632245E+02  0.90913303372E+02  0.00000000000E+00 0. -1.
        -12    1    6    6    0    0  0.96989662700E+02  0.20328837053E+01 -0.19021647204E+02  0.98858233593E+02  0.00000000000E+00 0.  1.
</event>
<event>
12    1  0.1623092E-001  0.2397542E+03  0.7818608E-02  0.1120021E+00
         21   -1    0    0  501  502  0.00000000000E+00  0.00000000000E+00  0.39516154694E+03  0.39516154694E+03  0.00000000000E+00 0.  1.
         21   -1    0    0  502  503 -0.00000000000E+00 -0.00000000000E+00 -0.19066292752E+03  0.19066292752E+03  0.00000000000E+00 0. -1.
         -6    2    1    2    0  503  0.37999499652E+02  0.16243206308E+03 -0.40795710700E+02  0.24282099391E+03  0.17166714300E+03 0.  0.
        -24    2    3    3    0    0 -0.18934262101E+02  0.21265447606E+02 -0.27532771690E+02  0.89956798948E+02  0.80767856335E+02 0.  0.
          6    2    1    2  501    0 -0.37999499652E+02 -0.16243206308E+03  0.24529433012E+03  0.34300348055E+03  0.17220320030E+03 0.  0.
         24    2    5    5    0    0 -0.75664819633E+02 -0.14417013973E+03  0.24502527875E+03  0.30088060598E+03  0.63099585654E+02 0.  0.
          5    1    5    5  501    0  0.37665319982E+02 -0.18261923345E+02  0.26905137428E+00  0.42122874572E+02  0.47000000000E+01 0. -1.
        -11    1    6    6    0    0 -0.32888285092E+02 -0.11187388511E+02  0.43399802872E+02  0.55590825208E+02  0.00000000000E+00 0.  1.
         12    1    6    6    0    0 -0.42776534542E+02 -0.13298275122E+03  0.20162547587E+03  0.24528978077E+03  0.00000000000E+00 0. -1.
         -5    1    3    3    0  503  0.56933761753E+02  0.14116661547E+03 -0.13262939010E+02  0.15286419497E+03  0.47000000000E+01 0.  1.
         13    1    4    4    0    0  0.52819977142E+01  0.42875061690E+02 -0.36202075196E+02  0.56362759543E+02  0.00000000000E+00 0. -1.
        -14    1    4    4    0    0 -0.24216259816E+02 -0.21609614084E+02  0.86693035063E+01  0.33594039406E+02  0.00000000000E+00 0.  1.
</event>
<event>
12    1  0.1623092E-001  0.1826348E+03  0.7818608E-02  0.1167065E+00
         21   -1    0    0  503  502  0.00000000000E+00  0.00000000000E+00  0.12304151888E+03  0.12304151888E+03  0.00000000000E+00 0.  1.
         21   -1    0    0  501  503 -0.00000000000E+00 -0.00000000000E+00 -0.46753968081E+03  0.46753968081E+03  0.00000000000E+00 0.  1.
          6    2    1    2  501    0  0.45443308440E+02 -0.41401065979E+02 -0.36686559308E+03  0.40658177926E+03  0.16413176809E+03 0.  0.
         24    2    3    3    0    0  0.59194192298E+02  0.13149970237E+02 -0.31230082262E+03  0.32806868141E+03  0.80127284959E+02 0.  0.
         -6    2    1    2    0  502 -0.45443308440E+02  0.41401065979E+02  0.22367431150E+02  0.18399942042E+03  0.17197773749E+03 0.  0.
        -24    2    5    5    0    0 -0.12616489098E+02  0.89676135880E+02 -0.23854848130E+01  0.12041578030E+03  0.79330224151E+02 0.  0.
          5    1    3    3  501    0 -0.13750883858E+02 -0.54551036217E+02 -0.54564770465E+02  0.78513097857E+02  0.47000000000E+01 0. -1.
        -13    1    4    4    0    0  0.19009193641E+02  0.38392632695E+02 -0.22160206070E+03  0.22570515500E+03  0.00000000000E+00 0.  1.
         14    1    4    4    0    0  0.40184998657E+02 -0.25242662458E+02 -0.90698761915E+02  0.10236352640E+03  0.00000000000E+00 0. -1.
         -5    1    5    5    0  502 -0.32826819342E+02 -0.48275069900E+02  0.24752915964E+02  0.63583640118E+02  0.47000000000E+01 0.  1.
         11    1    6    6    0    0 -0.32439395774E+02  0.70066236397E+02 -0.28412030510E+02  0.82272932114E+02  0.00000000000E+00 0. -1.
        -12    1    6    6    0    0  0.19822906676E+02  0.19609899483E+02  0.26026545697E+02  0.38142848186E+02  0.00000000000E+00 0.  1.
</event>
<event>
12    1  0.1623092E-001  0.2320983E+03  0.7818608E-02  0.1125446E+00
         21   -1    0    0  503  502  0.00000000000E+00  0.00000000000E+00  0.14488345429E+03  0.14488345429E+03  0.00000000000E+00 0.  1.
         21   -1    0    0  501  503 -0.00000000000E+00 -0.00000000000E+00 -0.42835905429E+03  0.42835905429E+03  0.00000000000E+00 0. -1.
          6    2    1    2  501    0  0.70843152674E+02  0.13757021727E+03 -0.24774969348E+03  0.33841071360E+03  0.17087300401E+03 0.  0.
         24    2    3    3    0    0  0.42374428547E+02  0.10196759527E+03 -0.67319456656E+02  0.15225170816E+03  0.80347313039E+02 0.  0.
         -6    2    1    2    0  502 -0.70843152674E+02 -0.13757021727E+03 -0.35725906526E+02  0.23483179498E+03  0.17298934816E+03 0.  0.
        -24    2    5    5    0    0 -0.24508858561E+02 -0.79863809639E+02 -0.87233574846E+02  0.14454322323E+03  0.79398580364E+02 0.  0.
          5    1    3    3  501    0  0.28468724127E+02  0.35602622001E+02 -0.18043023682E+03  0.18615900544E+03  0.47000000000E+01 0. -1.
        -13    1    4    4    0    0 -0.69624227415E+00 -0.13085989165E+02 -0.24710014040E+01  0.13335430764E+02  0.00000000000E+00 0.  1.
         14    1    4    4    0    0  0.43070670821E+02  0.11505358444E+03 -0.64848455252E+02  0.13891627740E+03  0.00000000000E+00 0. -1.
         -5    1    5    5    0  502 -0.46334294114E+02 -0.57706407635E+02  0.51507668320E+02  0.90288571752E+02  0.47000000000E+01 0.  1.
         13    1    6    6    0    0  0.19118435153E+02  0.46246878034E+01 -0.10139667755E+02  0.22129508855E+02  0.00000000000E+00 0. -1.
        -14    1    6    6    0    0 -0.43627293714E+02 -0.84488497442E+02 -0.77093907091E+02  0.12241371438E+03  0.00000000000E+00 0.  1.
</event>
<event>
12    1  0.1623092E-001  0.1872019E+03  0.7818608E-02  0.1161456E+00
         21   -1    0    0  503  502  0.00000000000E+00  0.00000000000E+00  0.23596421177E+04  0.23596421177E+04  0.00000000000E+00 0.  1.
         21   -1    0    0  501  503 -0.00000000000E+00 -0.00000000000E+00 -0.31053811033E+02  0.31053811033E+02  0.00000000000E+00 0.  1.
          6    2    1    2  501    0  0.57724717127E+02  0.39753622068E+02  0.29396213648E+03  0.34747587153E+03  0.17150291595E+03 0.  0.
         24    2    3    3    0    0  0.70878263515E+02 -0.30991272628E+02  0.19433300409E+03  0.22448843344E+03  0.81520261602E+02 0.  0.
         -6    2    1    2    0  502 -0.57724717127E+02 -0.39753622068E+02  0.20346261702E+04  0.20432200572E+04  0.17358587585E+03 0.  0.
        -24    2    5    5    0    0 -0.14078013970E+02 -0.83751634269E+02  0.10137637903E+04  0.10204674241E+04  0.80151197575E+02 0.  0.
          5    1    3    3  501    0 -0.13153546387E+02  0.70744894696E+02  0.99629132383E+02  0.12298743809E+03  0.47000000000E+01 0. -1.
        -13    1    4    4    0    0 -0.13803147285E+02 -0.16571523031E+02  0.17057149580E+02  0.27497065340E+02  0.00000000000E+00 0.  1.
         14    1    4    4    0    0  0.84681410800E+02 -0.14419749597E+02  0.17727585452E+03  0.19699136810E+03  0.00000000000E+00 0. -1.
         -5    1    5    5    0  502 -0.43646703158E+02  0.43998012201E+02  0.10208623800E+04  0.10227526331E+04  0.47000000000E+01 0.  1.
         11    1    6    6    0    0  0.30475730932E+02 -0.33493262016E+02  0.28021798004E+03  0.28385328097E+03  0.00000000000E+00 0. -1.
        -12    1    6    6    0    0 -0.44553744902E+02 -0.50258372253E+02  0.73354581023E+03  0.73661414314E+03  0.00000000000E+00 0.  1.
</event>
<event>
12    1  0.1623092E-001  0.2103513E+03  0.7818608E-02  0.1141548E+00
         21   -1    0    0  503  502  0.00000000000E+00  0.00000000000E+00  0.90495216515E+03  0.90495216515E+03  0.00000000000E+00 0.  1.
         21   -1    0    0  501  503 -0.00000000000E+00 -0.00000000000E+00 -0.34242322404E+03  0.34242322404E+03  0.00000000000E+00 0. -1.
          6    2    1    2  501    0 -0.61219722146E+01 -0.11967117271E+03 -0.29660337971E+03  0.36286647755E+03  0.17128878408E+03 0.  0.
         24    2    3    3    0    0  0.22148585411E+02 -0.71194977454E+02 -0.70929447938E+02  0.13027245481E+03  0.79878916155E+02 0.  0.
         -6    2    1    2    0  502  0.61219722146E+01  0.11967117271E+03  0.85913232082E+03  0.88450891164E+03  0.17288436010E+03 0.  0.
        -24    2    5    5    0    0  0.69719643285E+02  0.69387062382E+02  0.49923201543E+03  0.51555976157E+03  0.83029328741E+02 0.  0.
          5    1    3    3  501    0 -0.28270557625E+02 -0.48476195259E+02 -0.22567393177E+03  0.23259402274E+03  0.47000000000E+01 0. -1.
        -13    1    4    4    0    0 -0.27050409432E+02 -0.27965381777E+02 -0.45870908751E+02  0.60149210286E+02  0.00000000000E+00 0.  1.
         14    1    4    4    0    0  0.49198994843E+02 -0.43229595676E+02 -0.25058539187E+02  0.70123244520E+02  0.00000000000E+00 0. -1.
         -5    1    5    5    0  502 -0.63597671071E+02  0.50284110331E+02  0.35990030539E+03  0.36894915007E+03  0.47000000000E+01 0.  1.
         13    1    6    6    0    0  0.18178985694E+02 -0.12832392349E+02  0.36385853624E+02  0.42650629048E+02  0.00000000000E+00 0. -1.
        -14    1    6    6    0    0  0.51540657591E+02  0.82219454731E+02  0.46284616180E+03  0.47290913252E+03  0.00000000000E+00 0.  1.
</event>
<event>
12    1  0.1623092E-001  0.2363104E+03  0.7818608E-02  0.1122362E+00
         21   -1    0    0  503  502  0.00000000000E+00  0.00000000000E+00  0.12819640193E+03  0.12819640193E+03  0.00000000000E+00 0. -1.
         21   -1    0    0  501  503 -0.00000000000E+00 -0.00000000000E+00 -0.84289757853E+03  0.84289757853E+03  0.00000000000E+00 0. -1.
          6    2    1    2  501    0 -0.86122750284E+02  0.13596547645E+03 -0.69506052878E+03  0.73396878598E+03  0.17232904928E+03 0.  0.
         24    2    3    3    0    0 -0.12192390465E+03  0.13356577266E+03 -0.61612264314E+03  0.64713123061E+03  0.80414327681E+02 0.  0.
         -6    2    1    2    0  502  0.86122750284E+02 -0.13596547645E+03 -0.19640647823E+02  0.23712519447E+03  0.17302850605E+03 0.  0.
        -24    2    5    5    0    0 -0.13125105932E+02 -0.96513815932E+02  0.60636811894E+01  0.12717350958E+03  0.81542309498E+02 0.  0.
          5    1    3    3  501    0  0.35801154369E+02  0.23997037820E+01 -0.78937885646E+02  0.86837555370E+02  0.47000000000E+01 0. -1.
        -11    1    4    4    0    0 -0.12725038254E+03  0.11956677802E+03 -0.49116536029E+03  0.52127946958E+03  0.00000000000E+00 0.  1.
         12    1    4    4    0    0  0.53264778821E+01  0.13998994644E+02 -0.12495728285E+03  0.12585176103E+03  0.00000000000E+00 0. -1.
         -5    1    5    5    0  502  0.99247856216E+02 -0.39451660515E+02 -0.25704329012E+02  0.10995168489E+03  0.47000000000E+01 0.  1.
         13    1    6    6    0    0  0.29819258997E+02 -0.62788675585E+02 -0.10071018773E+02  0.70235542341E+02  0.00000000000E+00 0. -1.
        -14    1    6    6    0    0 -0.42944364929E+02 -0.33725140347E+02  0.16134699962E+02  0.56937967240E+02  0.00000000000E+00 0.  1.
</event>
<event>
12    1  0.1623092E-001  0.2454164E+03  0.7818608E-02  0.1116255E+00
         21   -1    0    0  503  502  0.00000000000E+00  0.00000000000E+00  0.20003896120E+03  0.20003896120E+03  0.00000000000E+00 0. -1.
         21   -1    0    0  501  503 -0.00000000000E+00 -0.00000000000E+00 -0.31553906316E+03  0.31553906316E+03  0.00000000000E+00 0.  1.
          6    2    1    2  501    0 -0.17124399487E+03  0.35994281234E+02 -0.23239703082E+01  0.24542744117E+03  0.17207304838E+03 0.  0.
         24    2    3    3    0    0 -0.13767854807E+03 -0.34701801088E+02 -0.22886206941E+02  0.16437516884E+03  0.79597864703E+02 0.  0.
         -6    2    1    2    0  502  0.17124399487E+03 -0.35994281234E+02 -0.11317613165E+03  0.27015058319E+03  0.17190813466E+03 0.  0.
        -24    2    5    5    0    0  0.11289258884E+03 -0.77283814781E+02 -0.11911270272E+03  0.19826842238E+03  0.80031285887E+02 0.  0.
          5    1    3    3  501    0 -0.33565446800E+02  0.70696082322E+02  0.20562236633E+02  0.81052272330E+02  0.47000000000E+01 0. -1.
        -11    1    4    4    0    0 -0.10222358841E+03 -0.37608218175E+02  0.17759596693E+02  0.11036051548E+03  0.00000000000E+00 0.  1.
         12    1    4    4    0    0 -0.35454959663E+02  0.29064170871E+01 -0.40645803634E+02  0.54014653364E+02  0.00000000000E+00 0. -1.
         -5    1    5    5    0  502  0.58351406031E+02  0.41289533547E+02  0.59365710751E+01  0.71882160808E+02  0.47000000000E+01 0.  1.
         13    1    6    6    0    0  0.11041114978E+03 -0.64076031594E+02 -0.66446973599E+02  0.14391511429E+03  0.00000000000E+00 0. -1.
        -14    1    6    6    0    0  0.24814390660E+01 -0.13207783186E+02 -0.52665729124E+02  0.54353308094E+02  0.00000000000E+00 0.  1.
</event>
<event>
12    1  0.1623092E-001  0.2304012E+03  0.7818608E-02  0.1126515E+00
         21   -1    0    0  503  502  0.00000000000E+00  0.00000000000E+00  0.12864816940E+03  0.12864816940E+03  0.00000000000E+00 0.  1.
         21   -1    0    0  501  503 -0.00000000000E+00 -0.00000000000E+00 -0.47467393938E+03  0.47467393938E+03  0.00000000000E+00 0.  1.
          6    2    1    2  501    0 -0.10099597373E+03  0.11450463127E+03 -0.28317583003E+03  0.36450242251E+03  0.17135334258E+03 0.  0.
         24    2    3    3    0    0 -0.10660117345E+03  0.62027732729E+02 -0.10958523015E+03  0.18300578477E+03  0.79189297153E+02 0.  0.
         -6    2    1    2    0  502  0.10099597373E+03 -0.11450463127E+03 -0.62849939948E+02  0.23881968628E+03  0.17254921127E+03 0.  0.
        -24    2    5    5    0    0  0.92713638586E+02 -0.95622894307E+01 -0.30700167972E+02  0.12865077041E+03  0.83194135939E+02 0.  0.
          5    1    3    3  501    0  0.56051997228E+01  0.52476898536E+02 -0.17359059988E+03  0.18149663774E+03  0.47000000000E+01 0. -1.
        -13    1    4    4    0    0 -0.21828938598E+02  0.57393854114E+02 -0.51448235798E+02  0.80109163128E+02  0.00000000000E+00 0.  1.
         14    1    4    4    0    0 -0.84772234852E+02  0.46338786150E+01 -0.58136994349E+02  0.10289662164E+03  0.00000000000E+00 0. -1.
         -5    1    5    5    0  502  0.82823351423E+01 -0.10494234183E+03 -0.32149771976E+02  0.11016891587E+03  0.47000000000E+01 0.  1.
         13    1    6    6    0    0  0.87059548557E+02 -0.36170829520E+02 -0.36040776038E+02  0.10092884345E+03  0.00000000000E+00 0. -1.
        -14    1    6    6    0    0  0.56540900281E+01  0.26608540090E+02  0.53406080657E+01  0.27721926958E+02  0.00000000000E+00 0.  1.
</event>
<event>
12    1  0.1623092E-001  0.2028228E+03  0.7818608E-02  0.1147556E+00
         21   -1    0    0  501  502  0.00000000000E+00  0.00000000000E+00  0.38202290708E+03  0.38202290708E+03  0.00000000000E+00 0.  1.
         21   -1    0    0  502  503 -0.00000000000E+00 -0.00000000000E+00 -0.11364535140E+03  0.11364535140E+03  0.00000000000E+00 0.  1.
         -6    2    1    2    0  503  0.67144467708E+02  0.82600314337E+02  0.19334487440E+03  0.28021298551E+03  0.17264381055E+03 0.  0.
        -24    2    3    3    0    0  0.84199485331E+02  0.88342707845E+02  0.81819567421E+02  0.16714737268E+03  0.79685727837E+02 0.  0.
          6    2    1    2  501    0 -0.67144467708E+02 -0.82600314337E+02  0.75032681283E+02  0.21545527297E+03  0.17163880656E+03 0.  0.
         24    2    5    5    0    0 -0.13758897903E+01  0.17771088826E+02  0.38553363406E+02  0.89945293095E+02  0.79284861413E+02 0.  0.
          5    1    5    5  501    0 -0.65768577918E+02 -0.10037140316E+03  0.36479317877E+02  0.12550997987E+03  0.47000000000E+01 0. -1.
        -13    1    6    6    0    0 -0.32011572031E+02  0.16930063904E+02 -0.51394430273E+01  0.36575697975E+02  0.00000000000E+00 0.  1.
         14    1    6    6    0    0  0.30635682241E+02  0.84102492161E+00  0.43692806433E+02  0.53369595120E+02  0.00000000000E+00 0. -1.
         -5    1    3    3    0  503 -0.17055017623E+02 -0.57423935075E+01  0.11152530698E+03  0.11306561283E+03  0.47000000000E+01 0.  1.
         11    1    4    4    0    0  0.46935367654E+02  0.51200210632E+02 -0.48918304761E+00  0.69459553739E+02  0.00000000000E+00 0. -1.
        -12    1    4    4    0    0  0.37264117678E+02  0.37142497213E+02  0.82308750468E+02  0.97687818940E+02  0.00000000000E+00 0.  1.
</event>
<event>
12    1  0.1623092E-001  0.2423315E+03  0.7818608E-02  0.1119538E+00
         21   -1    0    0  501  502  0.00000000000E+00  0.00000000000E+00  0.76667422499E+03  0.76667422499E+03  0.00000000000E+00 0. -1.
         21   -1    0    0  502  503 -0.00000000000E+00 -0.00000000000E+00 -0.13983337190E+03  0.13983337190E+03  0.00000000000E+00 0.  1.
         -6    2    1    2    0  503  0.57437428482E+01  0.15970340605E+03  0.55565256936E+01  0.24239519009E+03  0.18217130596E+03 0.  0.
        -24    2    3    3    0    0 -0.20743719850E+02  0.18545106224E+03  0.15434946447E+02  0.20386986497E+03  0.80636752606E+02 0.  0.
          6    2    1    2  501    0 -0.57437428482E+01 -0.15970340605E+03  0.62128432739E+03  0.66411240680E+03  0.17179320394E+03 0.  0.
         24    2    5    5    0    0  0.40839019603E+02 -0.73828274637E+02  0.17927515415E+03  0.21141085923E+03  0.73732834227E+02 0.  0.
          5    1    5    5  501    0 -0.46582762452E+02 -0.85875131416E+02  0.44200917324E+03  0.45270154758E+03  0.47000000000E+01 0. -1.
        -11    1    6    6    0    0 -0.29789353118E+01 -0.67743801924E+02  0.10799202990E+03  0.12751617653E+03  0.00000000000E+00 0.  1.
         12    1    6    6    0    0  0.43817954915E+02 -0.60844727125E+01  0.71283124257E+02  0.83894682698E+02  0.00000000000E+00 0. -1.
         -5    1    3    3    0  503  0.26487462699E+02 -0.25747656186E+02 -0.98784207535E+01  0.38525325124E+02  0.47000000000E+01 0.  1.
         11    1    4    4    0    0 -0.23919212393E+02  0.55433722704E+02  0.38750995713E+02  0.71740267654E+02  0.00000000000E+00 0. -1.
        -12    1    4    4    0    0  0.31754925428E+01  0.13001733953E+03 -0.23316049266E+02  0.13212959731E+03  0.00000000000E+00 0.  1.
</event>
<event>
12    1  0.1623092E-001  0.2206735E+03  0.7818608E-02  0.1133522E+00
         21   -1    0    0  501  502  0.00000000000E+00  0.00000000000E+00  0.28397295715E+03  0.28397295715E+03  0.00000000000E+00 0.  1.
         21   -1    0    0  502  503 -0.00000000000E+00 -0.00000000000E+00 -0.18272937883E+03  0.18272937883E+03  0.00000000000E+00 0.  1.
         -6    2    1    2    0  503 -0.11787476346E+03 -0.71658183850E+02 -0.86679203003E+01  0.22084362850E+03  0.17224232996E+03 0.  0.
        -24    2    3    3    0    0 -0.47668445303E+02 -0.92274398046E+02 -0.45830829340E+02  0.13864188152E+03  0.79588071857E+02 0.  0.
          6    2    1    2  501    0  0.11787476346E+03  0.71658183850E+02  0.10991149862E+03  0.24585870748E+03  0.17127933717E+03 0.  0.
         24    2    5    5    0    0  0.39848519535E+02  0.50904008560E+02  0.12688360055E+03  0.16322110843E+03  0.79765653968E+02 0.  0.
          5    1    5    5  501    0  0.78026243927E+02  0.20754175290E+02 -0.16972101922E+02  0.82637599052E+02  0.47000000000E+01 0. -1.
        -13    1    6    6    0    0  0.54658770179E+02  0.27390516174E+02  0.11986969076E+03  0.13456063427E+03  0.00000000000E+00 0.  1.
         14    1    6    6    0    0 -0.14810250644E+02  0.23513492386E+02  0.70139097876E+01  0.28660474156E+02  0.00000000000E+00 0. -1.
         -5    1    3    3    0  503 -0.70206318160E+02  0.20616214195E+02  0.37162909040E+02  0.82201746974E+02  0.47000000000E+01 0.  1.
         11    1    4    4    0    0 -0.91629819956E+01 -0.17079806188E+02  0.22708239455E+02  0.29855387414E+02  0.00000000000E+00 0. -1.
        -12    1    4    4    0    0 -0.38505463307E+02 -0.75194591857E+02 -0.68539068796E+02  0.10878649411E+03  0.00000000000E+00 0.  1.
</event>
<event>
12    1  0.1623092E-001  0.1948344E+03  0.7818608E-02  0.1154309E+00
         21   -1    0    0  501  502  0.00000000000E+00  0.00000000000E+00  0.18485327510E+04  0.18485327510E+04  0.00000000000E+00 0. -1.
         21   -1    0    0  502  503 -0.00000000000E+00 -0.00000000000E+00 -0.20472863648E+02  0.20472863648E+02  0.00000000000E+00 0. -1.
         -6    2    1    2    0  503 -0.86284214547E+02  0.79567266966E+01  0.90329052865E+03  0.92406396476E+03  0.17450546308E+03 0.  0.
        -24    2    3    3    0    0 -0.91908339906E+02  0.62053179254E+02  0.55731779177E+03  0.57381079686E+03  0.79736877068E+02 0.  0.
          6    2    1    2  501    0  0.86284214547E+02 -0.79567266966E+01  0.92476935867E+03  0.94494164985E+03  0.17380471718E+03 0.  0.
         24    2    5    5    0    0  0.10507560772E+03 -0.40512381177E+02  0.50954305647E+03  0.52799086242E+03  0.80362230209E+02 0.  0.
          5    1    5    5  501    0 -0.18791393173E+02  0.32555654480E+02  0.41522630221E+03  0.41695078743E+03  0.47000000000E+01 0. -1.
        -11    1    6    6    0    0 -0.12455046256E+02 -0.14514189300E+01  0.78964827648E+02  0.79954229404E+02  0.00000000000E+00 0.  1.
         12    1    6    6    0    0  0.11753065398E+03 -0.39060962247E+02  0.43057822882E+03  0.44803663302E+03  0.00000000000E+00 0. -1.
         -5    1    3    3    0  503  0.56241253589E+01 -0.54096452558E+02  0.34597273688E+03  0.35025316790E+03  0.47000000000E+01 0.  1.
         11    1    4    4    0    0 -0.58533308994E+02  0.60510480240E+02  0.50332112016E+03  0.51031344925E+03  0.00000000000E+00 0. -1.
        -12    1    4    4    0    0 -0.33375030911E+02  0.15426990136E+01  0.53996671607E+02  0.63497347608E+02  0.00000000000E+00 0.  1.
</event>
<event>
12    1  0.1623092E-001  0.1916744E+03  0.7818608E-02  0.1156981E+00
         21   -1    0    0  503  502  0.00000000000E+00  0.00000000000E+00  0.80938793782E+03  0.80938793782E+03  0.00000000000E+00 0. -1.
         21   -1    0    0  501  503 -0.00000000000E+00 -0.00000000000E+00 -0.51775481254E+02  0.51775481254E+02  0.00000000000E+00 0.  1.
          6    2    1    2  501    0  0.50339597640E+01  0.82782836196E+02  0.22742510185E+03  0.29742439664E+03  0.17280265058E+03 0.  0.
         24    2    3    3    0    0  0.27484486410E+02  0.10560861327E+03  0.10458612661E+03  0.17039469113E+03  0.78660769740E+02 0.  0.
         -6    2    1    2    0  502 -0.50339597640E+01 -0.82782836196E+02  0.53018735472E+03  0.56373902243E+03  0.17269833696E+03 0.  0.
        -24    2    5    5    0    0  0.24099319533E+02 -0.11364986942E+03  0.33061483845E+03  0.35964884395E+03  0.80895299810E+02 0.  0.
          5    1    3    3  501    0 -0.22450526646E+02 -0.22825777069E+02  0.12283897524E+03  0.12702970552E+03  0.47000000000E+01 0. -1.
        -13    1    4    4    0    0  0.21696390198E+02  0.11293840519E+03  0.11038013146E+03  0.15940385860E+03  0.00000000000E+00 0.  1.
         14    1    4    4    0    0  0.57880962112E+01 -0.73297919282E+01 -0.57940048501E+01  0.10990832528E+02  0.00000000000E+00 0. -1.
         -5    1    5    5    0  502 -0.29133279297E+02  0.30867033221E+02  0.19957251627E+03  0.20409017848E+03  0.47000000000E+01 0.  1.
         11    1    6    6    0    0  0.43702054532E+02 -0.10416313974E+03  0.22443417648E+03  0.25125789306E+03  0.00000000000E+00 0. -1.
        -12    1    6    6    0    0 -0.19602734999E+02 -0.94867296775E+01  0.10618066197E+03  0.10839095090E+03  0.00000000000E+00 0.  1.
</event>
<event>
12    1  0.1623092E-001  0.2138028E+03  0.7818608E-02  0.1138945E+00
         21   -1    0    0  501  502  0.00000000000E+00  0.00000000000E+00  0.71294913260E+02  0.71294913260E+02  0.00000000000E+00 0. -1.
         21   -1    0    0  502  503 -0.00000000000E+00 -0.00000000000E+00 -0.67655063328E+03  0.67655063328E+03  0.00000000000E+00 0.  1.
         -6    2    1    2    0  503  0.93542115526E+02  0.85190359497E+02 -0.21195410597E+03  0.30105845841E+03  0.17234885441E+03 0.  0.
        -24    2    3    3    0    0 -0.20755391702E+02  0.43287867068E+02 -0.73879823877E+02  0.11692172550E+03  0.76862447259E+02 0.  0.
          6    2    1    2  501    0 -0.93542115526E+02 -0.85190359497E+02 -0.39330161404E+03  0.44678708812E+03  0.17007356577E+03 0.  0.
         24    2    5    5    0    0  0.11859980825E+02 -0.72681801788E+01 -0.13991343752E+03  0.16146424301E+03  0.79381648898E+02 0.  0.
          5    1    5    5  501    0 -0.10540209635E+03 -0.77922179318E+02 -0.25338817652E+03  0.28532284512E+03  0.47000000000E+01 0. -1.
        -13    1    6    6    0    0 -0.19098573660E+02  0.20240872016E+02 -0.10053918348E+03  0.10431958508E+03  0.00000000000E+00 0.  1.
         14    1    6    6    0    0  0.30958554485E+02 -0.27509052195E+02 -0.39374254045E+02  0.57144657931E+02  0.00000000000E+00 0. -1.
         -5    1    3    3    0  503  0.11429750723E+03  0.41902492429E+02 -0.13807428210E+03  0.18413673291E+03  0.47000000000E+01 0.  1.
         13    1    4    4    0    0  0.24450557723E+02 -0.42119636369E+01 -0.16578595125E+02  0.29839909969E+02  0.00000000000E+00 0. -1.
        -14    1    4    4    0    0 -0.45205949425E+02  0.47499830704E+02 -0.57301228752E+02  0.87081815535E+02  0.00000000000E+00 0.  1.
</event>
<event>
12    1  0.1623092E-001  0.1975190E+03  0.7818608E-02  0.1151853E+00
         21   -1    0    0  503  502  0.00000000000E+00  0.00000000000E+00  0.12786932659E+04  0.12786932659E+04  0.00000000000E+00 0. -1.
         21   -1    0    0  501  503 -0.00000000000E+00 -0.00000000000E+00 -0.45964064122E+02  0.45964064122E+02  0.00000000000E+00 0. -1.
          6    2    1    2  501    0 -0.28337910808E+01  0.96309449822E+02  0.23231074637E+03  0.30492954673E+03  0.17242449099E+03 0.  0.
         24    2    3    3    0    0  0.62649711310E+02  0.77905246499E+02  0.13298033923E+03  0.18444957508E+03  0.79647105200E+02 0.  0.
         -6    2    1    2    0  502  0.28337910808E+01 -0.96309449822E+02  0.10004184554E+04  0.10197277833E+04  0.17240686066E+03 0.  0.
        -24    2    5    5    0    0 -0.58546741336E+02 -0.57097324429E+02  0.42909069386E+03  0.44375672355E+03  0.78188111417E+02 0.  0.
          5    1    3    3  501    0 -0.65483502391E+02  0.18404203323E+02  0.99330407142E+02  0.12047997165E+03  0.47000000000E+01 0. -1.
        -13    1    4    4    0    0  0.36863873416E+02  0.72405812166E+02  0.13546919242E+03  0.15796660689E+03  0.00000000000E+00 0.  1.
         14    1    4    4    0    0  0.25785837894E+02  0.54994343329E+01 -0.24888531893E+01  0.26482968188E+02  0.00000000000E+00 0. -1.
         -5    1    5    5    0  502  0.61380532417E+02 -0.39212125393E+02  0.57132776157E+03  0.57597105976E+03  0.47000000000E+01 0.  1.
         11    1    6    6    0    0  0.11603153180E+01 -0.51760200884E+02  0.23424536677E+03  0.23989863814E+03  0.00000000000E+00 0. -1.
        -12    1    6    6    0    0 -0.59707056654E+02 -0.53371235454E+01  0.19484532709E+03  0.20385808542E+03  0.00000000000E+00 0.  1.
</event>
<event>
12    1  0.1623092E-001  0.4061820E+03  0.7818608E-02  0.1041775E+00
         21   -1    0    0  503  502  0.00000000000E+00  0.00000000000E+00  0.35110088365E+03  0.35110088365E+03  0.00000000000E+00 0.  1.
         21   -1    0    0  501  503 -0.00000000000E+00 -0.00000000000E+00 -0.57669210497E+03  0.57669210497E+03  0.00000000000E+00 0.  1.
          6    2    1    2  501    0  0.11244497244E+03 -0.35003878900E+03 -0.31372151788E+03  0.51216005428E+03  0.16945708832E+03 0.  0.
         24    2    3    3    0    0  0.95978890474E+02 -0.35381328671E+03 -0.32098741344E+03  0.49317948721E+03  0.76139987831E+02 0.  0.
         -6    2    1    2    0  502 -0.11244497244E+03  0.35003878900E+03  0.88130296557E+02  0.41563293434E+03  0.17266372318E+03 0.  0.
        -24    2    5    5    0    0 -0.18978394557E+02  0.14068569443E+03 -0.17185279360E+02  0.16328757591E+03  0.78834348756E+02 0.  0.
          5    1    3    3  501    0  0.16466081966E+02  0.37744977053E+01  0.72658955551E+01  0.18980567074E+02  0.47000000000E+01 0. -1.
        -11    1    4    4    0    0  0.69620136299E+02 -0.32409196617E+03 -0.30468271844E+03  0.45023785362E+03  0.00000000000E+00 0.  1.
         12    1    4    4    0    0  0.26358754176E+02 -0.29721320537E+02 -0.16304694998E+02  0.42941633587E+02  0.00000000000E+00 0. -1.
         -5    1    5    5    0  502 -0.93466577883E+02  0.20935309458E+03  0.10531557592E+03  0.25234535843E+03  0.47000000000E+01 0.  1.
         11    1    6    6    0    0  0.59929172480E+00  0.36483087027E+01 -0.24392678229E+02  0.24671280026E+02  0.00000000000E+00 0. -1.
        -12    1    6    6    0    0 -0.19577686282E+02  0.13703738572E+03  0.72073988688E+01  0.13861629588E+03  0.00000000000E+00 0.  1.
</event>
<event>
12    1  0.1623092E-001  0.1970102E+03  0.7818608E-02  0.1152376E+00
         21   -1    0    0  503  502  0.00000000000E+00  0.00000000000E+00  0.14314333563E+04  0.14314333563E+04  0.00000000000E+00 0. -1.
         21   -1    0    0  501  503 -0.00000000000E+00 -0.00000000000E+00 -0.66232336603E+02  0.66232336603E+02  0.00000000000E+00 0. -1.
          6    2    1    2  501    0 -0.94370140094E+02  0.98051845262E+01  0.10698750534E+03  0.22418597514E+03  0.17265908654E+03 0.  0.
         24    2    3    3    0    0 -0.12101407377E+03  0.12116953173E+02  0.12277880791E+03  0.19277421439E+03  0.85416833577E+02 0.  0.
         -6    2    1    2    0  502  0.94370140094E+02 -0.98051845262E+01  0.12582135144E+04  0.12734797178E+04  0.17218443268E+03 0.  0.
        -24    2    5    5    0    0  0.52645658875E+02  0.60761518297E+02  0.66229239145E+03  0.67192783587E+03  0.79951718823E+02 0.  0.
          5    1    3    3  501    0  0.26643933676E+02 -0.23117686468E+01 -0.15791302574E+02  0.31411760743E+02  0.47000000000E+01 0. -1.
        -11    1    4    4    0    0 -0.13703301024E+02  0.32644711519E+02  0.50868652862E+02  0.61976426915E+02  0.00000000000E+00 0.  1.
         12    1    4    4    0    0 -0.10731077275E+03 -0.20527758346E+02  0.71910155050E+02  0.13079778748E+03  0.00000000000E+00 0. -1.
         -5    1    5    5    0  502  0.41724481219E+02 -0.70566702824E+02  0.59592112290E+03  0.60155188189E+03  0.47000000000E+01 0.  1.
         13    1    6    6    0    0  0.27142414194E+02 -0.16032630316E+02  0.14919659697E+03  0.15249059128E+03  0.00000000000E+00 0. -1.
        -14    1    6    6    0    0  0.25503244681E+02  0.76794148614E+02  0.51309579448E+03  0.51943724459E+03  0.00000000000E+00 0.  1.
</event>
<event>
12    1  0.1623092E-001  0.1819966E+03  0.7818608E-02  0.1166441E+00
         21   -1    0    0  503  502  0.00000000000E+00  0.00000000000E+00  0.68654449549E+02  0.68654449549E+02  0.00000000000E+00 0. -1.
         21   -1    0    0  501  503 -0.00000000000E+00 -0.00000000000E+00 -0.52266832717E+03  0.52266832717E+03  0.00000000000E+00 0. -1.
          6    2    1    2  501    0  0.19985440578E+02  0.49885796145E+02 -0.14030458385E+03  0.22980021552E+03  0.17388143176E+03 0.  0.
         24    2    3    3    0    0  0.30137211780E+02  0.79106652853E+02 -0.36659016994E+02  0.12153475263E+03  0.79124575893E+02 0.  0.
         -6    2    1    2    0  502 -0.19985440578E+02 -0.49885796145E+02 -0.31370929377E+03  0.36152256120E+03  0.17145562332E+03 0.  0.
        -24    2    5    5    0    0  0.24771043362E+02 -0.18536163599E+02 -0.28897731967E+03  0.30135859476E+03  0.79698917177E+02 0.  0.
          5    1    3    3  501    0 -0.10151771201E+02 -0.29220856709E+02 -0.10364556686E+03  0.10826546289E+03  0.47000000000E+01 0. -1.
        -11    1    4    4    0    0 -0.48489011637E+01  0.13235620624E+02 -0.44366507735E+02  0.46551911930E+02  0.00000000000E+00 0.  1.
         12    1    4    4    0    0  0.34986112943E+02  0.65871032230E+02  0.77074907404E+01  0.74982840700E+02  0.00000000000E+00 0. -1.
         -5    1    5    5    0  502 -0.44756483941E+02 -0.31349632545E+02 -0.24731974097E+02  0.60163966443E+02  0.47000000000E+01 0.  1.
         11    1    6    6    0    0 -0.48749377876E+01 -0.45115943203E+02 -0.16640100041E+03  0.17247755300E+03  0.00000000000E+00 0. -1.
        -12    1    6    6    0    0  0.29645981150E+02  0.26579779603E+02 -0.12257631926E+03  0.12888104176E+03  0.00000000000E+00 0.  1.
</event>
<event>
12    1  0.1623092E-001  0.2217674E+03  0.7818608E-02  0.1132591E+00
         21   -1    0    0  501  502  0.00000000000E+00  0.00000000000E+00  0.75072158598E+03  0.75072158598E+03  0.00000000000E+00 0.  1.
         21   -1    0    0  502  503 -0.00000000000E+00 -0.00000000000E+00 -0.82319510841E+02  0.82319510841E+02  0.00000000000E+00 0.  1.
         -6    2    1    2    0  503  0.61881167205E+02 -0.12557354376E+03  0.14576328888E+03  0.26529814169E+03  0.17186673283E+03 0.  0.
        -24    2    3    3    0    0 -0.12457892718E+02 -0.97715599782E+01  0.45435697938E+02  0.94933501046E+02  0.81836938471E+02 0.  0.
          6    2    1    2  501    0 -0.61881167205E+02  0.12557354376E+03  0.52263878626E+03  0.56774295514E+03  0.17199641989E+03 0.  0.
         24    2    5    5    0    0 -0.78821497816E+01  0.14067369127E+03  0.42483539080E+03  0.45490899526E+03  0.81276497152E+02 0.  0.
          5    1    5    5  501    0 -0.53999017423E+02 -0.15100147516E+02  0.97803395462E+02  0.11283395988E+03  0.47000000000E+01 0. -1.
        -11    1    6    6    0    0 -0.19282777969E+02  0.83366232884E+02  0.13949751088E+03  0.16364996136E+03  0.00000000000E+00 0.  1.
         12    1    6    6    0    0  0.11400628187E+02  0.57307458387E+02  0.28533787992E+03  0.29125903390E+03  0.00000000000E+00 0. -1.
         -5    1    3    3    0  503  0.74339059923E+02 -0.11580198378E+03  0.10032759094E+03  0.17036464064E+03  0.47000000000E+01 0.  1.
         13    1    4    4    0    0 -0.33020582515E+02 -0.40202619045E+01  0.60334927909E+02  0.68897205322E+02  0.00000000000E+00 0. -1.
        -14    1    4    4    0    0  0.20562689797E+02 -0.57512980736E+01 -0.14899229972E+02  0.26036295723E+02  0.00000000000E+00 0.  1.
</event>
<event>
12    1  0.1623092E-001  0.2069024E+03  0.7818608E-02  0.1144966E+00
         21   -1    0    0  501  502  0.00000000000E+00  0.00000000000E+00  0.21383274836E+03  0.21383274836E+03  0.00000000000E+00 0.  1.
         21   -1    0    0  502  503 -0.00000000000E+00 -0.00000000000E+00 -0.24101394524E+03  0.24101394524E+03  0.00000000000E+00 0.  1.
         -6    2    1    2    0  503  0.87152731819E+02  0.58528959439E+02 -0.11216163895E+03  0.23534836880E+03  0.17829016712E+03 0.  0.
        -24    2    3    3    0    0  0.11775882282E+03  0.15899830479E+01 -0.88393950105E+02  0.16631379144E+03  0.77311825822E+02 0.  0.
          6    2    1    2  501    0 -0.87152731819E+02 -0.58528959439E+02  0.84980442069E+02  0.21949832479E+03  0.17302196767E+03 0.  0.
         24    2    5    5    0    0 -0.80576083216E+02  0.94829821280E+00 -0.63699692710E+01  0.11019240484E+03  0.74889152220E+02 0.  0.
          5    1    5    5  501    0 -0.65766486035E+01 -0.59477257651E+02  0.91350411340E+02  0.10930591995E+03  0.47000000000E+01 0. -1.
        -11    1    6    6    0    0 -0.16510744428E+02 -0.92138777998E+01  0.30272452848E+02  0.35692038708E+02  0.00000000000E+00 0.  1.
         12    1    6    6    0    0 -0.64065338787E+02  0.10162176013E+02 -0.36642422119E+02  0.74500366133E+02  0.00000000000E+00 0. -1.
         -5    1    3    3    0  503 -0.30606090996E+02  0.56938976391E+02 -0.23767688843E+02  0.69034577361E+02  0.47000000000E+01 0.  1.
         13    1    4    4    0    0  0.13039114084E+02 -0.11514325141E+02  0.11616652136E+02  0.20917571236E+02  0.00000000000E+00 0. -1.
        -14    1    4    4    0    0  0.10471970873E+03  0.13104308189E+02 -0.10001060224E+03  0.14539622021E+03  0.00000000000E+00 0.  1.
</event>
<event>
12    1  0.1623092E-001  0.2429778E+03  0.7818608E-02  0.1117849E+00
         21   -1    0    0  503  502  0.00000000000E+00  0.00000000000E+00  0.72556303172E+03  0.72556303172E+03  0.00000000000E+00 0.  1.
         21   -1    0    0  501  503 -0.00000000000E+00 -0.00000000000E+00 -0.81430477700E+02  0.81430477700E+02  0.00000000000E+00 0. -1.
          6    2    1    2  501    0  0.13293856786E+03 -0.10874053224E+03  0.30722589358E+03  0.39169623941E+03  0.17187503631E+03 0.  0.
         24    2    3    3    0    0  0.23357597589E+02 -0.64423631019E+02  0.22165121921E+03  0.24569250086E+03  0.80867548499E+02 0.  0.
         -6    2    1    2    0  502 -0.13293856786E+03  0.10874053224E+03  0.33690666043E+03  0.41529727000E+03  0.17166408609E+03 0.  0.
        -24    2    5    5    0    0 -0.15684492978E+03  0.66450959665E+02  0.22485824768E+03  0.29308082721E+03  0.79492626625E+02 0.  0.
          5    1    3    3  501    0  0.10958097027E+03 -0.44316901220E+02  0.85574674370E+02  0.14600373855E+03  0.47000000000E+01 0. -1.
        -11    1    4    4    0    0  0.16609260087E+02 -0.72068428460E+02  0.22342022548E+03  0.23534299024E+03  0.00000000000E+00 0.  1.
         12    1    4    4    0    0  0.67483375021E+01  0.76447974409E+01 -0.17690062630E+01  0.10349510622E+02  0.00000000000E+00 0. -1.
         -5    1    5    5    0  502  0.23906361930E+02  0.42289572574E+02  0.11204841275E+03  0.12221644279E+03  0.47000000000E+01 0.  1.
         11    1    6    6    0    0 -0.53911184491E+02 -0.33979040104E+01  0.11526607067E+03  0.12729583109E+03  0.00000000000E+00 0. -1.
        -12    1    6    6    0    0 -0.10293374529E+03  0.69848863675E+02  0.10959217702E+03  0.16578499613E+03  0.00000000000E+00 0.  1.
</event>
<event>
12    1  0.1623092E-001  0.2156608E+03  0.7818608E-02  0.1137870E+00
         21   -1    0    0  503  502  0.00000000000E+00  0.00000000000E+00  0.31026246492E+02  0.31026246492E+02  0.00000000000E+00 0.  1.
         21   -1    0    0  501  503 -0.00000000000E+00 -0.00000000000E+00 -0.14736636838E+04  0.14736636838E+04  0.00000000000E+00 0. -1.
          6    2    1    2  501    0  0.11074845819E+03 -0.54492782605E+02 -0.70916135810E+03  0.74016605524E+03  0.17234057319E+03 0.  0.
         24    2    3    3    0    0  0.12408690863E+03 -0.48580977839E+02 -0.37348375898E+03  0.40413866909E+03  0.77976107446E+02 0.  0.
         -6    2    1    2    0  502 -0.11074845819E+03  0.54492782605E+02 -0.73347607923E+03  0.76452387506E+03  0.17684714416E+03 0.  0.
        -24    2    5    5    0    0 -0.81405902365E+02  0.16018705246E+02 -0.68927305751E+03  0.69881818779E+03  0.79787166408E+02 0.  0.
          5    1    3    3  501    0 -0.13338450434E+02 -0.59118047662E+01 -0.33567759912E+03  0.33602738616E+03  0.47000000000E+01 0. -1.
        -11    1    4    4    0    0  0.11600563111E+02 -0.24243052424E+02 -0.23442851053E+02  0.35663229254E+02  0.00000000000E+00 0.  1.
         12    1    4    4    0    0  0.11248634552E+03 -0.24337925415E+02 -0.35004090792E+03  0.36847543983E+03  0.00000000000E+00 0. -1.
         -5    1    5    5    0  502 -0.29342555828E+02  0.38474077359E+02 -0.44203021721E+02  0.65705687276E+02  0.47000000000E+01 0.  1.
         13    1    6    6    0    0 -0.96423518726E+02  0.16331220847E+02 -0.63572334978E+03  0.64320166448E+03  0.00000000000E+00 0. -1.
        -14    1    6    6    0    0  0.15017616360E+02 -0.31251560128E+00 -0.53549707727E+02  0.55616523307E+02  0.00000000000E+00 0.  1.
</event>
<event>
12    1  0.1623092E-001  0.1958482E+03  0.7818608E-02  0.1153472E+00
         21   -1    0    0  503  502  0.00000000000E+00  0.00000000000E+00  0.14953123176E+03  0.14953123176E+03  0.00000000000E+00 0.  1.
         21   -1    0    0  501  503 -0.00000000000E+00 -0.00000000000E+00 -0.34743051980E+03  0.34743051980E+03  0.00000000000E+00 0.  1.
          6    2    1    2  501    0  0.91379321597E+02  0.20941328415E+01 -0.22666870594E+03  0.29901175121E+03  0.17226363313E+03 0.  0.
         24    2    3    3    0    0  0.35000533181E+02  0.63718452666E+02 -0.13498419836E+03  0.17489783778E+03  0.84163182678E+02 0.  0.
         -6    2    1    2    0  502 -0.91379321597E+02 -0.20941328415E+01  0.28769417900E+02  0.19795000035E+03  0.17321073126E+03 0.  0.
        -24    2    5    5    0    0 -0.79110184054E+02  0.23666058523E+02  0.77706891774E+02  0.14110736191E+03  0.83990612632E+02 0.  0.
          5    1    3    3  501    0  0.56378788416E+02 -0.61624319824E+02 -0.91684507581E+02  0.12411391343E+03  0.47000000000E+01 0. -1.
        -11    1    4    4    0    0  0.56624959431E+01  0.51671282085E+01 -0.10067189006E+03  0.10096332266E+03  0.00000000000E+00 0.  1.
         12    1    4    4    0    0  0.29338037238E+02  0.58551324457E+02 -0.34312308304E+02  0.73934515119E+02  0.00000000000E+00 0. -1.
         -5    1    5    5    0  502 -0.12269137543E+02 -0.25760191365E+02 -0.48937473874E+02  0.56842638436E+02  0.47000000000E+01 0.  1.
         13    1    6    6    0    0 -0.83511925495E+01  0.19763846841E+01 -0.18107655390E+02  0.20038355649E+02  0.00000000000E+00 0. -1.
        -14    1    6    6    0    0 -0.70758991505E+02  0.21689673839E+02  0.95814547164E+02  0.12106900627E+03  0.00000000000E+00 0.  1.
</event>
<event>
12    1  0.1623092E-001  0.1758845E+03  0.7818608E-02  0.1172149E+00
         21   -1    0    0  501  502  0.00000000000E+00  0.00000000000E+00  0.47076753500E+03  0.47076753500E+03  0.00000000000E+00 0.  1.
         21   -1    0    0  502  503 -0.00000000000E+00 -0.00000000000E+00 -0.19071608480E+03  0.19071608480E+03  0.00000000000E+00 0.  1.
         -6    2    1    2    0  503 -0.27573909309E+02  0.16957723382E+02 -0.12805712318E+03  0.21756377015E+03  0.17287996538E+03 0.  0.
        -24    2    3    3    0    0 -0.70818633857E+01  0.73138106999E+02 -0.47704259234E+02  0.11728998398E+03  0.77986591848E+02 0.  0.
          6    2    1    2  501    0  0.27573909309E+02 -0.16957723382E+02  0.40810857337E+03  0.44391984965E+03  0.17165179986E+03 0.  0.
         24    2    5    5    0    0  0.82136610694E+02 -0.30481180604E+00  0.30590225487E+03  0.32677622247E+03  0.80374089799E+02 0.  0.
          5    1    5    5  501    0 -0.54562701384E+02 -0.16652911576E+02  0.10220631850E+03  0.11714362718E+03  0.47000000000E+01 0. -1.
        -11    1    6    6    0    0  0.83897033459E+01  0.96493234418E+01  0.18052967171E+03  0.18098192985E+03  0.00000000000E+00 0.  1.
         12    1    6    6    0    0  0.73746907348E+02 -0.99541352478E+01  0.12537258316E+03  0.14579429262E+03  0.00000000000E+00 0. -1.
         -5    1    3    3    0  503 -0.20492045924E+02 -0.56180383617E+02 -0.80352863942E+02  0.10027378617E+03  0.47000000000E+01 0.  1.
         13    1    4    4    0    0  0.27873793665E+02  0.31003595911E+02  0.41327942693E+01  0.41895719604E+02  0.00000000000E+00 0. -1.
        -14    1    4    4    0    0 -0.34955657051E+02  0.42134511088E+02 -0.51837053504E+02  0.75394264373E+02  0.00000000000E+00 0.  1.
</event>
<event>
12    1  0.1623092E-001  0.1860129E+03  0.7818608E-02  0.1166864E+00
         21   -1    0    0  503  502  0.00000000000E+00  0.00000000000E+00  0.26782681869E+03  0.26782681869E+03  0.00000000000E+00 0. -1.
         21   -1    0    0  501  503 -0.00000000000E+00 -0.00000000000E+00 -0.12932421135E+03  0.12932421135E+03  0.00000000000E+00 0. -1.
          6    2    1    2  501    0  0.45799747938E+02  0.16366961369E+02  0.92476940023E+01  0.18624261261E+03  0.17954190756E+03 0.  0.
         24    2    3    3    0    0 -0.20275170830E+02  0.37242754358E+02  0.52797179365E+02  0.10426492480E+03  0.79281316150E+02 0.  0.
         -6    2    1    2    0  502 -0.45799747938E+02 -0.16366961369E+02  0.12925491334E+03  0.21090841743E+03  0.15940524956E+03 0.  0.
        -24    2    5    5    0    0 -0.16655905888E+02 -0.68624675585E+02  0.75856433939E+02  0.13057337012E+03  0.79425695555E+02 0.  0.
          5    1    3    3  501    0  0.66074918768E+02 -0.20875792989E+02 -0.43549485363E+02  0.81977687809E+02  0.47000000000E+01 0. -1.
        -11    1    4    4    0    0 -0.40942514110E+02  0.21902120969E+02  0.10207490850E+01  0.46443883271E+02  0.00000000000E+00 0.  1.
         12    1    4    4    0    0  0.20667343280E+02  0.15340633389E+02  0.51776430280E+02  0.57821041530E+02  0.00000000000E+00 0. -1.
         -5    1    5    5    0  502 -0.29143842050E+02  0.52257714215E+02  0.53398479402E+02  0.80335047314E+02  0.47000000000E+01 0.  1.
         11    1    6    6    0    0 -0.19333512020E+02 -0.50551010151E+02  0.91640201601E+02  0.10642892400E+03  0.00000000000E+00 0. -1.
        -12    1    6    6    0    0  0.26776061317E+01 -0.18073665433E+02 -0.15783767662E+02  0.24144446119E+02  0.00000000000E+00 0.  1.
</event>
<event>
12    1  0.1623092E-001  0.3224873E+03  0.7818608E-02  0.1074511E+00
         21   -1    0    0  501  502  0.00000000000E+00  0.00000000000E+00  0.15418597107E+03  0.15418597107E+03  0.00000000000E+00 0. -1.
         21   -1    0    0  502  503 -0.00000000000E+00 -0.00000000000E+00 -0.12261115847E+04  0.12261115847E+04  0.00000000000E+00 0.  1.
         -6    2    1    2    0  503 -0.18076858107E+03 -0.20503008143E+03 -0.99887606723E+03  0.10496434914E+04  0.17112406920E+03 0.  0.
        -24    2    3    3    0    0 -0.19598218104E+03 -0.19106890438E+03 -0.98209754600E+03  0.10226254073E+04  0.79566276640E+02 0.  0.
          6    2    1    2  501    0  0.18076858107E+03  0.20503008143E+03 -0.73049546392E+02  0.33065406442E+03  0.17111767850E+03 0.  0.
         24    2    5    5    0    0  0.48872535254E+02  0.39415052840E+02  0.18699676915E+02  0.99862135237E+02  0.75370398996E+02 0.  0.
          5    1    5    5  501    0  0.13189604581E+03  0.16561502859E+03 -0.91749223307E+02  0.23079192918E+03  0.47000000000E+01 0. -1.
        -13    1    6    6    0    0  0.11080321315E+02  0.49433285725E+02 -0.96464422404E+01  0.51570118343E+02  0.00000000000E+00 0.  1.
         14    1    6    6    0    0  0.37792213939E+02 -0.10018232885E+02  0.28346119156E+02  0.48292016894E+02  0.00000000000E+00 0. -1.
         -5    1    3    3    0  503  0.15213599970E+02 -0.13961177056E+02 -0.16778521227E+02  0.27018084006E+02  0.47000000000E+01 0.  1.
         11    1    4    4    0    0 -0.88687990242E+02 -0.77168135379E+02 -0.56594850826E+03  0.57802957946E+03  0.00000000000E+00 0. -1.
        -12    1    4    4    0    0 -0.10729419079E+03 -0.11390076900E+03 -0.41614903774E+03  0.44459582789E+03  0.00000000000E+00 0.  1.
</event>
<event>
12    1  0.1623092E-001  0.2256363E+03  0.7818608E-02  0.1129772E+00
         21   -1    0    0  503  502  0.00000000000E+00  0.00000000000E+00  0.30614673811E+02  0.30614673811E+02  0.00000000000E+00 0.  1.
         21   -1    0    0  501  503 -0.00000000000E+00 -0.00000000000E+00 -0.16624116867E+04  0.16624116867E+04  0.00000000000E+00 0. -1.
          6    2    1    2  501    0  0.14121343357E+03  0.34746609156E+02 -0.80315059164E+03  0.83420937368E+03  0.17235383841E+03 0.  0.
         24    2    3    3    0    0  0.61290301072E+02 -0.17893673938E+02 -0.19723271023E+03  0.22076232990E+03  0.75885306512E+02 0.  0.
         -6    2    1    2    0  502 -0.14121343357E+03 -0.34746609156E+02 -0.82864642122E+03  0.85881698681E+03  0.17252004159E+03 0.  0.
        -24    2    5    5    0    0 -0.81372146598E+02  0.23097473432E+02 -0.27084243597E+03  0.29481849968E+03  0.80046256063E+02 0.  0.
          5    1    3    3  501    0  0.79923132502E+02  0.52640283094E+02 -0.60591788141E+03  0.61344704379E+03  0.47000000000E+01 0. -1.
        -13    1    4    4    0    0  0.41235756747E+02 -0.10041224228E+02 -0.19447183797E+03  0.19904901301E+03  0.00000000000E+00 0.  1.
         14    1    4    4    0    0  0.20054544325E+02 -0.78524497099E+01 -0.27608722633E+01  0.21713316886E+02  0.00000000000E+00 0. -1.
         -5    1    5    5    0  502 -0.59841286977E+02 -0.57844082589E+02 -0.55780398526E+03  0.56399848713E+03  0.47000000000E+01 0.  1.
         11    1    6    6    0    0 -0.14214870956E+02 -0.20912627035E+02 -0.13226269613E+03  0.13465816467E+03  0.00000000000E+00 0. -1.
        -12    1    6    6    0    0 -0.67157275642E+02  0.44010100467E+02 -0.13857973984E+03  0.16016033501E+03  0.00000000000E+00 0.  1.
</event>
<event>
12    1  0.1623092E-001  0.2007138E+03  0.7818608E-02  0.1149674E+00
         21   -1    0    0  501  502  0.00000000000E+00  0.00000000000E+00  0.47088218724E+02  0.47088218724E+02  0.00000000000E+00 0. -1.
         21   -1    0    0  502  503 -0.00000000000E+00 -0.00000000000E+00 -0.11555534464E+04  0.11555534464E+04  0.00000000000E+00 0.  1.
         -6    2    1    2    0  503  0.98064750065E+02 -0.19353887017E+02 -0.86349821454E+03  0.88594799643E+03  0.17112398349E+03 0.  0.
        -24    2    3    3    0    0 -0.94553262457E+01 -0.21980339697E+02 -0.25743048553E+03  0.27039324890E+03  0.79180273075E+02 0.  0.
          6    2    1    2  501    0 -0.98064750065E+02  0.19353887017E+02 -0.24496701317E+03  0.31669366872E+03  0.17405394026E+03 0.  0.
         24    2    5    5    0    0 -0.98377275594E+02  0.66733917217E+02 -0.21981262649E+03  0.26284389525E+03  0.81472807999E+02 0.  0.
          5    1    5    5  501    0  0.31252552888E+00 -0.47380030200E+02 -0.25154386675E+02  0.53849773472E+02  0.47000000000E+01 0. -1.
        -11    1    6    6    0    0 -0.23921783059E+02 -0.16625665939E+02 -0.70903083705E+02  0.76654495964E+02  0.00000000000E+00 0.  1.
         12    1    6    6    0    0 -0.74455492535E+02  0.83359583156E+02 -0.14890954279E+03  0.18618939928E+03  0.00000000000E+00 0. -1.
         -5    1    3    3    0  503  0.10752007631E+03  0.26264526792E+01 -0.60606772901E+03  0.61555474753E+03  0.47000000000E+01 0.  1.
         11    1    4    4    0    0 -0.75516553427E+01  0.14771498441E+02 -0.82833883337E+01  0.18542901254E+02  0.00000000000E+00 0. -1.
        -12    1    4    4    0    0 -0.19036709030E+01 -0.36751838138E+02 -0.24914709720E+03  0.25185034765E+03  0.00000000000E+00 0.  1.
</event>
<event>
12    1  0.1623092E-001  0.2167227E+03  0.7818608E-02  0.1137127E+00
         21   -1    0    0  501  502  0.00000000000E+00  0.00000000000E+00  0.86174160144E+03  0.86174160144E+03  0.00000000000E+00 0.  1.
         21   -1    0    0  502  503 -0.00000000000E+00 -0.00000000000E+00 -0.53700884003E+02  0.53700884003E+02  0.00000000000E+00 0. -1.
         -6    2    1    2    0  503  0.11885502634E+03 -0.26606018680E+02  0.42881912274E+03  0.47866135937E+03  0.17434580409E+03 0.  0.
        -24    2    3    3    0    0  0.23821084841E+02 -0.68557201394E+02  0.22717440801E+03  0.25178246491E+03  0.80738243962E+02 0.  0.
          6    2    1    2  501    0 -0.11885502634E+03  0.26606018680E+02  0.37922159470E+03  0.43678112608E+03  0.17926052743E+03 0.  0.
         24    2    5    5    0    0 -0.34019887118E+02 -0.51325569967E+02  0.15570965613E+03  0.18528557932E+03  0.79332099684E+02 0.  0.
          5    1    5    5  501    0 -0.84835139225E+02  0.77931588646E+02  0.22351193857E+03  0.25149554676E+03  0.47000000000E+01 0. -1.
        -11    1    6    6    0    0  0.17570182858E+02 -0.38393915603E+02  0.98520374611E+02  0.10718707149E+03  0.00000000000E+00 0.  1.
         12    1    6    6    0    0 -0.51590069976E+02 -0.12931654364E+02  0.57189281514E+02  0.78098507827E+02  0.00000000000E+00 0. -1.
         -5    1    3    3    0  503  0.95033941502E+02  0.41951182714E+02  0.20164471474E+03  0.22687889446E+03  0.47000000000E+01 0.  1.
         11    1    4    4    0    0 -0.18962183764E+01 -0.15165644524E+02  0.16566705114E+03  0.16637056306E+03  0.00000000000E+00 0. -1.
        -12    1    4    4    0    0  0.25717303218E+02 -0.53391556870E+02  0.61507356862E+02  0.85411901852E+02  0.00000000000E+00 0.  1.
</event>
<event>
12    1  0.1623092E-001  0.1893313E+03  0.7818608E-02  0.1159482E+00
         21   -1    0    0  501  502  0.00000000000E+00  0.00000000000E+00  0.37072215157E+03  0.37072215157E+03  0.00000000000E+00 0. -1.
         21   -1    0    0  502  503 -0.00000000000E+00 -0.00000000000E+00 -0.98128504894E+02  0.98128504894E+02  0.00000000000E+00 0. -1.
         -6    2    1    2    0  503 -0.54795661390E+02  0.53440225281E+02  0.10053618106E+03  0.21436848452E+03  0.17317015120E+03 0.  0.
        -24    2    3    3    0    0 -0.10116232024E+03  0.60503001248E+02  0.66989534908E+02  0.15651334364E+03  0.78194633798E+02 0.  0.
          6    2    1    2  501    0  0.54795661390E+02 -0.53440225281E+02  0.17205746561E+03  0.25448217194E+03  0.17116945457E+03 0.  0.
         24    2    5    5    0    0  0.24289806725E+02 -0.80437155561E+02  0.17885799349E+03  0.21291561576E+03  0.79263780455E+02 0.  0.
          5    1    5    5  501    0  0.30505854665E+02  0.26996930280E+02 -0.68005278851E+01  0.41566556182E+02  0.47000000000E+01 0. -1.
        -11    1    6    6    0    0 -0.18831620306E+02 -0.22301710312E+02  0.13003277199E+02  0.31954364711E+02  0.00000000000E+00 0.  1.
         12    1    6    6    0    0  0.43121427031E+02 -0.58135445249E+02  0.16585471630E+03  0.18096125105E+03  0.00000000000E+00 0. -1.
         -5    1    3    3    0  503  0.46366658851E+02 -0.70627759664E+01  0.33546646154E+02  0.57855140874E+02  0.47000000000E+01 0.  1.
         11    1    4    4    0    0 -0.74626531304E+02 -0.79122423833E+00  0.36963766046E+02  0.83283042755E+02  0.00000000000E+00 0. -1.
        -12    1    4    4    0    0 -0.26535788937E+02  0.61294225486E+02  0.30025768862E+02  0.73230300888E+02  0.00000000000E+00 0.  1.
</event>
<event>
12    1  0.1623092E-001  0.1893457E+03  0.7818608E-02  0.1159168E+00
         21   -1    0    0  501  502  0.00000000000E+00  0.00000000000E+00  0.17164399040E+03  0.17164399040E+03  0.00000000000E+00 0. -1.
         21   -1    0    0  502  503 -0.00000000000E+00 -0.00000000000E+00 -0.34009080301E+03  0.34009080301E+03  0.00000000000E+00 0. -1.
         -6    2    1    2    0  503 -0.76857087028E+02  0.18010669884E+02 -0.24356312127E+03  0.30850411922E+03  0.17210578571E+03 0.  0.
        -24    2    3    3    0    0 -0.24891337963E+02 -0.18688983156E+02 -0.37680069320E+02  0.92964738387E+02  0.79080959544E+02 0.  0.
          6    2    1    2  501    0  0.76857087028E+02 -0.18010669884E+02  0.75116308660E+02  0.20323067420E+03  0.17154839274E+03 0.  0.
         24    2    5    5    0    0  0.23202279853E+01 -0.57651656842E+02  0.15901563120E+02  0.10000457628E+03  0.80118403455E+02 0.  0.
          5    1    5    5  501    0  0.74536859043E+02  0.39640986958E+02  0.59214745540E+02  0.10322609792E+03  0.47000000000E+01 0. -1.
        -11    1    6    6    0    0  0.30023262769E+02 -0.35318614688E+02 -0.19058770878E+02  0.50120231425E+02  0.00000000000E+00 0.  1.
         12    1    6    6    0    0 -0.27703034784E+02 -0.22333042155E+02  0.34960333998E+02  0.49884344852E+02  0.00000000000E+00 0. -1.
         -5    1    3    3    0  503 -0.51965749065E+02  0.36699653040E+02 -0.20588305195E+03  0.21553938083E+03  0.47000000000E+01 0.  1.
         13    1    4    4    0    0 -0.33929127983E+02 -0.89294436785E+01 -0.58526060255E+02  0.68236503567E+02  0.00000000000E+00 0. -1.
        -14    1    4    4    0    0  0.90377900201E+01 -0.97595394776E+01  0.20845990935E+02  0.24728234820E+02  0.00000000000E+00 0.  1.
</event>
<event>
12    1  0.1623092E-001  0.1845301E+03  0.7818608E-02  0.1163577E+00
         21   -1    0    0  501  502  0.00000000000E+00  0.00000000000E+00  0.17726913600E+03  0.17726913600E+03  0.00000000000E+00 0.  1.
         21   -1    0    0  502  503 -0.00000000000E+00 -0.00000000000E+00 -0.20494109795E+03  0.20494109795E+03  0.00000000000E+00 0.  1.
         -6    2    1    2    0  503  0.58706473252E+02 -0.27949008371E+02 -0.62397330321E+02  0.19444120161E+03  0.17229729244E+03 0.  0.
        -24    2    3    3    0    0  0.11890024178E+02 -0.77135430940E+02 -0.16412745947E+02  0.11229647525E+03  0.79056136658E+02 0.  0.
          6    2    1    2  501    0 -0.58706473252E+02  0.27949008371E+02  0.34725368373E+02  0.18776903233E+03  0.17269557384E+03 0.  0.
         24    2    5    5    0    0 -0.38679959558E+02 -0.26639263883E+02 -0.32963796729E+02  0.98411023231E+02  0.79952035289E+02 0.  0.
          5    1    5    5  501    0 -0.20026513694E+02  0.54588272253E+02  0.67689165102E+02  0.89358009101E+02  0.47000000000E+01 0. -1.
        -13    1    6    6    0    0 -0.19567045406E+02 -0.10590212962E+02  0.26096746529E+02  0.34293761180E+02  0.00000000000E+00 0.  1.
         14    1    6    6    0    0 -0.19112914152E+02 -0.16049050920E+02 -0.59060543258E+02  0.64117262050E+02  0.00000000000E+00 0. -1.
         -5    1    3    3    0  503  0.46816449074E+02  0.49186422569E+02 -0.45984584373E+02  0.82144726362E+02  0.47000000000E+01 0.  1.
         11    1    4    4    0    0  0.20561274516E+02 -0.86944569613E+02  0.24017108876E+01  0.89375009986E+02  0.00000000000E+00 0. -1.
        -12    1    4    4    0    0 -0.86712503382E+01  0.98091386731E+01 -0.18814456835E+02  0.22921465266E+02  0.00000000000E+00 0.  1.
</event>
<event>
12    1  0.1623092E-001  0.1801488E+03  0.7818608E-02  0.1168549E+00
         21   -1    0    0  501  502  0.00000000000E+00  0.00000000000E+00  0.53855868129E+02  0.53855868129E+02  0.00000000000E+00 0. -1.
         21   -1    0    0  502  503 -0.00000000000E+00 -0.00000000000E+00 -0.70829850816E+03  0.70829850816E+03  0.00000000000E+00 0. -1.
         -6    2    1    2    0  503 -0.19406770615E+02 -0.45683053391E+02 -0.48542641363E+03  0.51777639231E+03  0.17317628379E+03 0.  0.
        -24    2    3    3    0    0  0.26126515727E+02 -0.55795761020E+02 -0.12665289801E+03  0.15595313085E+03  0.66967609151E+02 0.  0.
          6    2    1    2  501    0  0.19406770615E+02  0.45683053391E+02 -0.16901622640E+03  0.24437798398E+03  0.16938285083E+03 0.  0.
         24    2    5    5    0    0 -0.22322481816E+02  0.66359355925E+02 -0.16631729633E+03  0.19749286675E+03  0.80250433294E+02 0.  0.
          5    1    5    5  501    0  0.41729252430E+02 -0.20676302534E+02 -0.26989300715E+01  0.46885117238E+02  0.47000000000E+01 0. -1.
        -13    1    6    6    0    0 -0.44831314825E+02  0.18707763641E+02 -0.11061187102E+03  0.12080899478E+03  0.00000000000E+00 0.  1.
         14    1    6    6    0    0  0.22508833010E+02  0.47651592284E+02 -0.55705425312E+02  0.76683871967E+02  0.00000000000E+00 0. -1.
         -5    1    3    3    0  503 -0.45533286342E+02  0.10112707630E+02 -0.35877351563E+03  0.36182326146E+03  0.47000000000E+01 0.  1.
         13    1    4    4    0    0 -0.71371672537E+01 -0.47463178417E+02 -0.10486005197E+03  0.11532269058E+03  0.00000000000E+00 0. -1.
        -14    1    4    4    0    0  0.33263682981E+02 -0.83325826033E+01 -0.21792846033E+02  0.40630440270E+02  0.00000000000E+00 0.  1.
</event>
<event>
12    1  0.1623092E-001  0.2065467E+03  0.7818608E-02  0.1144454E+00
         21   -1    0    0  503  502  0.00000000000E+00  0.00000000000E+00  0.11298625302E+04  0.11298625302E+04  0.00000000000E+00 0.  1.
         21   -1    0    0  501  503 -0.00000000000E+00 -0.00000000000E+00 -0.15794481321E+03  0.15794481321E+03  0.00000000000E+00 0.  1.
          6    2    1    2  501    0  0.74676581824E+02  0.86527572932E+02 -0.76163935226E+02  0.21956734423E+03  0.17130458509E+03 0.  0.
         24    2    3    3    0    0 -0.10761577823E+02  0.30249536076E+02  0.69216654298E+01  0.87687840167E+02  0.81304377932E+02 0.  0.
         -6    2    1    2    0  502 -0.74676581824E+02 -0.86527572932E+02  0.10480816522E+04  0.10682399992E+04  0.17204049930E+03 0.  0.
        -24    2    5    5    0    0 -0.63036477956E+02 -0.26607386171E+02  0.31162899692E+03  0.32924708697E+03  0.81298597842E+02 0.  0.
          5    1    3    3  501    0  0.85438159648E+02  0.56278036856E+02 -0.83085600656E+02  0.13187950407E+03  0.47000000000E+01 0. -1.
        -11    1    4    4    0    0  0.29508970695E+02  0.28821713801E+02 -0.12297977160E+02  0.43043126979E+02  0.00000000000E+00 0.  1.
         12    1    4    4    0    0 -0.40270548518E+02  0.14278222752E+01  0.19219642590E+02  0.44644713188E+02  0.00000000000E+00 0. -1.
         -5    1    5    5    0  502 -0.11640103868E+02 -0.59920186761E+02  0.73645265532E+03  0.73899291223E+03  0.47000000000E+01 0.  1.
         13    1    6    6    0    0 -0.56650022881E+02 -0.53001685286E+02  0.20422990584E+03  0.21846797975E+03  0.00000000000E+00 0. -1.
        -14    1    6    6    0    0 -0.63864550754E+01  0.26394299116E+02  0.10739909108E+03  0.11077910723E+03  0.00000000000E+00 0.  1.
</event>
<event>
12    1  0.1623092E-001  0.1865692E+03  0.7818608E-02  0.1161746E+00
         21   -1    0    0  501  502  0.00000000000E+00  0.00000000000E+00  0.59687614221E+02  0.59687614221E+02  0.00000000000E+00 0.  1.
         21   -1    0    0  502  503 -0.00000000000E+00 -0.00000000000E+00 -0.58134898349E+03  0.58134898349E+03  0.00000000000E+00 0.  1.
         -6    2    1    2    0  503 -0.70351394369E+02 -0.13063735525E+02 -0.26702960285E+03  0.32536997339E+03  0.17158330603E+03 0.  0.
        -24    2    3    3    0    0  0.16024738575E+02 -0.13379557243E+02 -0.19695391587E+03  0.21404330097E+03  0.81165786599E+02 0.  0.
          6    2    1    2  501    0  0.70351394369E+02  0.13063735525E+02 -0.25463176642E+03  0.31566662433E+03  0.17230235451E+03 0.  0.
         24    2    5    5    0    0  0.71177175122E+02 -0.52702329577E+02 -0.14157344553E+03  0.18478449738E+03  0.79110961253E+02 0.  0.
          5    1    5    5  501    0 -0.82578075213E+00  0.65766065102E+02 -0.11305832089E+03  0.13088212695E+03  0.47000000000E+01 0. -1.
        -11    1    6    6    0    0  0.74057990273E+02 -0.14810143912E+02 -0.11788985679E+03  0.14000694490E+03  0.00000000000E+00 0.  1.
         12    1    6    6    0    0 -0.28808151516E+01 -0.37892185665E+02 -0.23683588745E+02  0.44777552482E+02  0.00000000000E+00 0. -1.
         -5    1    3    3    0  503 -0.86376132944E+02  0.31582171836E+00 -0.70075686981E+02  0.11132667242E+03  0.47000000000E+01 0.  1.
         11    1    4    4    0    0  0.36481555417E+02 -0.28451843329E+02 -0.65714644070E+02  0.80366819769E+02  0.00000000000E+00 0. -1.
        -12    1    4    4    0    0 -0.20456816842E+02  0.15072286086E+02 -0.13123927180E+03  0.13367648120E+03  0.00000000000E+00 0.  1.
</event>
<event>
12    1  0.1623092E-001  0.1759779E+03  0.7818608E-02  0.1172138E+00
         21   -1    0    0  503  502  0.00000000000E+00  0.00000000000E+00  0.17457802444E+03  0.17457802444E+03  0.00000000000E+00 0. -1.
         21   -1    0    0  501  503 -0.00000000000E+00 -0.00000000000E+00 -0.25572563798E+03  0.25572563798E+03  0.00000000000E+00 0. -1.
          6    2    1    2  501    0 -0.30534983977E+02  0.15436017719E+02 -0.16094295256E+03  0.23847607925E+03  0.17261967010E+03 0.  0.
         24    2    3    3    0    0  0.24803327771E+02  0.32538738891E+02 -0.15600447984E+03  0.18015532538E+03  0.80278072580E+02 0.  0.
         -6    2    1    2    0  502  0.30534983977E+02 -0.15436017719E+02  0.79795339023E+02  0.19182758318E+03  0.17105516551E+03 0.  0.
        -24    2    5    5    0    0  0.49496285820E+02 -0.61963603901E+02  0.22670417344E+02  0.11560623498E+03  0.81002982821E+02 0.  0.
          5    1    3    3  501    0 -0.55338311748E+02 -0.17102721172E+02 -0.49384727253E+01  0.58320753866E+02  0.47000000000E+01 0. -1.
        -11    1    4    4    0    0 -0.36481746170E+01 -0.24559319933E+02 -0.30163087212E+02  0.39067649069E+02  0.00000000000E+00 0.  1.
         12    1    4    4    0    0  0.28451502388E+02  0.57098058824E+02 -0.12584139262E+03  0.14108767631E+03  0.00000000000E+00 0. -1.
         -5    1    5    5    0  502 -0.18961301843E+02  0.46527586182E+02  0.57124921679E+02  0.76221348193E+02  0.47000000000E+01 0.  1.
         11    1    6    6    0    0  0.58521287435E+01 -0.44322417000E+02  0.45062572434E+02  0.63477236029E+02  0.00000000000E+00 0. -1.
        -12    1    6    6    0    0  0.43644157077E+02 -0.17641186902E+02 -0.22392155091E+02  0.52128998953E+02  0.00000000000E+00 0.  1.
</event>
<event>
12    1  0.1623092E-001  0.1752587E+03  0.7818608E-02  0.1172476E+00
         21   -1    0    0  503  502  0.00000000000E+00  0.00000000000E+00  0.67554641434E+02  0.67554641434E+02  0.00000000000E+00 0. -1.
         21   -1    0    0  501  503 -0.00000000000E+00 -0.00000000000E+00 -0.48832557412E+03  0.48832557412E+03  0.00000000000E+00 0. -1.
          6    2    1    2  501    0  0.13915133978E+02  0.28614474477E+02 -0.28337812564E+03  0.33318675226E+03  0.17233058547E+03 0.  0.
         24    2    3    3    0    0 -0.24600521992E+01  0.46820174216E+02 -0.66055321989E+02  0.11443830035E+03  0.80837110623E+02 0.  0.
         -6    2    1    2    0  502 -0.13915133978E+02 -0.28614474477E+02 -0.13739280704E+03  0.22269346329E+03  0.17234609384E+03 0.  0.
        -24    2    5    5    0    0  0.42646169929E+02 -0.56203300401E+02 -0.56297139316E+02  0.11993684920E+03  0.78980840177E+02 0.  0.
          5    1    3    3  501    0  0.16375186177E+02 -0.18205699739E+02 -0.21732280365E+03  0.21874845191E+03  0.47000000000E+01 0. -1.
        -13    1    4    4    0    0 -0.78308310836E+00  0.64206800306E+02 -0.71539531860E+02  0.96130281616E+02  0.00000000000E+00 0.  1.
         14    1    4    4    0    0 -0.16769690908E+01 -0.17386626090E+02  0.54842098709E+01  0.18308018736E+02  0.00000000000E+00 0. -1.
         -5    1    5    5    0  502 -0.56561303907E+02  0.27588825924E+02 -0.81095667722E+02  0.10275661409E+03  0.47000000000E+01 0.  1.
         11    1    6    6    0    0  0.15157756556E+02 -0.72402168516E+02 -0.38131772818E+02  0.83221774121E+02  0.00000000000E+00 0. -1.
        -12    1    6    6    0    0  0.27488413373E+02  0.16198868115E+02 -0.18165366499E+02  0.36715075078E+02  0.00000000000E+00 0.  1.
</event>
<event>
12    1  0.1623092E-001  0.2263944E+03  0.7818608E-02  0.1129381E+00
         21   -1    0    0  501  502  0.00000000000E+00  0.00000000000E+00  0.55632343036E+03  0.55632343036E+03  0.00000000000E+00 0. -1.
         21   -1    0    0  502  503 -0.00000000000E+00 -0.00000000000E+00 -0.20253622882E+03  0.20253622882E+03  0.00000000000E+00 0.  1.
         -6    2    1    2    0  503  0.15353208689E+02  0.14422297849E+03 -0.10392996543E+03  0.24821358647E+03  0.17254726383E+03 0.  0.
        -24    2    3    3    0    0  0.73497583806E+02  0.10141882705E+03 -0.93757491299E+02  0.17514832134E+03  0.78732420193E+02 0.  0.
          6    2    1    2  501    0 -0.15353208689E+02 -0.14422297849E+03  0.45771716696E+03  0.51064607271E+03  0.17383445604E+03 0.  0.
         24    2    5    5    0    0  0.10842042865E+02 -0.13531063894E+03  0.45578823228E+03  0.48251367521E+03  0.81547625243E+02 0.  0.
          5    1    5    5  501    0 -0.26195251554E+02 -0.89123395506E+01  0.19289346869E+01  0.28132397503E+02  0.47000000000E+01 0. -1.
        -13    1    6    6    0    0 -0.27982698847E+02 -0.20205612340E+02  0.69904895389E+02  0.77961481542E+02  0.00000000000E+00 0.  1.
         14    1    6    6    0    0  0.38824741712E+02 -0.11510502660E+03  0.38588333689E+03  0.40455219367E+03  0.00000000000E+00 0. -1.
         -5    1    3    3    0  503 -0.58144375117E+02  0.42804151438E+02 -0.10172474127E+02  0.73065265126E+02  0.47000000000E+01 0.  1.
         11    1    4    4    0    0  0.63255013524E+02  0.23436636218E+02 -0.57073609966E+02  0.88362150312E+02  0.00000000000E+00 0. -1.
        -12    1    4    4    0    0  0.10242570282E+02  0.77982190830E+02 -0.36683881334E+02  0.86786171032E+02  0.00000000000E+00 0.  1.
</event>
<event>
12    1  0.1623092E-001  0.2207252E+03  0.7818608E-02  0.1134052E+00
         21   -1    0    0  501  502  0.00000000000E+00  0.00000000000E+00  0.24994154779E+03  0.24994154779E+03  0.00000000000E+00 0.  1.
         21   -1    0    0  502  503 -0.00000000000E+00 -0.00000000000E+00 -0.59130155150E+03  0.59130155150E+03  0.00000000000E+00 0. -1.
         -6    2    1    2    0  503  0.90475507554E+01  0.13635820307E+03 -0.51602186922E+03  0.55977131699E+03  0.16849314555E+03 0.  0.
        -24    2    3    3    0    0 -0.38802121017E+02  0.26851183574E+02 -0.17323226550E+03  0.19671735292E+03  0.80384752761E+02 0.  0.
          6    2    1    2  501    0 -0.90475507554E+01 -0.13635820307E+03  0.17466186550E+03  0.28147178230E+03  0.17333256834E+03 0.  0.
         24    2    5    5    0    0  0.47369639120E+02 -0.12498994204E+03  0.91988858370E+02  0.18063006087E+03  0.79365612849E+02 0.  0.
          5    1    5    5  501    0 -0.56417189876E+02 -0.11368261033E+02  0.82673007134E+02  0.10084172143E+03  0.47000000000E+01 0. -1.
        -11    1    6    6    0    0 -0.99688171172E+01 -0.34198774325E+02  0.57876933165E+02  0.67960818658E+02  0.00000000000E+00 0.  1.
         12    1    6    6    0    0  0.57338456237E+02 -0.90791167713E+02  0.34111925205E+02  0.11266924221E+03  0.00000000000E+00 0. -1.
         -5    1    3    3    0  503  0.47849671772E+02  0.10950701950E+03 -0.34278960372E+03  0.36305396407E+03  0.47000000000E+01 0.  1.
         11    1    4    4    0    0 -0.59870337857E+01  0.51144327092E+02 -0.82970766421E+02  0.97651087284E+02  0.00000000000E+00 0. -1.
        -12    1    4    4    0    0 -0.32815087231E+02 -0.24293143518E+02 -0.90261499076E+02  0.99066265638E+02  0.00000000000E+00 0.  1.
</event>
<event>
12    1  0.1623092E-001  0.2532312E+03  0.7818608E-02  0.1111290E+00
         21   -1    0    0  503  502  0.00000000000E+00  0.00000000000E+00  0.21325687374E+03  0.21325687374E+03  0.00000000000E+00 0.  1.
         21   -1    0    0  501  503 -0.00000000000E+00 -0.00000000000E+00 -0.42587744551E+03  0.42587744551E+03  0.00000000000E+00 0. -1.
          6    2    1    2  501    0 -0.94425163873E+02  0.15929875267E+03 -0.27961011321E+03  0.37719227304E+03  0.17262673969E+03 0.  0.
         24    2    3    3    0    0 -0.52673625043E+02  0.13738420973E+03 -0.28399934746E+03  0.32960242575E+03  0.79581391333E+02 0.  0.
         -6    2    1    2    0  502  0.94425163873E+02 -0.15929875267E+03  0.66989541437E+02  0.26194204622E+03  0.17272473112E+03 0.  0.
        -24    2    5    5    0    0 -0.63884026296E+01 -0.51769659402E+02  0.62322152986E+02  0.11439627161E+03  0.80508054771E+02 0.  0.
          5    1    3    3  501    0 -0.41751538830E+02  0.21914542943E+02  0.43892342513E+01  0.47589847283E+02  0.47000000000E+01 0. -1.
        -13    1    4    4    0    0 -0.23232113976E+02  0.72483105772E+02 -0.67706132220E+02  0.10187076167E+03  0.00000000000E+00 0.  1.
         14    1    4    4    0    0 -0.29441511066E+02  0.64901103953E+02 -0.21629321524E+03  0.22773166409E+03  0.00000000000E+00 0. -1.
         -5    1    5    5    0  502  0.10081356650E+03 -0.10752909327E+03  0.46673884515E+01  0.14754577461E+03  0.47000000000E+01 0.  1.
         13    1    6    6    0    0 -0.22309681245E+02 -0.26559333794E+02 -0.10058236195E+02  0.36114930488E+02  0.00000000000E+00 0. -1.
        -14    1    6    6    0    0  0.15921278615E+02 -0.25210325608E+02  0.72380389181E+02  0.78281341123E+02  0.00000000000E+00 0.  1.
</event>
<event>
12    1  0.1623092E-001  0.2647261E+03  0.7818608E-02  0.1104337E+00
         21   -1    0    0  503  502  0.00000000000E+00  0.00000000000E+00  0.16014033935E+04  0.16014033935E+04  0.00000000000E+00 0. -1.
         21   -1    0    0  501  503 -0.00000000000E+00 -0.00000000000E+00 -0.46206864708E+02  0.46206864708E+02  0.00000000000E+00 0. -1.
          6    2    1    2  501    0  0.20217966876E+03 -0.44873086679E+01  0.58803695062E+03  0.64487521173E+03  0.17082104382E+03 0.  0.
         24    2    3    3    0    0  0.52493524351E+02  0.22126658000E+02  0.13928112256E+03  0.17104177236E+03  0.81307427068E+02 0.  0.
         -6    2    1    2    0  502 -0.20217966876E+03  0.44873086679E+01  0.96715957817E+03  0.10027350465E+04  0.17083082095E+03 0.  0.
        -24    2    5    5    0    0 -0.76223035134E+02 -0.56390111500E+02  0.49505919446E+03  0.51032059082E+03  0.79710122537E+02 0.  0.
          5    1    3    3  501    0  0.14968614441E+03 -0.26613966668E+02  0.44875582806E+03  0.47383343937E+03  0.47000000000E+01 0. -1.
        -13    1    4    4    0    0  0.32124644468E+02  0.30966547520E+02  0.14183791248E+03  0.14869066301E+03  0.00000000000E+00 0.  1.
         14    1    4    4    0    0  0.20368879883E+02 -0.88398895196E+01 -0.25567899261E+01  0.22351109349E+02  0.00000000000E+00 0. -1.
         -5    1    5    5    0  502 -0.12595663363E+03  0.60877420168E+02  0.47210038370E+03  0.49241445565E+03  0.47000000000E+01 0.  1.
         13    1    6    6    0    0 -0.42119816041E+02 -0.11798449618E+02  0.77392906769E+02  0.88898505807E+02  0.00000000000E+00 0. -1.
        -14    1    6    6    0    0 -0.34103219094E+02 -0.44591661882E+02  0.41766628769E+03  0.42142208502E+03  0.00000000000E+00 0.  1.
</event>
<event>
12    1  0.1623092E-001  0.1755932E+03  0.7818608E-02  0.1172323E+00
         21   -1    0    0  503  502  0.00000000000E+00  0.00000000000E+00  0.10063406729E+03  0.10063406729E+03  0.00000000000E+00 0.  1.
         21   -1    0    0  501  503 -0.00000000000E+00 -0.00000000000E+00 -0.40220289958E+03  0.40220289958E+03  0.00000000000E+00 0.  1.
          6    2    1    2  501    0 -0.31321560071E+02 -0.27714836358E+01 -0.27408138054E+03  0.32510536942E+03  0.17200051401E+03 0.  0.
         24    2    3    3    0    0 -0.90184704131E+01  0.55602539520E+02 -0.24033795627E+03  0.25393189775E+03  0.59549141567E+02 0.  0.
         -6    2    1    2    0  502  0.31321560071E+02  0.27714836358E+01 -0.27487451744E+02  0.17773159745E+03  0.17275485372E+03 0.  0.
        -24    2    5    5    0    0  0.25492017586E+02  0.10861299483E+01 -0.85815662837E+02  0.11890053260E+03  0.78243121262E+02 0.  0.
          5    1    3    3  501    0 -0.22303089658E+02 -0.58374023156E+02 -0.33743424266E+02  0.71173471665E+02  0.47000000000E+01 0. -1.
        -13    1    4    4    0    0  0.10202103162E+02 -0.95853557830E+01 -0.39658170848E+02  0.42056301185E+02  0.00000000000E+00 0.  1.
         14    1    4    4    0    0 -0.19220573575E+02  0.65187895303E+02 -0.20067978542E+03  0.21187559657E+03  0.00000000000E+00 0. -1.
         -5    1    5    5    0  502  0.58295424856E+01  0.16853536874E+01  0.58328211093E+02  0.58831064855E+02  0.47000000000E+01 0.  1.
         13    1    6    6    0    0  0.22263494507E+02 -0.33773775807E+02 -0.69183022975E+02  0.80141261457E+02  0.00000000000E+00 0. -1.
        -14    1    6    6    0    0  0.32285230782E+01  0.34859905755E+02 -0.16632639863E+02  0.38759271140E+02  0.00000000000E+00 0.  1.
</event>
<event>
12    1  0.1623092E-001  0.1722435E+03  0.7818608E-02  0.1177203E+00
         21   -1    0    0  503  502  0.00000000000E+00  0.00000000000E+00  0.40316363126E+03  0.40316363126E+03  0.00000000000E+00 0.  1.
         21   -1    0    0  501  503 -0.00000000000E+00 -0.00000000000E+00 -0.72055716506E+02  0.72055716506E+02  0.00000000000E+00 0.  1.
          6    2    1    2  501    0 -0.82117058163E+01  0.14501208203E+01  0.19285469996E+03  0.25435337994E+03  0.16562962183E+03 0.  0.
         24    2    3    3    0    0  0.94430079392E+01 -0.53805063065E+02  0.15975475745E+03  0.18740175219E+03  0.81324528802E+02 0.  0.
         -6    2    1    2    0  502  0.82117058163E+01 -0.14501208203E+01  0.13825321480E+03  0.22086596783E+03  0.17204153388E+03 0.  0.
        -24    2    5    5    0    0  0.71798430779E+02 -0.73763947428E+01  0.70272537169E+02  0.12747509652E+03  0.78116866874E+02 0.  0.
          5    1    3    3  501    0 -0.17654713755E+02  0.55255183885E+02  0.33099942504E+02  0.66951627745E+02  0.47000000000E+01 0. -1.
        -13    1    4    4    0    0  0.22338836277E+02 -0.13765784259E+02  0.13717053870E+03  0.13965771411E+03  0.00000000000E+00 0.  1.
         14    1    4    4    0    0 -0.12895828337E+02 -0.40039278806E+02  0.22584218753E+02  0.47744038083E+02  0.00000000000E+00 0. -1.
         -5    1    5    5    0  502 -0.63586724962E+02  0.59262739225E+01  0.67980677628E+02  0.93390871314E+02  0.47000000000E+01 0.  1.
         11    1    6    6    0    0 -0.26109359090E+01 -0.18163555679E+02  0.44263358479E+02  0.47916350498E+02  0.00000000000E+00 0. -1.
        -12    1    6    6    0    0  0.74409366688E+02  0.10787160936E+02  0.26009178690E+02  0.79558746018E+02  0.00000000000E+00 0.  1.
</event>
<event>
12    1  0.1623092E-001  0.1736230E+03  0.7818608E-02  0.1174436E+00
         21   -1    0    0  503  502  0.00000000000E+00  0.00000000000E+00  0.24422519289E+03  0.24422519289E+03  0.00000000000E+00 0.  1.
         21   -1    0    0  501  503 -0.00000000000E+00 -0.00000000000E+00 -0.12609951707E+03  0.12609951707E+03  0.00000000000E+00 0.  1.
          6    2    1    2  501    0 -0.56489233671E+01 -0.18940710783E+02  0.28226260261E+02  0.17590243616E+03  0.17249430257E+03 0.  0.
         24    2    3    3    0    0  0.18818821660E+02 -0.67964586044E+02 -0.10958766559E+02  0.10837786863E+03  0.81561846720E+02 0.  0.
         -6    2    1    2    0  502  0.56489233671E+01  0.18940710783E+02  0.89899415558E+02  0.19442227381E+03  0.17125260516E+03 0.  0.
        -24    2    5    5    0    0 -0.35191657218E+02 -0.38951172996E+02  0.26376072956E+02  0.99150408680E+02  0.79871519964E+02 0.  0.
          5    1    3    3  501    0 -0.24467745027E+02  0.49023875261E+02  0.39185026820E+02  0.67524567523E+02  0.47000000000E+01 0. -1.
        -11    1    4    4    0    0 -0.23233348923E+02 -0.41719766232E+02  0.17925612864E+02  0.51006421098E+02  0.00000000000E+00 0.  1.
         12    1    4    4    0    0  0.42052170583E+02 -0.26244819812E+02 -0.28884379423E+02  0.57371447536E+02  0.00000000000E+00 0. -1.
         -5    1    5    5    0  502  0.40840580585E+02  0.57891883779E+02  0.63523342602E+02  0.95271865130E+02  0.47000000000E+01 0.  1.
         11    1    6    6    0    0  0.63422162737E+01 -0.36402104061E+02  0.40860003758E+02  0.55089715868E+02  0.00000000000E+00 0. -1.
        -12    1    6    6    0    0 -0.41533873491E+02 -0.25490689355E+01 -0.14483930801E+02  0.44060692812E+02  0.00000000000E+00 0.  1.
</event>
