<event>
12    1  0.8219652E-002  0.1893436E+03  0.7818608E-02  0.1159250E+00
         21   -1    0    0  501  502  0.00000000000E+00  0.00000000000E+00  0.44610280763E+02  0.44610280763E+02  0.00000000000E+00 0.  1.
         21   -1    0    0  502  503 -0.00000000000E+00 -0.00000000000E+00 -0.80083062142E+03  0.80083062142E+03  0.00000000000E+00 0.  1.
         -6    2    1    2    0  503  0.55800115051E+02  0.52914011688E+02 -0.39082413492E+03  0.43390062136E+03  0.17208340800E+03 0.  0.
        -24    2    3    3    0    0  0.35190411958E+02  0.98647146346E+02 -0.22765357596E+03  0.26312884155E+03  0.80255915877E+02 0.  0.
          6    2    1    2  501    0 -0.55800115051E+02 -0.52914011688E+02 -0.36539620574E+03  0.41154028082E+03  0.17302447833E+03 0.  0.
         24    2    5    5    0    0 -0.10018303578E+03 -0.63531190775E+02 -0.28499468867E+03  0.31897105218E+03  0.80297613290E+02 0.  0.
          5    1    5    5  501    0  0.44382920734E+02  0.10617179087E+02 -0.80401517064E+02  0.92569228639E+02  0.47000000000E+01 0. -1.
        -11    1    6    6    0    0 -0.37812951921E+02 -0.51954590019E+02 -0.70947263098E+02  0.95721538319E+02  0.00000000000E+00 0.  1.
         12    1    6    6    0    0 -0.62370083863E+02 -0.11576600755E+02 -0.21404742558E+03  0.22324951387E+03  0.00000000000E+00 0. -1.
         -5    1    3    3    0  503  0.20609703093E+02 -0.45733134658E+02 -0.16317055897E+03  0.17077177981E+03  0.47000000000E+01 0.  1.
         13    1    4    4    0    0 -0.18028719294E+02  0.59305872083E+02 -0.79052935701E+02  0.10045689536E+03  0.00000000000E+00 0. -1.
        -14    1    4    4    0    0  0.53219131252E+02  0.39341274263E+02 -0.14860064025E+03  0.16267194619E+03  0.00000000000E+00 0.  1.
</event>
<event>
12    1  0.8219652E-002  0.2185480E+03  0.7818608E-02  0.1135795E+00
         21   -1    0    0  503  502  0.00000000000E+00  0.00000000000E+00  0.90174797183E+02  0.90174797183E+02  0.00000000000E+00 0.  1.
         21   -1    0    0  501  503 -0.00000000000E+00 -0.00000000000E+00 -0.65727816194E+03  0.65727816194E+03  0.00000000000E+00 0. -1.
          6    2    1    2  501    0  0.95784304777E+02  0.90010208225E+02 -0.45258833002E+03  0.50072045394E+03  0.16913990038E+03 0.  0.
         24    2    3    3    0    0  0.10080788588E+03  0.55174714533E+01 -0.23813314786E+03  0.27011825515E+03  0.77870426404E+02 0.  0.
         -6    2    1    2    0  502 -0.95784304777E+02 -0.90010208225E+02 -0.11451503474E+03  0.24673250518E+03  0.17460459703E+03 0.  0.
        -24    2    5    5    0    0 -0.36584586620E+02 -0.11320935890E+03 -0.11394312408E+03  0.18297339364E+03  0.79633135919E+02 0.  0.
          5    1    3    3  501    0 -0.50235811022E+01  0.84492736772E+02 -0.21445518216E+03  0.23060219880E+03  0.47000000000E+01 0. -1.
        -13    1    4    4    0    0  0.62319973394E+01 -0.22926333393E+02 -0.81995434295E+02  0.85368060766E+02  0.00000000000E+00 0.  1.
         14    1    4    4    0    0  0.94575888540E+02  0.28443804846E+02 -0.15613771356E+03  0.18475019438E+03  0.00000000000E+00 0. -1.
         -5    1    5    5    0  502 -0.59199718157E+02  0.23199150678E+02 -0.57191066287E+00  0.63759111536E+02  0.47000000000E+01 0.  1.
         13    1    6    6    0    0  0.23256051560E+02 -0.21731967743E+02 -0.39463863448E+02  0.50700284757E+02  0.00000000000E+00 0. -1.
        -14    1    6    6    0    0 -0.59840638180E+02 -0.91477391159E+02 -0.74479260628E+02  0.13227310889E+03  0.00000000000E+00 0.  1.
</event>
<event>
12    1  0.8219652E-002  0.1905314E+03  0.7818608E-02  0.1158009E+00
         21   -1    0    0  503  502  0.00000000000E+00  0.00000000000E+00  0.91444148726E+02  0.91444148726E+02  0.00000000000E+00 0. -1.
         21   -1    0    0  501  503 -0.00000000000E+00 -0.00000000000E+00 -0.56176983074E+03  0.56176983074E+03  0.00000000000E+00 0. -1.
          6    2    1    2  501    0  0.71909482525E+02  0.39136380519E+02 -0.41213006329E+03  0.45399314089E+03  0.17191844855E+03 0.  0.
         24    2    3    3    0    0  0.30376668444E+02  0.53883754291E+02 -0.11238286891E+03  0.15098665545E+03  0.79629516751E+02 0.  0.
         -6    2    1    2    0  502 -0.71909482525E+02 -0.39136380519E+02 -0.58195618723E+02  0.19922083857E+03  0.17204529208E+03 0.  0.
        -24    2    5    5    0    0  0.68960639628E+01 -0.53317645109E+02  0.14440723489E+02  0.91010161503E+02  0.71999916831E+02 0.  0.
          5    1    3    3  501    0  0.41532814081E+02 -0.14747373772E+02 -0.29974719438E+03  0.30300648543E+03  0.47000000000E+01 0. -1.
        -13    1    4    4    0    0  0.19366535281E+01  0.57647852656E+01  0.12646030428E+02  0.14032300654E+02  0.00000000000E+00 0.  1.
         14    1    4    4    0    0  0.28440014915E+02  0.48118969025E+02 -0.12502889934E+03  0.13695435480E+03  0.00000000000E+00 0. -1.
         -5    1    5    5    0  502 -0.78805546487E+02  0.14181264590E+02 -0.72636342211E+02  0.10821067707E+03  0.47000000000E+01 0.  1.
         13    1    6    6    0    0 -0.31360258279E+02 -0.15453341121E+02 -0.11231807225E+01  0.34979037810E+02  0.00000000000E+00 0. -1.
        -14    1    6    6    0    0  0.38256322242E+02 -0.37864303988E+02  0.15563904211E+02  0.56031123693E+02  0.00000000000E+00 0.  1.
</event>
<event>
12    1  0.8219652E-002  0.2039667E+03  0.7818608E-02  0.1146997E+00
         21   -1    0    0  503  502  0.00000000000E+00  0.00000000000E+00  0.36839913846E+03  0.36839913846E+03  0.00000000000E+00 0.  1.
         21   -1    0    0  501  503 -0.00000000000E+00 -0.00000000000E+00 -0.11186117327E+03  0.11186117327E+03  0.00000000000E+00 0. -1.
          6    2    1    2  501    0 -0.75178952521E+02 -0.82773757956E+02  0.14403708128E+03  0.24969804441E+03  0.17058447378E+03 0.  0.
         24    2    3    3    0    0 -0.10550701799E+03 -0.91906925399E+02  0.14737770465E+03  0.21750400666E+03  0.77518973839E+02 0.  0.
         -6    2    1    2    0  502  0.75178952521E+02  0.82773757956E+02  0.11250088391E+03  0.23056226731E+03  0.16732943650E+03 0.  0.
        -24    2    5    5    0    0 -0.64964813758E+00 -0.28468427165E+01  0.17939738768E+02  0.82087474476E+02  0.80049938680E+02 0.  0.
          5    1    3    3  501    0  0.30328065464E+02  0.91331674428E+01 -0.33406233732E+01  0.32194037754E+02  0.47000000000E+01 0. -1.
        -13    1    4    4    0    0 -0.61473786323E+02 -0.82544973171E+02  0.13691864714E+03  0.17128752124E+03  0.00000000000E+00 0.  1.
         14    1    4    4    0    0 -0.44033231662E+02 -0.93619522280E+01  0.10459057516E+02  0.46216485417E+02  0.00000000000E+00 0. -1.
         -5    1    5    5    0  502  0.75828600658E+02  0.85620600673E+02  0.94561145141E+02  0.14847479284E+03  0.47000000000E+01 0.  1.
         11    1    6    6    0    0  0.30449143546E+02 -0.16545881101E+02 -0.12125526456E+02  0.36714369338E+02  0.00000000000E+00 0. -1.
        -12    1    6    6    0    0 -0.31098791683E+02  0.13699038385E+02  0.30065265224E+02  0.45373105137E+02  0.00000000000E+00 0.  1.
</event>
<event>
12    1  0.8219652E-002  0.2295053E+03  0.7818608E-02  0.1126996E+00
         21   -1    0    0  503  502  0.00000000000E+00  0.00000000000E+00  0.85722886530E+03  0.85722886530E+03  0.00000000000E+00 0. -1.
         21   -1    0    0  501  503 -0.00000000000E+00 -0.00000000000E+00 -0.61442321496E+02  0.61442321496E+02  0.00000000000E+00 0.  1.
          6    2    1    2  501    0  0.12787442456E+03 -0.82850023633E+02  0.40311290909E+03  0.46386712693E+03  0.17162954028E+03 0.  0.
         24    2    3    3    0    0  0.14636269833E+03 -0.95193526717E+02  0.29383708358E+03  0.35225407045E+03  0.85198893586E+02 0.  0.
         -6    2    1    2    0  502 -0.12787442456E+03  0.82850023633E+02  0.39267363471E+03  0.45480405986E+03  0.17157550699E+03 0.  0.
        -24    2    5    5    0    0 -0.70356086532E+02  0.10995642390E+03  0.33715372516E+03  0.37026018663E+03  0.79872256405E+02 0.  0.
          5    1    3    3  501    0 -0.18488273771E+02  0.12343503084E+02  0.10927582552E+03  0.11161305649E+03  0.47000000000E+01 0. -1.
        -11    1    4    4    0    0  0.12009747379E+03 -0.10169232674E+03  0.28153435600E+03  0.32253112429E+03  0.00000000000E+00 0.  1.
         12    1    4    4    0    0  0.26265224548E+02  0.64988000224E+01  0.12302727574E+02  0.29722946154E+02  0.00000000000E+00 0. -1.
         -5    1    5    5    0  502 -0.57518338031E+02 -0.27106400265E+02  0.55519909542E+02  0.84543873230E+02  0.47000000000E+01 0.  1.
         13    1    6    6    0    0 -0.42691613254E+02  0.75580769315E+02  0.30084293101E+03  0.31311578636E+03  0.00000000000E+00 0. -1.
        -14    1    6    6    0    0 -0.27664473278E+02  0.34375654583E+02  0.36310794159E+02  0.57144400270E+02  0.00000000000E+00 0.  1.
</event>
<event>
12    1  0.8219652E-002  0.1886292E+03  0.7818608E-02  0.1160436E+00
         21   -1    0    0  501  502  0.00000000000E+00  0.00000000000E+00  0.28659316461E+03  0.28659316461E+03  0.00000000000E+00 0. -1.
         21   -1    0    0  502  503 -0.00000000000E+00 -0.00000000000E+00 -0.12268055655E+03  0.12268055655E+03  0.00000000000E+00 0. -1.
         -6    2    1    2    0  503  0.65306062443E+02 -0.19923818660E+02  0.66729737417E+02  0.19708166465E+03  0.17241370115E+03 0.  0.
        -24    2    3    3    0    0  0.35498865375E+02  0.24457958170E+02  0.94310556953E+02  0.13674094277E+03  0.89136093222E+02 0.  0.
          6    2    1    2  501    0 -0.65306062443E+02  0.19923818660E+02  0.97182870642E+02  0.21219205651E+03  0.17583832960E+03 0.  0.
         24    2    5    5    0    0 -0.78770894110E+02 -0.37051822622E+01  0.12908962202E+03  0.17000482906E+03  0.77581758519E+02 0.  0.
          5    1    5    5  501    0  0.13464831667E+02  0.23629000922E+02 -0.31906751379E+02  0.42187227451E+02  0.47000000000E+01 0. -1.
        -13    1    6    6    0    0  0.14141459834E+02  0.21526566848E+01  0.56159506793E+01  0.15367293811E+02  0.00000000000E+00 0.  1.
         14    1    6    6    0    0 -0.92912353944E+02 -0.58578389470E+01  0.12347367134E+03  0.15463753525E+03  0.00000000000E+00 0. -1.
         -5    1    3    3    0  503  0.29807197069E+02 -0.44381776830E+02 -0.27580819535E+02  0.60340721887E+02  0.47000000000E+01 0.  1.
         11    1    4    4    0    0  0.16155266949E+02 -0.33781836187E+02  0.39989251599E+02  0.54784535681E+02  0.00000000000E+00 0. -1.
        -12    1    4    4    0    0  0.19343598425E+02  0.58239794357E+02  0.54321305354E+02  0.81956407084E+02  0.00000000000E+00 0.  1.
</event>
<event>
12    1  0.8219652E-002  0.2131019E+03  0.7818608E-02  0.1140155E+00
         21   -1    0    0  503  502  0.00000000000E+00  0.00000000000E+00  0.12193223235E+03  0.12193223235E+03  0.00000000000E+00 0.  1.
         21   -1    0    0  501  503 -0.00000000000E+00 -0.00000000000E+00 -0.46162398338E+03  0.46162398338E+03  0.00000000000E+00 0.  1.
          6    2    1    2  501    0 -0.10784675209E+03 -0.63092584149E+02 -0.30276580532E+03  0.36727873612E+03  0.16617743837E+03 0.  0.
         24    2    3    3    0    0 -0.10128068278E+03 -0.10347399149E+03 -0.22658292503E+03  0.28067797068E+03  0.80471471285E+02 0.  0.
         -6    2    1    2    0  502  0.10784675209E+03  0.63092584149E+02 -0.36925945711E+02  0.21627747961E+03  0.17262915920E+03 0.  0.
        -24    2    5    5    0    0 -0.22646315459E+01 -0.10341812217E+02 -0.19480884717E+02  0.82697737397E+02  0.79670127810E+02 0.  0.
          5    1    3    3  501    0 -0.65660693116E+01  0.40381407344E+02 -0.76182880291E+02  0.86600765440E+02  0.47000000000E+01 0. -1.
        -13    1    4    4    0    0 -0.43490603664E+02 -0.21449123675E+02 -0.22912111471E+02  0.53632661369E+02  0.00000000000E+00 0.  1.
         14    1    4    4    0    0 -0.57790079116E+02 -0.82024867818E+02 -0.20367081356E+03  0.22704530931E+03  0.00000000000E+00 0. -1.
         -5    1    5    5    0  502  0.11011138364E+03  0.73434396366E+02 -0.17445060994E+02  0.13357974221E+03  0.47000000000E+01 0.  1.
         11    1    6    6    0    0 -0.37133009837E+02  0.21008226279E+01 -0.25630507677E+02  0.45168537711E+02  0.00000000000E+00 0. -1.
        -12    1    6    6    0    0  0.34868378291E+02 -0.12442634844E+02  0.61496229598E+01  0.37529199686E+02  0.00000000000E+00 0.  1.
</event>
<event>
12    1  0.8219652E-002  0.1889992E+03  0.7818608E-02  0.1159399E+00
         21   -1    0    0  501  502  0.00000000000E+00  0.00000000000E+00  0.49052590737E+02  0.49052590737E+02  0.00000000000E+00 0.  1.
         21   -1    0    0  502  503 -0.00000000000E+00 -0.00000000000E+00 -0.11736467666E+04  0.11736467666E+04  0.00000000000E+00 0. -1.
         -6    2    1    2    0  503 -0.64078345343E+01  0.76883624162E+02 -0.93902432833E+03  0.95782796147E+03  0.17238202504E+03 0.  0.
        -24    2    3    3    0    0 -0.50844289379E+02  0.64354948223E+02 -0.36538074231E+03  0.38231026406E+03  0.77015258443E+02 0.  0.
          6    2    1    2  501    0  0.64078345343E+01 -0.76883624162E+02 -0.18556984754E+03  0.26487139588E+03  0.17253560801E+03 0.  0.
         24    2    5    5    0    0 -0.15672550170E+02 -0.98068149503E+02 -0.70122543010E+02  0.14534525805E+03  0.79656024395E+02 0.  0.
          5    1    5    5  501    0  0.22080384704E+02  0.21184525341E+02 -0.11544730452E+03  0.11952613783E+03  0.47000000000E+01 0. -1.
        -13    1    6    6    0    0 -0.40677461385E+02 -0.22611022175E+02 -0.16151136009E+02  0.49262291693E+02  0.00000000000E+00 0.  1.
         14    1    6    6    0    0  0.25004911215E+02 -0.75457127327E+02 -0.53971407002E+02  0.96082966353E+02  0.00000000000E+00 0. -1.
         -5    1    3    3    0  503  0.44436454845E+02  0.12528675938E+02 -0.57364358602E+03  0.57551769740E+03  0.47000000000E+01 0.  1.
         13    1    4    4    0    0 -0.34248614400E+02  0.75866849593E+02 -0.21451865182E+03  0.23010214783E+03  0.00000000000E+00 0. -1.
        -14    1    4    4    0    0 -0.16595674979E+02 -0.11511901370E+02 -0.15086209049E+03  0.15220811623E+03  0.00000000000E+00 0.  1.
</event>
<event>
12    1  0.8219652E-002  0.1907481E+03  0.7818608E-02  0.1157794E+00
         21   -1    0    0  503  502  0.00000000000E+00  0.00000000000E+00  0.63043394332E+02  0.63043394332E+02  0.00000000000E+00 0. -1.
         21   -1    0    0  501  503 -0.00000000000E+00 -0.00000000000E+00 -0.60808427959E+03  0.60808427959E+03  0.00000000000E+00 0. -1.
          6    2    1    2  501    0  0.77794433244E+02 -0.29942277919E+02 -0.19670321880E+03  0.27398289844E+03  0.17153996183E+03 0.  0.
         24    2    3    3    0    0  0.70945103811E+02  0.25638725979E+02 -0.57127417671E+02  0.12351810001E+03  0.79389087133E+02 0.  0.
         -6    2    1    2    0  502 -0.77794433244E+02  0.29942277919E+02 -0.34833766646E+03  0.39714477548E+03  0.17157018670E+03 0.  0.
        -24    2    5    5    0    0 -0.15662624902E+02  0.75060096442E+02 -0.16939160094E+03  0.20236345317E+03  0.79863112960E+02 0.  0.
          5    1    3    3  501    0  0.68493294335E+01 -0.55581003898E+02 -0.13957580113E+03  0.15046479843E+03  0.47000000000E+01 0. -1.
        -13    1    4    4    0    0 -0.27907978287E+01  0.24633009442E+02  0.70349265017E+01  0.25769437277E+02  0.00000000000E+00 0.  1.
         14    1    4    4    0    0  0.73735901640E+02  0.10057165363E+01 -0.64162344173E+02  0.97748662733E+02  0.00000000000E+00 0. -1.
         -5    1    5    5    0  502 -0.62131808342E+02 -0.45117818523E+02 -0.17894606552E+03  0.19478132231E+03  0.47000000000E+01 0.  1.
         11    1    6    6    0    0 -0.25335805496E+02  0.39474507057E+01 -0.99317560134E+01  0.27497730538E+02  0.00000000000E+00 0. -1.
        -12    1    6    6    0    0  0.96731805937E+01  0.71112645736E+02 -0.15945984493E+03  0.17486572263E+03  0.00000000000E+00 0.  1.
</event>
<event>
12    1  0.8219652E-002  0.1763488E+03  0.7818608E-02  0.1172136E+00
         21   -1    0    0  503  502  0.00000000000E+00  0.00000000000E+00  0.11155559070E+03  0.11155559070E+03  0.00000000000E+00 0. -1.
         21   -1    0    0  501  503 -0.00000000000E+00 -0.00000000000E+00 -0.32340028908E+03  0.32340028908E+03  0.00000000000E+00 0. -1.
          6    2    1    2  501    0  0.19556593711E+02 -0.44396053303E+00 -0.19163690706E+03  0.26042966184E+03  0.17526051226E+03 0.  0.
         24    2    3    3    0    0  0.40458404871E+02  0.61050938661E+02 -0.14147083296E+03  0.17822726937E+03  0.79917853657E+02 0.  0.
         -6    2    1    2    0  502 -0.19556593711E+02  0.44396053303E+00 -0.20207791322E+02  0.17452621794E+03  0.17224514060E+03 0.  0.
        -24    2    5    5    0    0 -0.19033508000E+02  0.60907037533E+02 -0.41122099159E+02  0.11037362196E+03  0.80120956915E+02 0.  0.
          5    1    3    3  501    0 -0.20901811160E+02 -0.61494899194E+02 -0.50166074107E+02  0.82202392471E+02  0.47000000000E+01 0. -1.
        -11    1    4    4    0    0 -0.14202321808E+01  0.18455306854E+02  0.57229878694E+01  0.19374416137E+02  0.00000000000E+00 0.  1.
         12    1    4    4    0    0  0.41878637052E+02  0.42595631808E+02 -0.14719382083E+03  0.15885285323E+03  0.00000000000E+00 0. -1.
         -5    1    5    5    0  502 -0.52308571128E+00 -0.60463077000E+02  0.20914307837E+02  0.64152595982E+02  0.47000000000E+01 0.  1.
         11    1    6    6    0    0 -0.49280451122E+02  0.49632668321E+02 -0.31348924489E+02  0.76646720047E+02  0.00000000000E+00 0. -1.
        -12    1    6    6    0    0  0.30246943122E+02  0.11274369212E+02 -0.97731746696E+01  0.33726901910E+02  0.00000000000E+00 0.  1.
</event>
<event>
12    1  0.8219652E-002  0.1899120E+03  0.7818608E-02  0.1158570E+00
         21   -1    0    0  503  502  0.00000000000E+00  0.00000000000E+00  0.78598931970E+02  0.78598931970E+02  0.00000000000E+00 0. -1.
         21   -1    0    0  501  503 -0.00000000000E+00 -0.00000000000E+00 -0.18490045832E+04  0.18490045832E+04  0.00000000000E+00 0. -1.
          6    2    1    2  501    0 -0.71921935570E+02 -0.37881553655E+02 -0.17209164915E+04  0.17313492072E+04  0.17148973585E+03 0.  0.
         24    2    3    3    0    0 -0.46028109234E+02 -0.85256340958E+02 -0.14249566936E+04  0.14304685785E+04  0.79696580909E+02 0.  0.
         -6    2    1    2    0  502  0.71921935570E+02  0.37881553655E+02 -0.49489159648E+02  0.19625430793E+03  0.17163565927E+03 0.  0.
        -24    2    5    5    0    0  0.38111944005E+02 -0.37418388322E+02  0.65259834238E+01  0.96389484065E+02  0.79973046198E+02 0.  0.
          5    1    3    3  501    0 -0.25893826336E+02  0.47374787303E+02 -0.29595979793E+03  0.30088062866E+03  0.47000000000E+01 0. -1.
        -11    1    4    4    0    0 -0.36893341215E+02 -0.17742922544E+02 -0.23319480965E+03  0.23676095366E+03  0.00000000000E+00 0.  1.
         12    1    4    4    0    0 -0.91347680194E+01 -0.67513418414E+02 -0.11917618840E+04  0.11937076249E+04  0.00000000000E+00 0. -1.
         -5    1    5    5    0  502  0.33809991565E+02  0.75299941977E+02 -0.56015143071E+02  0.99864823860E+02  0.47000000000E+01 0.  1.
         11    1    6    6    0    0  0.38094905986E+02  0.12626895252E+02  0.19601760358E+02  0.44664184252E+02  0.00000000000E+00 0. -1.
        -12    1    6    6    0    0  0.17038019225E-01 -0.50045283574E+02 -0.13075776934E+02  0.51725299813E+02  0.00000000000E+00 0.  1.
</event>
<event>
12    1  0.8219652E-002  0.1977491E+03  0.7818608E-02  0.1152536E+00
         21   -1    0    0  503  502  0.00000000000E+00  0.00000000000E+00  0.67319628218E+03  0.67319628218E+03  0.00000000000E+00 0. -1.
         21   -1    0    0  501  503 -0.00000000000E+00 -0.00000000000E+00 -0.58035364343E+02  0.58035364343E+02  0.00000000000E+00 0.  1.
          6    2    1    2  501    0  0.64151908379E+01  0.95884687539E+02  0.25317401623E+03  0.31875227264E+03  0.16813952790E+03 0.  0.
         24    2    3    3    0    0 -0.48262807891E+02  0.45009362801E+02  0.91573532046E+02  0.14066580853E+03  0.83940553678E+02 0.  0.
         -6    2    1    2    0  502 -0.64151908379E+01 -0.95884687539E+02  0.36198690161E+03  0.41247937388E+03  0.17282849581E+03 0.  0.
        -24    2    5    5    0    0  0.59960991081E+02 -0.71404800639E+02  0.27018750223E+03  0.29648677880E+03  0.78798208312E+02 0.  0.
          5    1    3    3  501    0  0.54677998729E+02  0.50875324738E+02  0.16160048418E+03  0.17808646411E+03  0.47000000000E+01 0. -1.
        -13    1    4    4    0    0  0.16194447076E+02  0.37935031028E+02  0.27977004346E+02  0.49840139119E+02  0.00000000000E+00 0.  1.
         14    1    4    4    0    0 -0.64457254967E+02  0.70743317728E+01  0.63596527700E+02  0.90825669408E+02  0.00000000000E+00 0. -1.
         -5    1    5    5    0  502 -0.66376181919E+02 -0.24479886900E+02  0.91799399375E+02  0.11599259508E+03  0.47000000000E+01 0.  1.
         13    1    6    6    0    0  0.37458876037E+02  0.84330828949E+01  0.10119589702E+03  0.10823536323E+03  0.00000000000E+00 0. -1.
        -14    1    6    6    0    0  0.22502115043E+02 -0.79837883534E+02  0.16899160522E+03  0.18825141557E+03  0.00000000000E+00 0.  1.
</event>
<event>
12    1  0.8219652E-002  0.2045952E+03  0.7818608E-02  0.1146333E+00
         21   -1    0    0  503  502  0.00000000000E+00  0.00000000000E+00  0.22984687958E+03  0.22984687958E+03  0.00000000000E+00 0. -1.
         21   -1    0    0  501  503 -0.00000000000E+00 -0.00000000000E+00 -0.28066794028E+03  0.28066794028E+03  0.00000000000E+00 0. -1.
          6    2    1    2  501    0  0.90201933720E+02  0.51991727449E+02 -0.17794738340E+03  0.26964079889E+03  0.17378538660E+03 0.  0.
         24    2    3    3    0    0  0.36245846610E+02  0.93632107122E+02 -0.85704559829E+02  0.15485400062E+03  0.80955278101E+02 0.  0.
         -6    2    1    2    0  502 -0.90201933720E+02 -0.51991727449E+02  0.12712632271E+03  0.24087402097E+03  0.17612400030E+03 0.  0.
        -24    2    5    5    0    0 -0.79136132610E+02 -0.99615703017E+02  0.74578801442E+02  0.16894470153E+03  0.82428749713E+02 0.  0.
          5    1    3    3  501    0  0.53956087111E+02 -0.41640379673E+02 -0.92242823576E+02  0.11478679827E+03  0.47000000000E+01 0. -1.
        -11    1    4    4    0    0  0.57446079231E+02  0.75038061446E+02 -0.43350600368E+02  0.10397132892E+03  0.00000000000E+00 0.  1.
         12    1    4    4    0    0 -0.21200232621E+02  0.18594045676E+02 -0.42353959461E+02  0.50882671704E+02  0.00000000000E+00 0. -1.
         -5    1    5    5    0  502 -0.11065801110E+02  0.47623975568E+02  0.52547521267E+02  0.71929319435E+02  0.47000000000E+01 0.  1.
         13    1    6    6    0    0  0.92802341616E+01 -0.38618015392E+02  0.39323679601E+02  0.55891194622E+02  0.00000000000E+00 0. -1.
        -14    1    6    6    0    0 -0.88416366772E+02 -0.60997687625E+02  0.35255121841E+02  0.11305350691E+03  0.00000000000E+00 0.  1.
</event>
<event>
12    1  0.8219652E-002  0.1766605E+03  0.7818608E-02  0.1171184E+00
         21   -1    0    0  501  502  0.00000000000E+00  0.00000000000E+00  0.20239312849E+03  0.20239312849E+03  0.00000000000E+00 0. -1.
         21   -1    0    0  502  503 -0.00000000000E+00 -0.00000000000E+00 -0.15604386369E+03  0.15604386369E+03  0.00000000000E+00 0. -1.
         -6    2    1    2    0  503 -0.27421681394E+02 -0.26982363077E+02  0.44626610524E+02  0.18220995632E+03  0.17242081455E+03 0.  0.
        -24    2    3    3    0    0 -0.32062618258E+02  0.84256318648E-01 -0.38900972221E+02  0.94158339304E+02  0.79526653596E+02 0.  0.
          6    2    1    2  501    0  0.27421681394E+02  0.26982363077E+02  0.17226542784E+01  0.17622703586E+03  0.17196803221E+03 0.  0.
         24    2    5    5    0    0  0.48485331063E+01 -0.25386561770E+02  0.49717075708E+02  0.10154366554E+03  0.84683780047E+02 0.  0.
          5    1    5    5  501    0  0.22573148288E+02  0.52368924847E+02 -0.47994421430E+02  0.74683370315E+02  0.47000000000E+01 0. -1.
        -13    1    6    6    0    0 -0.18803198293E+01 -0.64456268666E+00  0.69269893848E+02  0.69298407322E+02  0.00000000000E+00 0.  1.
         14    1    6    6    0    0  0.67288529355E+01 -0.24741999083E+02 -0.19552818140E+02  0.32245258220E+02  0.00000000000E+00 0. -1.
         -5    1    3    3    0  503  0.46409368640E+01 -0.27066619396E+02  0.83527582745E+02  0.88051617019E+02  0.47000000000E+01 0.  1.
         13    1    4    4    0    0 -0.17075355711E+02  0.85505633531E+01  0.23008158657E+02  0.29900757032E+02  0.00000000000E+00 0. -1.
        -14    1    4    4    0    0 -0.14987262548E+02 -0.84663070345E+01 -0.61909130878E+02  0.64257582272E+02  0.00000000000E+00 0.  1.
</event>
<event>
12    1  0.8219652E-002  0.1867005E+03  0.7818608E-02  0.1162300E+00
         21   -1    0    0  503  502  0.00000000000E+00  0.00000000000E+00  0.18087774800E+03  0.18087774800E+03  0.00000000000E+00 0.  1.
         21   -1    0    0  501  503 -0.00000000000E+00 -0.00000000000E+00 -0.28998060100E+03  0.28998060100E+03  0.00000000000E+00 0.  1.
          6    2    1    2  501    0  0.54840282314E+02  0.41928995710E+02  0.83992172491E+02  0.20472363943E+03  0.17346926603E+03 0.  0.
         24    2    3    3    0    0  0.77844207146E+02  0.32221330814E+02  0.11613394209E+03  0.16375288562E+03  0.78930224241E+02 0.  0.
         -6    2    1    2    0  502 -0.54840282314E+02 -0.41928995710E+02 -0.19309502549E+03  0.26613470957E+03  0.16963636852E+03 0.  0.
        -24    2    5    5    0    0 -0.10040274229E+03 -0.45686171024E+02 -0.12688857284E+03  0.18554042630E+03  0.78464023544E+02 0.  0.
          5    1    3    3  501    0 -0.23003924832E+02  0.97076648963E+01 -0.32141769595E+02  0.40970753814E+02  0.47000000000E+01 0. -1.
        -11    1    4    4    0    0  0.14151504875E-01 -0.21267165902E+01  0.63877311617E+02  0.63912706586E+02  0.00000000000E+00 0.  1.
         12    1    4    4    0    0  0.77830055641E+02  0.34348047404E+02  0.52256630469E+02  0.99840179034E+02  0.00000000000E+00 0. -1.
         -5    1    5    5    0  502  0.45562459971E+02  0.37571753145E+01 -0.66206452642E+02  0.80594283273E+02  0.47000000000E+01 0.  1.
         13    1    6    6    0    0  0.16822521116E+01  0.44734346284E+01  0.78631470184E+01  0.92016667281E+01  0.00000000000E+00 0. -1.
        -14    1    6    6    0    0 -0.10208499440E+03 -0.50159605653E+02 -0.13475171986E+03  0.17633875957E+03  0.00000000000E+00 0.  1.
</event>
<event>
12    1  0.8219652E-002  0.2078742E+03  0.7818608E-02  0.1143305E+00
         21   -1    0    0  501  502  0.00000000000E+00  0.00000000000E+00  0.39692040899E+03  0.39692040899E+03  0.00000000000E+00 0. -1.
         21   -1    0    0  502  503 -0.00000000000E+00 -0.00000000000E+00 -0.19606313770E+03  0.19606313770E+03  0.00000000000E+00 0. -1.
         -6    2    1    2    0  503  0.90043798592E+02  0.74047829041E+02 -0.97456428420E+02  0.22938660934E+03  0.17184148059E+03 0.  0.
        -24    2    3    3    0    0  0.74613148421E+02 -0.80270498758E+01 -0.95390063553E+02  0.14571612125E+03  0.80637263838E+02 0.  0.
          6    2    1    2  501    0 -0.90043798592E+02 -0.74047829041E+02  0.29831369971E+03  0.36359693735E+03  0.17210666102E+03 0.  0.
         24    2    5    5    0    0  0.18861799134E+00 -0.87392632160E+02  0.13310677015E+03  0.17482354848E+03  0.72168920662E+02 0.  0.
          5    1    5    5  501    0 -0.90232416584E+02  0.13344803119E+02  0.16520692956E+03  0.18877338887E+03  0.47000000000E+01 0. -1.
        -13    1    6    6    0    0 -0.83454897614E+01  0.58893893743E+01  0.45281772767E+02  0.46419511539E+02  0.00000000000E+00 0.  1.
         14    1    6    6    0    0  0.85341077527E+01 -0.93282021534E+02  0.87824997384E+02  0.12840403694E+03  0.00000000000E+00 0. -1.
         -5    1    3    3    0  503  0.15430650171E+02  0.82074878917E+02 -0.20663648674E+01  0.83670488093E+02  0.47000000000E+01 0.  1.
         11    1    4    4    0    0  0.83446007676E+02  0.37161419924E+01 -0.10001844715E+03  0.13031015186E+03  0.00000000000E+00 0. -1.
        -12    1    4    4    0    0 -0.88328592549E+01 -0.11743191868E+02  0.46283835978E+01  0.15405969382E+02  0.00000000000E+00 0.  1.
</event>
<event>
12    1  0.8219652E-002  0.2559953E+03  0.7818608E-02  0.1109957E+00
         21   -1    0    0  501  502  0.00000000000E+00  0.00000000000E+00  0.28363374441E+03  0.28363374441E+03  0.00000000000E+00 0.  1.
         21   -1    0    0  502  503 -0.00000000000E+00 -0.00000000000E+00 -0.23998689352E+03  0.23998689352E+03  0.00000000000E+00 0.  1.
         -6    2    1    2    0  503 -0.14850273196E+03  0.11404884200E+03  0.78427421458E+02  0.26773956128E+03  0.17456635551E+03 0.  0.
        -24    2    3    3    0    0 -0.10698189069E+03  0.64358974385E+02  0.11971204650E+03  0.19080079687E+03  0.80540471127E+02 0.  0.
          6    2    1    2  501    0  0.14850273196E+03 -0.11404884200E+03 -0.34780570569E+02  0.25588107665E+03  0.17089539941E+03 0.  0.
         24    2    5    5    0    0  0.11938435373E+03 -0.65774647772E+02  0.39947007369E+02  0.16215499339E+03  0.78227554475E+02 0.  0.
          5    1    5    5  501    0  0.29118378230E+02 -0.48274194226E+02 -0.74727577938E+02  0.93726083261E+02  0.47000000000E+01 0. -1.
        -11    1    6    6    0    0  0.94928536415E+02 -0.29807746319E+02 -0.49812209413E+01  0.99622995983E+02  0.00000000000E+00 0.  1.
         12    1    6    6    0    0  0.24455817312E+02 -0.35966901453E+02  0.44928228311E+02  0.62531997407E+02  0.00000000000E+00 0. -1.
         -5    1    3    3    0  503 -0.41520841270E+02  0.49689867613E+02 -0.41284625045E+02  0.76938764406E+02  0.47000000000E+01 0.  1.
         13    1    4    4    0    0 -0.28567368152E+02 -0.14918111048E+02  0.49380427853E+02  0.58966695815E+02  0.00000000000E+00 0. -1.
        -14    1    4    4    0    0 -0.78414522534E+02  0.79277085433E+02  0.70331618650E+02  0.13183410105E+03  0.00000000000E+00 0.  1.
</event>
<event>
12    1  0.8219652E-002  0.2578115E+03  0.7818608E-02  0.1108561E+00
         21   -1    0    0  501  502  0.00000000000E+00  0.00000000000E+00  0.17086946438E+03  0.17086946438E+03  0.00000000000E+00 0.  1.
         21   -1    0    0  502  503 -0.00000000000E+00 -0.00000000000E+00 -0.97297282047E+03  0.97297282047E+03  0.00000000000E+00 0. -1.
         -6    2    1    2    0  503 -0.19850973702E+02 -0.19043597352E+03 -0.84469282139E+03  0.88316064668E+03  0.17264658751E+03 0.  0.
        -24    2    3    3    0    0  0.43612861870E+02 -0.16487845746E+03 -0.57960139623E+03  0.60934246112E+03  0.79205233149E+02 0.  0.
          6    2    1    2  501    0  0.19850973702E+02  0.19043597352E+03  0.42589465292E+02  0.26068163817E+03  0.17170070692E+03 0.  0.
         24    2    5    5    0    0  0.23057469219E+02  0.27908669437E+02  0.45620624899E+02  0.98026530302E+02  0.78850608815E+02 0.  0.
          5    1    5    5  501    0 -0.32064955164E+01  0.16252730408E+03 -0.30311596064E+01  0.16265510786E+03  0.47000000000E+01 0. -1.
        -13    1    6    6    0    0  0.27991718370E+02  0.44771650654E+02  0.41230166849E+01  0.52962593083E+02  0.00000000000E+00 0.  1.
         14    1    6    6    0    0 -0.49342491508E+01 -0.16862981217E+02  0.41497608214E+02  0.45063937219E+02  0.00000000000E+00 0. -1.
         -5    1    3    3    0  503 -0.63463835572E+02 -0.25557516062E+02 -0.26509142516E+03  0.27381818556E+03  0.47000000000E+01 0.  1.
         13    1    4    4    0    0  0.64547816589E+02 -0.94016254942E+02 -0.34135955643E+03  0.35990529808E+03  0.00000000000E+00 0. -1.
        -14    1    4    4    0    0 -0.20934954719E+02 -0.70862202515E+02 -0.23824183981E+03  0.24943716305E+03  0.00000000000E+00 0.  1.
</event>
<event>
12    1  0.8219652E-002  0.1944965E+03  0.7818608E-02  0.1155367E+00
         21   -1    0    0  501  502  0.00000000000E+00  0.00000000000E+00  0.20581913228E+03  0.20581913228E+03  0.00000000000E+00 0.  1.
         21   -1    0    0  502  503 -0.00000000000E+00 -0.00000000000E+00 -0.21069600091E+03  0.21069600091E+03  0.00000000000E+00 0.  1.
         -6    2    1    2    0  503 -0.46109155301E+02  0.63513683044E+02  0.77105324509E+02  0.20544651559E+03  0.17350215435E+03 0.  0.
        -24    2    3    3    0    0 -0.38809381031E+02  0.32827105897E+02  0.11981227340E+03  0.15214617596E+03  0.78801593019E+02 0.  0.
          6    2    1    2  501    0  0.46109155301E+02 -0.63513683044E+02 -0.81982193138E+02  0.21106861760E+03  0.17795740841E+03 0.  0.
         24    2    5    5    0    0  0.95726703809E+02 -0.13671035362E+02 -0.48887036395E+02  0.13319968896E+03  0.77470741454E+02 0.  0.
          5    1    5    5  501    0 -0.49617548508E+02 -0.49842647681E+02 -0.33095156742E+02  0.77868928641E+02  0.47000000000E+01 0. -1.
        -13    1    6    6    0    0 -0.78463183366E+01 -0.41133838903E+01 -0.24938320322E+02  0.26465155562E+02  0.00000000000E+00 0.  1.
         14    1    6    6    0    0  0.10357302215E+03 -0.95576514720E+01 -0.23948716074E+02  0.10673453340E+03  0.00000000000E+00 0. -1.
         -5    1    3    3    0  503 -0.72997742699E+01  0.30686577147E+02 -0.42706948894E+02  0.53300339635E+02  0.47000000000E+01 0.  1.
         11    1    4    4    0    0  0.71352393842E+01  0.67186647516E+00 -0.90888801945E+01  0.11574575103E+02  0.00000000000E+00 0. -1.
        -12    1    4    4    0    0 -0.45944620415E+02  0.32155239422E+02  0.12890115360E+03  0.14057160085E+03  0.00000000000E+00 0.  1.
</event>
<event>
12    1  0.8219652E-002  0.1782639E+03  0.7818608E-02  0.1169581E+00
         21   -1    0    0  503  502  0.00000000000E+00  0.00000000000E+00  0.21335046875E+04  0.21335046875E+04  0.00000000000E+00 0.  1.
         21   -1    0    0  501  503 -0.00000000000E+00 -0.00000000000E+00 -0.10217510707E+03  0.10217510707E+03  0.00000000000E+00 0.  1.
          6    2    1    2  501    0  0.25107608496E+02  0.40365131958E+02 -0.17811362533E+02  0.17879948052E+03  0.17144175022E+03 0.  0.
         24    2    3    3    0    0  0.24220025346E+02 -0.32650293721E+02 -0.43883391363E+02  0.10112142134E+03  0.81529985332E+02 0.  0.
         -6    2    1    2    0  502 -0.25107608496E+02 -0.40365131958E+02  0.20491409430E+04  0.20568803141E+04  0.17180886556E+03 0.  0.
        -24    2    5    5    0    0  0.11396944605E+02  0.32034679580E+02  0.69325902821E+03  0.69856806280E+03  0.78950282670E+02 0.  0.
          5    1    3    3  501    0  0.88758315017E+00  0.73015425680E+02  0.26072028830E+02  0.77678059183E+02  0.47000000000E+01 0. -1.
        -11    1    4    4    0    0 -0.18689667406E+01  0.21389749078E+02 -0.34135607254E+02  0.40326840751E+02  0.00000000000E+00 0.  1.
         12    1    4    4    0    0  0.26088992086E+02 -0.54040042799E+02 -0.97477841091E+01  0.60794580588E+02  0.00000000000E+00 0. -1.
         -5    1    5    5    0  502 -0.36504553101E+02 -0.72399811539E+02  0.13558819148E+04  0.13583122513E+04  0.47000000000E+01 0.  1.
         13    1    6    6    0    0 -0.30337639347E+02  0.12587320915E+02  0.16069335531E+03  0.16401575366E+03  0.00000000000E+00 0. -1.
        -14    1    6    6    0    0  0.41734583952E+02  0.19447358666E+02  0.53256567290E+03  0.53455230914E+03  0.00000000000E+00 0.  1.
</event>
<event>
12    1  0.8219652E-002  0.1798061E+03  0.7818608E-02  0.1168333E+00
         21   -1    0    0  501  502  0.00000000000E+00  0.00000000000E+00  0.12345087763E+04  0.12345087763E+04  0.00000000000E+00 0. -1.
         21   -1    0    0  502  503 -0.00000000000E+00 -0.00000000000E+00 -0.53075170547E+02  0.53075170547E+02  0.00000000000E+00 0. -1.
         -6    2    1    2    0  503 -0.49958366277E+02 -0.18165332114E+02  0.12963502938E+03  0.22052702072E+03  0.17029711793E+03 0.  0.
        -24    2    3    3    0    0 -0.86871463641E+02 -0.33352042625E+02  0.51140161074E+02  0.13234115290E+03  0.78992751148E+02 0.  0.
          6    2    1    2  501    0  0.49958366277E+02  0.18165332114E+02  0.10517985764E+04  0.10670569261E+04  0.17176850898E+03 0.  0.
         24    2    5    5    0    0  0.65430393343E+01  0.59659408854E+02  0.37021512809E+03  0.38281666423E+03  0.76728748979E+02 0.  0.
          5    1    5    5  501    0  0.43415326943E+02 -0.41494076740E+02  0.68158344826E+03  0.68424026187E+03  0.47000000000E+01 0. -1.
        -11    1    6    6    0    0  0.36903538413E+02  0.33474847375E+02  0.12890948283E+03  0.13820307999E+03  0.00000000000E+00 0.  1.
         12    1    6    6    0    0 -0.30360499079E+02  0.26184561479E+02  0.24130564526E+03  0.24461358425E+03  0.00000000000E+00 0. -1.
         -5    1    3    3    0  503  0.36913097364E+02  0.15186710511E+02  0.78494868304E+02  0.88185867820E+02  0.47000000000E+01 0.  1.
         13    1    4    4    0    0 -0.45692456345E+02 -0.56580102808E+02  0.18982572570E+02  0.75162801052E+02  0.00000000000E+00 0. -1.
        -14    1    4    4    0    0 -0.41179007295E+02  0.23228060183E+02  0.32157588504E+02  0.57178351848E+02  0.00000000000E+00 0.  1.
</event>
<event>
12    1  0.8219652E-002  0.1784241E+03  0.7818608E-02  0.1170340E+00
         21   -1    0    0  503  502  0.00000000000E+00  0.00000000000E+00  0.77039074910E+03  0.77039074910E+03  0.00000000000E+00 0. -1.
         21   -1    0    0  501  503 -0.00000000000E+00 -0.00000000000E+00 -0.40446533974E+02  0.40446533974E+02  0.00000000000E+00 0. -1.
          6    2    1    2  501    0 -0.42521972538E+00 -0.33111800989E+02  0.34575485762E+03  0.38723767265E+03  0.17120169794E+03 0.  0.
         24    2    3    3    0    0  0.56866199605E+02  0.12589998072E+02  0.17290352213E+03  0.19943289277E+03  0.80533086649E+02 0.  0.
         -6    2    1    2    0  502  0.42521972538E+00  0.33111800989E+02  0.38418935750E+03  0.42359961042E+03  0.17532425774E+03 0.  0.
        -24    2    5    5    0    0  0.15463777088E+02  0.83709008298E+02  0.29613317450E+03  0.32082696347E+03  0.89379846606E+02 0.  0.
          5    1    3    3  501    0 -0.57291419330E+02 -0.45701799061E+02  0.17285133549E+03  0.18780477988E+03  0.47000000000E+01 0. -1.
        -13    1    4    4    0    0 -0.14477799665E+02  0.23074315957E+02  0.49860349872E+02  0.56816240894E+02  0.00000000000E+00 0.  1.
         14    1    4    4    0    0  0.71343999269E+02 -0.10484317885E+02  0.12304317226E+03  0.14261665188E+03  0.00000000000E+00 0. -1.
         -5    1    5    5    0  502 -0.15038557362E+02 -0.50597207310E+02  0.88056183007E+02  0.10277264695E+03  0.47000000000E+01 0.  1.
         13    1    6    6    0    0  0.39973807656E+02  0.10312076525E+02  0.14865401416E+03  0.15427981121E+03  0.00000000000E+00 0. -1.
        -14    1    6    6    0    0 -0.24510030569E+02  0.73396931773E+02  0.14747916033E+03  0.16654715225E+03  0.00000000000E+00 0.  1.
</event>
<event>
12    1  0.8219652E-002  0.3244500E+03  0.7818608E-02  0.1073631E+00
         21   -1    0    0  501  502  0.00000000000E+00  0.00000000000E+00  0.11353629926E+03  0.11353629926E+03  0.00000000000E+00 0. -1.
         21   -1    0    0  502  503 -0.00000000000E+00 -0.00000000000E+00 -0.13122464194E+04  0.13122464194E+04  0.00000000000E+00 0.  1.
         -6    2    1    2    0  503 -0.15295840940E+03  0.22871194590E+03 -0.21296709494E+03  0.38801727463E+03  0.17174688550E+03 0.  0.
        -24    2    3    3    0    0 -0.13783388372E+03  0.85677184976E+02 -0.11955994464E+03  0.21645189398E+03  0.78854819244E+02 0.  0.
          6    2    1    2  501    0  0.15295840940E+03 -0.22871194590E+03 -0.98574302517E+03  0.10377654440E+04  0.17193712770E+03 0.  0.
         24    2    5    5    0    0  0.17689930805E+03 -0.18129805822E+03 -0.88229828923E+03  0.92138612123E+03  0.79622623193E+02 0.  0.
          5    1    5    5  501    0 -0.23940898652E+02 -0.47413887681E+02 -0.10344473595E+03  0.11637932277E+03  0.47000000000E+01 0. -1.
        -13    1    6    6    0    0  0.16713779518E+03 -0.18889543573E+03 -0.82173483516E+03  0.85957237481E+03  0.00000000000E+00 0.  1.
         14    1    6    6    0    0  0.97615128796E+01  0.75973775105E+01 -0.60563454068E+02  0.61813746427E+02  0.00000000000E+00 0. -1.
         -5    1    3    3    0  503 -0.15124525681E+02  0.14303476093E+03 -0.93407150301E+02  0.17156538065E+03  0.47000000000E+01 0.  1.
         13    1    4    4    0    0 -0.46687325874E+02  0.43694660709E+02 -0.49769865488E+01  0.64138133485E+02  0.00000000000E+00 0. -1.
        -14    1    4    4    0    0 -0.91146557847E+02  0.41982524267E+02 -0.11458295809E+03  0.15231376050E+03  0.00000000000E+00 0.  1.
</event>
<event>
12    1  0.8219652E-002  0.2066610E+03  0.7818608E-02  0.1147574E+00
         21   -1    0    0  503  502  0.00000000000E+00  0.00000000000E+00  0.10983214056E+03  0.10983214056E+03  0.00000000000E+00 0. -1.
         21   -1    0    0  501  503 -0.00000000000E+00 -0.00000000000E+00 -0.83005505479E+03  0.83005505479E+03  0.00000000000E+00 0. -1.
          6    2    1    2  501    0  0.72159872625E+02 -0.42370155398E+02 -0.70755322993E+03  0.73283821162E+03  0.17151674536E+03 0.  0.
         24    2    3    3    0    0 -0.23809313829E+02 -0.42795874386E+02 -0.30525115799E+03  0.31922086059E+03  0.79531868403E+02 0.  0.
         -6    2    1    2    0  502 -0.72159872625E+02  0.42370155398E+02 -0.12669684296E+02  0.20704898373E+03  0.18896159260E+03 0.  0.
        -24    2    5    5    0    0 -0.12310109792E+03  0.12431375742E+02 -0.91928299814E+01  0.14767291550E+03  0.80089714929E+02 0.  0.
          5    1    3    3  501    0  0.95969186454E+02  0.42571898739E+00 -0.40230207195E+03  0.41361735104E+03  0.47000000000E+01 0. -1.
        -13    1    4    4    0    0  0.12613719723E+02  0.17996879634E+02 -0.88005938843E+02  0.90708538040E+02  0.00000000000E+00 0.  1.
         14    1    4    4    0    0 -0.36423033553E+02 -0.60792754020E+02 -0.21724521915E+03  0.22851232255E+03  0.00000000000E+00 0. -1.
         -5    1    5    5    0  502  0.50941225299E+02  0.29938779657E+02 -0.34768543150E+01  0.59376068228E+02  0.47000000000E+01 0.  1.
         13    1    6    6    0    0 -0.99242755319E+02  0.30743375628E+02  0.19950325723E+02  0.10579364407E+03  0.00000000000E+00 0. -1.
        -14    1    6    6    0    0 -0.23858342605E+02 -0.18311999887E+02 -0.29143155704E+02  0.41879271437E+02  0.00000000000E+00 0.  1.
</event>
<event>
12    1  0.8219652E-002  0.2693731E+03  0.7818608E-02  0.1101768E+00
         21   -1    0    0  503  502  0.00000000000E+00  0.00000000000E+00  0.47282337297E+02  0.47282337297E+02  0.00000000000E+00 0. -1.
         21   -1    0    0  501  503 -0.00000000000E+00 -0.00000000000E+00 -0.18590292857E+04  0.18590292857E+04  0.00000000000E+00 0.  1.
          6    2    1    2  501    0 -0.19430700301E+03 -0.68036353998E+02 -0.13083967776E+04  0.13358383199E+04  0.17371739236E+03 0.  0.
         24    2    3    3    0    0 -0.54491480629E+02 -0.30750240048E+02 -0.82301146068E+03  0.82932116277E+03  0.80689701212E+02 0.  0.
         -6    2    1    2    0  502  0.19430700301E+03  0.68036353998E+02 -0.50335017080E+03  0.57047330309E+03  0.17232016194E+03 0.  0.
        -24    2    5    5    0    0  0.18052181353E+03  0.10637405777E+03 -0.38660903026E+03  0.44673812267E+03  0.78770823525E+02 0.  0.
          5    1    3    3  501    0 -0.13981552238E+03 -0.37286113950E+02 -0.48538531690E+03  0.50651715712E+03  0.47000000000E+01 0. -1.
        -11    1    4    4    0    0 -0.66937553601E+02 -0.30841031148E+02 -0.44169339399E+03  0.44780002186E+03  0.00000000000E+00 0.  1.
         12    1    4    4    0    0  0.12446072973E+02  0.90791099620E-01 -0.38131806669E+03  0.38152114091E+03  0.00000000000E+00 0. -1.
         -5    1    5    5    0  502  0.13785189472E+02 -0.38337703772E+02 -0.11674114054E+03  0.12373518042E+03  0.47000000000E+01 0.  1.
         13    1    6    6    0    0  0.16641632727E+03  0.83926390084E+02 -0.27628821378E+03  0.33327647684E+03  0.00000000000E+00 0. -1.
        -14    1    6    6    0    0  0.14105486259E+02  0.22447667686E+02 -0.11032081647E+03  0.11346164583E+03  0.00000000000E+00 0.  1.
</event>
<event>
12    1  0.8219652E-002  0.1949440E+03  0.7818608E-02  0.1154499E+00
         21   -1    0    0  501  502  0.00000000000E+00  0.00000000000E+00  0.82288100508E+03  0.82288100508E+03  0.00000000000E+00 0. -1.
         21   -1    0    0  502  503 -0.00000000000E+00 -0.00000000000E+00 -0.13213916292E+03  0.13213916292E+03  0.00000000000E+00 0. -1.
         -6    2    1    2    0  503  0.25096823914E+02  0.87957951779E+02 -0.41370179207E+02  0.19739812595E+03  0.16996492741E+03 0.  0.
        -24    2    3    3    0    0 -0.84616706288E+01  0.78035841413E+02  0.31603167300E+02  0.11633136254E+03  0.79831280286E+02 0.  0.
          6    2    1    2  501    0 -0.25096823914E+02 -0.87957951779E+02  0.73211202136E+03  0.75762204205E+03  0.17215311475E+03 0.  0.
         24    2    5    5    0    0  0.26004226388E+02  0.77905131296E+01  0.37717865256E+03  0.38643627701E+03  0.79576053932E+02 0.  0.
          5    1    5    5  501    0 -0.51101050302E+02 -0.95748464909E+02  0.35493336880E+03  0.37118576503E+03  0.47000000000E+01 0. -1.
        -11    1    6    6    0    0 -0.87754930469E+01  0.11253643651E+02  0.95990609158E+01  0.17198713443E+02  0.00000000000E+00 0.  1.
         12    1    6    6    0    0  0.34779719435E+02 -0.34631305216E+01  0.36757959165E+03  0.36923756357E+03  0.00000000000E+00 0. -1.
         -5    1    3    3    0  503  0.33558494543E+02  0.99221103668E+01 -0.72973346507E+02  0.81066763415E+02  0.47000000000E+01 0.  1.
         13    1    4    4    0    0  0.49945395418E+01  0.26711373371E+00 -0.20931874834E+02  0.21521156080E+02  0.00000000000E+00 0. -1.
        -14    1    4    4    0    0 -0.13456210171E+02  0.77768727679E+02  0.52535042133E+02  0.94810206459E+02  0.00000000000E+00 0.  1.
</event>
<event>
12    1  0.8219652E-002  0.1875671E+03  0.7818608E-02  0.1162696E+00
         21   -1    0    0  501  502  0.00000000000E+00  0.00000000000E+00  0.14057617293E+03  0.14057617293E+03  0.00000000000E+00 0. -1.
         21   -1    0    0  502  503 -0.00000000000E+00 -0.00000000000E+00 -0.44621428209E+03  0.44621428209E+03  0.00000000000E+00 0. -1.
         -6    2    1    2    0  503 -0.47485747701E+02  0.44953073483E+01 -0.35084287973E+03  0.39385295197E+03  0.17249439846E+03 0.  0.
        -24    2    3    3    0    0 -0.94123955709E+02  0.25521477632E+02 -0.23233311433E+03  0.26468686982E+03  0.81054291584E+02 0.  0.
          6    2    1    2  501    0  0.47485747701E+02 -0.44953073483E+01  0.45204770562E+02  0.19293750305E+03  0.18140095032E+03 0.  0.
         24    2    5    5    0    0  0.67240725251E+02  0.40955936513E+02 -0.16419972046E+02  0.11371772264E+03  0.80395280284E+02 0.  0.
          5    1    5    5  501    0 -0.19754977550E+02 -0.45451243861E+02  0.61624742608E+02  0.79219780409E+02  0.47000000000E+01 0. -1.
        -13    1    6    6    0    0 -0.17081476438E+02 -0.23062463607E+01 -0.65240917466E+01  0.18429850316E+02  0.00000000000E+00 0.  1.
         14    1    6    6    0    0  0.84322201688E+02  0.43262182873E+02 -0.98958802994E+01  0.95287872321E+02  0.00000000000E+00 0. -1.
         -5    1    3    3    0  503  0.46638208008E+02 -0.21026170284E+02 -0.11850976540E+03  0.12916608215E+03  0.47000000000E+01 0.  1.
         11    1    4    4    0    0 -0.13233597829E+02  0.18263383750E+02 -0.13963075274E+03  0.14144054019E+03  0.00000000000E+00 0. -1.
        -12    1    4    4    0    0 -0.80890357880E+02  0.72580938821E+01 -0.92702361588E+02  0.12324632964E+03  0.00000000000E+00 0.  1.
</event>
<event>
12    1  0.8219652E-002  0.1885005E+03  0.7818608E-02  0.1160415E+00
         21   -1    0    0  503  502  0.00000000000E+00  0.00000000000E+00  0.40103504293E+03  0.40103504293E+03  0.00000000000E+00 0.  1.
         21   -1    0    0  501  503 -0.00000000000E+00 -0.00000000000E+00 -0.26893951214E+03  0.26893951214E+03  0.00000000000E+00 0.  1.
          6    2    1    2  501    0 -0.22911559403E+01  0.76887935035E+02 -0.20933084738E+03  0.27996891957E+03  0.16925184876E+03 0.  0.
         24    2    3    3    0    0 -0.82041793825E+00  0.80473267691E+02 -0.23108135234E+03  0.25738148620E+03  0.79812393378E+02 0.  0.
         -6    2    1    2    0  502  0.22911559403E+01 -0.76887935035E+02  0.34142637818E+03  0.39000563550E+03  0.17209131314E+03 0.  0.
        -24    2    5    5    0    0  0.64499937377E+02 -0.61253467376E+02  0.25485806986E+03  0.28216069556E+03  0.82157124809E+02 0.  0.
          5    1    3    3  501    0 -0.14707380021E+01 -0.35853326559E+01  0.21750504959E+02  0.22587433376E+02  0.47000000000E+01 0. -1.
        -11    1    4    4    0    0  0.32284973131E+02  0.65745397935E+02 -0.12049038181E+03  0.14100605997E+03  0.00000000000E+00 0.  1.
         12    1    4    4    0    0 -0.33105391069E+02  0.14727869756E+02 -0.11059097054E+03  0.11637542623E+03  0.00000000000E+00 0. -1.
         -5    1    5    5    0  502 -0.62208781437E+02 -0.15634467659E+02  0.86568308312E+02  0.10784493994E+03  0.47000000000E+01 0.  1.
         13    1    6    6    0    0  0.28152996596E+02  0.97628576559E+01  0.25146704590E+02  0.38990529089E+02  0.00000000000E+00 0. -1.
        -14    1    6    6    0    0  0.36346940781E+02 -0.71016325032E+02  0.22971136527E+03  0.24317016647E+03  0.00000000000E+00 0.  1.
</event>
<event>
12    1  0.8219652E-002  0.2136615E+03  0.7818608E-02  0.1138800E+00
         21   -1    0    0  503  502  0.00000000000E+00  0.00000000000E+00  0.14640433587E+04  0.14640433587E+04  0.00000000000E+00 0.  1.
         21   -1    0    0  501  503 -0.00000000000E+00 -0.00000000000E+00 -0.39648486490E+02  0.39648486490E+02  0.00000000000E+00 0.  1.
          6    2    1    2  501    0  0.87174417851E+02 -0.93448022302E+02  0.36251465191E+03  0.42052941984E+03  0.17057610648E+03 0.  0.
         24    2    3    3    0    0  0.28192404322E+02  0.16326791861E+02  0.17566069427E+03  0.19588329984E+03  0.80325661229E+02 0.  0.
         -6    2    1    2    0  502 -0.87174417851E+02  0.93448022302E+02  0.10618802203E+04  0.10831624253E+04  0.17122886854E+03 0.  0.
        -24    2    5    5    0    0 -0.34707919807E+02  0.51770544388E+02  0.27278894955E+03  0.29121743411E+03  0.80678088514E+02 0.  0.
          5    1    3    3  501    0  0.58982013529E+02 -0.10977481416E+03  0.18685395764E+03  0.22464612000E+03  0.47000000000E+01 0. -1.
        -13    1    4    4    0    0  0.16040534024E+02 -0.31141810529E+02  0.50384102934E+02  0.61365046429E+02  0.00000000000E+00 0.  1.
         14    1    4    4    0    0  0.12151870298E+02  0.47468602390E+02  0.12527659133E+03  0.13451825341E+03  0.00000000000E+00 0. -1.
         -5    1    5    5    0  502 -0.52466498045E+02  0.41677477915E+02  0.78909127075E+03  0.79194499124E+03  0.47000000000E+01 0.  1.
         13    1    6    6    0    0 -0.46349006070E+01 -0.38071064575E+01  0.17299177415E+03  0.17309572579E+03  0.00000000000E+00 0. -1.
        -14    1    6    6    0    0 -0.30073019200E+02  0.55577650845E+02  0.99797175398E+02  0.11812170831E+03  0.00000000000E+00 0.  1.
</event>
<event>
12    1  0.8219652E-002  0.2507721E+03  0.7818608E-02  0.1113285E+00
         21   -1    0    0  501  502  0.00000000000E+00  0.00000000000E+00  0.74463976820E+03  0.74463976820E+03  0.00000000000E+00 0.  1.
         21   -1    0    0  502  503 -0.00000000000E+00 -0.00000000000E+00 -0.11743363305E+03  0.11743363305E+03  0.00000000000E+00 0.  1.
         -6    2    1    2    0  503  0.16107603807E+03  0.86407061418E+02  0.83092718002E+02  0.26417993341E+03  0.17168275140E+03 0.  0.
        -24    2    3    3    0    0  0.33253362283E+02  0.17829195304E+02  0.79277783000E+02  0.11899658762E+03  0.80321570447E+02 0.  0.
          6    2    1    2  501    0 -0.16107603807E+03 -0.86407061418E+02  0.54411341714E+03  0.59789346784E+03  0.16734849226E+03 0.  0.
         24    2    5    5    0    0 -0.14927284510E+03 -0.48448305708E+02  0.27825418653E+03  0.32903773886E+03  0.78808760082E+02 0.  0.
          5    1    5    5  501    0 -0.11803192975E+02 -0.37958755710E+02  0.26585923062E+03  0.26885572898E+03  0.47000000000E+01 0. -1.
        -11    1    6    6    0    0 -0.23626055391E+02 -0.43582267382E+02  0.87538693973E+02  0.10060132935E+03  0.00000000000E+00 0.  1.
         12    1    6    6    0    0 -0.12564678971E+03 -0.48660383260E+01  0.19071549255E+03  0.22843640951E+03  0.00000000000E+00 0. -1.
         -5    1    3    3    0  503  0.12782267579E+03  0.68577866114E+02  0.38149350023E+01  0.14518334579E+03  0.47000000000E+01 0.  1.
         13    1    4    4    0    0  0.11494162195E+02  0.19935722058E+02  0.91225926372E+02  0.94083571472E+02  0.00000000000E+00 0. -1.
        -14    1    4    4    0    0  0.21759200088E+02 -0.21065267542E+01 -0.11948143372E+02  0.24913016146E+02  0.00000000000E+00 0.  1.
</event>
<event>
12    1  0.8219652E-002  0.3538045E+03  0.7818608E-02  0.1061068E+00
         21   -1    0    0  501  502  0.00000000000E+00  0.00000000000E+00  0.67567300152E+03  0.67567300152E+03  0.00000000000E+00 0. -1.
         21   -1    0    0  502  503 -0.00000000000E+00 -0.00000000000E+00 -0.23379055900E+03  0.23379055900E+03  0.00000000000E+00 0.  1.
         -6    2    1    2    0  503 -0.28819456307E+03 -0.11384949065E+03  0.13733371620E+02  0.35407094521E+03  0.17076245501E+03 0.  0.
        -24    2    3    3    0    0 -0.27608550487E+03 -0.88607509599E+02  0.53242592147E+02  0.30542060703E+03  0.79827794820E+02 0.  0.
          6    2    1    2  501    0  0.28819456307E+03  0.11384949065E+03  0.42814907089E+03  0.55539261531E+03  0.17067957561E+03 0.  0.
         24    2    5    5    0    0  0.81819666801E+02  0.15852742841E+02  0.20922109425E+03  0.23893486244E+03  0.79816256999E+02 0.  0.
          5    1    5    5  501    0  0.20637489627E+03  0.97996747813E+02  0.21892797665E+03  0.31645775287E+03  0.47000000000E+01 0. -1.
        -13    1    6    6    0    0  0.11783844063E+02  0.33138059279E+02  0.31824298172E+02  0.47431802705E+02  0.00000000000E+00 0.  1.
         14    1    6    6    0    0  0.70035822739E+02 -0.17285316439E+02  0.17739679607E+03  0.19150305974E+03  0.00000000000E+00 0. -1.
         -5    1    3    3    0  503 -0.12109058203E+02 -0.25241981054E+02 -0.39509220528E+02  0.48650338178E+02  0.47000000000E+01 0.  1.
         13    1    4    4    0    0 -0.22935848825E+03 -0.53242130916E+02  0.16029615765E+02  0.23600209579E+03  0.00000000000E+00 0. -1.
        -14    1    4    4    0    0 -0.46727016615E+02 -0.35365378684E+02  0.37212976382E+02  0.69418511237E+02  0.00000000000E+00 0.  1.
</event>
<event>
12    1  0.8219652E-002  0.2118109E+03  0.7818608E-02  0.1140374E+00
         21   -1    0    0  501  502  0.00000000000E+00  0.00000000000E+00  0.33676990299E+03  0.33676990299E+03  0.00000000000E+00 0. -1.
         21   -1    0    0  502  503 -0.00000000000E+00 -0.00000000000E+00 -0.14250011624E+03  0.14250011624E+03  0.00000000000E+00 0.  1.
         -6    2    1    2    0  503  0.99003376560E+02  0.72779568770E+02  0.33301890900E+02  0.21323522463E+03  0.17106054742E+03 0.  0.
        -24    2    3    3    0    0  0.28353358845E+02  0.14599191198E+02  0.70308726398E+02  0.11440214711E+03  0.84424433163E+02 0.  0.
          6    2    1    2  501    0 -0.99003376560E+02 -0.72779568770E+02  0.16096789585E+03  0.26603479460E+03  0.17252627117E+03 0.  0.
         24    2    5    5    0    0  0.12484422245E+02 -0.52219746318E+02  0.91439008603E+02  0.13296116181E+03  0.80217302075E+02 0.  0.
          5    1    5    5  501    0 -0.11148779880E+03 -0.20559822452E+02  0.69528887247E+02  0.13307363279E+03  0.47000000000E+01 0. -1.
        -13    1    6    6    0    0 -0.46745504624E+01  0.20619327919E+02  0.14534189318E+02  0.25656398129E+02  0.00000000000E+00 0.  1.
         14    1    6    6    0    0  0.17158972707E+02 -0.72839074237E+02  0.76904819285E+02  0.10730476368E+03  0.00000000000E+00 0. -1.
         -5    1    3    3    0  503  0.70650017716E+02  0.58180377572E+02 -0.37006835498E+02  0.98833077516E+02  0.47000000000E+01 0.  1.
         11    1    4    4    0    0 -0.28061775947E+02  0.48191337435E+01  0.41441652358E+02  0.50280193611E+02  0.00000000000E+00 0. -1.
        -12    1    4    4    0    0  0.56415134792E+02  0.97800574543E+01  0.28867074039E+02  0.64121953502E+02  0.00000000000E+00 0.  1.
</event>
<event>
12    1  0.8219652E-002  0.2170804E+03  0.7818608E-02  0.1137757E+00
         21   -1    0    0  503  502  0.00000000000E+00  0.00000000000E+00  0.12651482604E+03  0.12651482604E+03  0.00000000000E+00 0.  1.
         21   -1    0    0  501  503 -0.00000000000E+00 -0.00000000000E+00 -0.37621324142E+03  0.37621324142E+03  0.00000000000E+00 0. -1.
          6    2    1    2  501    0 -0.17322256851E+02  0.13126042422E+03 -0.71618350601E+02  0.22858929781E+03  0.17203057688E+03 0.  0.
         24    2    3    3    0    0 -0.36832850847E+02  0.15007242546E+03 -0.26224573955E+02  0.17551162240E+03  0.78982336852E+02 0.  0.
         -6    2    1    2    0  502  0.17322256851E+02 -0.13126042422E+03 -0.17808006478E+03  0.27413876965E+03  0.16096644372E+03 0.  0.
        -24    2    5    5    0    0  0.26275337826E+02 -0.13628395427E+03 -0.85547176703E+02  0.18091957158E+03  0.78421058201E+02 0.  0.
          5    1    3    3  501    0  0.19510593996E+02 -0.18812001235E+02 -0.45393776646E+02  0.53077675409E+02  0.47000000000E+01 0. -1.
        -11    1    4    4    0    0 -0.35403226906E+02  0.17641169430E+02  0.37201202413E+01  0.39729568697E+02  0.00000000000E+00 0.  1.
         12    1    4    4    0    0 -0.14296239410E+01  0.13243125603E+03 -0.29944694196E+02  0.13578205371E+03  0.00000000000E+00 0. -1.
         -5    1    5    5    0  502 -0.89530809756E+01  0.50235300497E+01 -0.92532888076E+02  0.93219198070E+02  0.47000000000E+01 0.  1.
         11    1    6    6    0    0 -0.46534017039E+01 -0.12586348200E+03 -0.60206247871E+02  0.13959965090E+03  0.00000000000E+00 0. -1.
        -12    1    6    6    0    0  0.30928739530E+02 -0.10420472277E+02 -0.25340928832E+02  0.41319920686E+02  0.00000000000E+00 0.  1.
</event>
<event>
12    1  0.8219652E-002  0.2167689E+03  0.7818608E-02  0.1136362E+00
         21   -1    0    0  503  502  0.00000000000E+00  0.00000000000E+00  0.13720211220E+03  0.13720211220E+03  0.00000000000E+00 0.  1.
         21   -1    0    0  501  503 -0.00000000000E+00 -0.00000000000E+00 -0.73459981116E+03  0.73459981116E+03  0.00000000000E+00 0. -1.
          6    2    1    2  501    0 -0.42659581225E+02  0.12458905612E+03 -0.61725130999E+03  0.65412569480E+03  0.17186905522E+03 0.  0.
         24    2    3    3    0    0 -0.86377699856E+01 -0.57294090454E+01 -0.18396776180E+03  0.20036682807E+03  0.78710172227E+02 0.  0.
         -6    2    1    2    0  502  0.42659581225E+02 -0.12458905612E+03  0.19853611025E+02  0.21767622856E+03  0.17218159551E+03 0.  0.
        -24    2    5    5    0    0 -0.13246610348E+02 -0.10496769859E+03  0.61989266791E+02  0.14482018272E+03  0.77048852643E+02 0.  0.
          5    1    3    3  501    0 -0.34021811239E+02  0.13031846517E+03 -0.43328354819E+03  0.45375886673E+03  0.47000000000E+01 0. -1.
        -11    1    4    4    0    0 -0.91365362684E+01 -0.22188854554E+02 -0.10624423357E+02  0.26243093054E+02  0.00000000000E+00 0.  1.
         12    1    4    4    0    0  0.49876628288E+00  0.16459445508E+02 -0.17334333845E+03  0.17412373502E+03  0.00000000000E+00 0. -1.
         -5    1    5    5    0  502  0.55906191573E+02 -0.19621357529E+02 -0.42135655766E+02  0.72856045832E+02  0.47000000000E+01 0.  1.
         11    1    6    6    0    0 -0.88360067186E+01  0.10889494823E+02  0.12399530765E+02  0.18719093873E+02  0.00000000000E+00 0. -1.
        -12    1    6    6    0    0 -0.44106036290E+01 -0.11585719342E+03  0.49589736026E+02  0.12610108885E+03  0.00000000000E+00 0.  1.
</event>
<event>
12    1  0.8219652E-002  0.2264139E+03  0.7818608E-02  0.1129564E+00
         21   -1    0    0  501  502  0.00000000000E+00  0.00000000000E+00  0.11932772926E+04  0.11932772926E+04  0.00000000000E+00 0.  1.
         21   -1    0    0  502  503 -0.00000000000E+00 -0.00000000000E+00 -0.86474206443E+02  0.86474206443E+02  0.00000000000E+00 0. -1.
         -6    2    1    2    0  503 -0.13712902242E+03 -0.50997516966E+02  0.98705102930E+02  0.24699384681E+03  0.17279510262E+03 0.  0.
        -24    2    3    3    0    0 -0.24671991669E+02 -0.23561849636E+02  0.10733481508E+03  0.13082215689E+03  0.66556789830E+02 0.  0.
          6    2    1    2  501    0  0.13712902242E+03  0.50997516966E+02  0.10080979832E+04  0.10327576522E+04  0.17006383782E+03 0.  0.
         24    2    5    5    0    0  0.13217759246E+03  0.57072917666E+02  0.10100451818E+04  0.10234137379E+04  0.80350330857E+02 0.  0.
          5    1    5    5  501    0  0.49514299627E+01 -0.60754006990E+01 -0.19471986331E+01  0.93439143214E+01  0.47000000000E+01 0. -1.
        -11    1    6    6    0    0  0.11600370662E+03  0.28873092344E+02  0.58282038267E+03  0.59495387541E+03  0.00000000000E+00 0.  1.
         12    1    6    6    0    0  0.16173885840E+02  0.28199825322E+02  0.42722479917E+03  0.42845986248E+03  0.00000000000E+00 0. -1.
         -5    1    3    3    0  503 -0.11245703075E+03 -0.27435667331E+02 -0.86297121518E+01  0.11617168992E+03  0.47000000000E+01 0.  1.
         13    1    4    4    0    0 -0.21052580852E+02  0.20406689958E+02  0.55386263763E+02  0.62668033073E+02  0.00000000000E+00 0. -1.
        -14    1    4    4    0    0 -0.36194108170E+01 -0.43968539594E+02  0.51948551319E+02  0.68154123813E+02  0.00000000000E+00 0.  1.
</event>
<event>
12    1  0.8219652E-002  0.3252432E+03  0.7818608E-02  0.1073291E+00
         21   -1    0    0  503  502  0.00000000000E+00  0.00000000000E+00  0.42000724275E+03  0.42000724275E+03  0.00000000000E+00 0.  1.
         21   -1    0    0  501  503 -0.00000000000E+00 -0.00000000000E+00 -0.27541087054E+03  0.27541087054E+03  0.00000000000E+00 0.  1.
          6    2    1    2  501    0 -0.11737632476E+03  0.25005850508E+03  0.17439026836E+03  0.36881316126E+03  0.17118622796E+03 0.  0.
         24    2    3    3    0    0 -0.71392791279E+02  0.10377274079E+03  0.15330148483E+03  0.21395568816E+03  0.80062343633E+02 0.  0.
         -6    2    1    2    0  502  0.11737632476E+03 -0.25005850508E+03 -0.29793896153E+02  0.32660495203E+03  0.17168768408E+03 0.  0.
        -24    2    5    5    0    0  0.84891578824E+02 -0.77820279008E+02 -0.52240225863E+02  0.14983619643E+03  0.80369574979E+02 0.  0.
          5    1    3    3  501    0 -0.45983533484E+02  0.14628576429E+03  0.21088783536E+02  0.15485747310E+03  0.47000000000E+01 0. -1.
        -13    1    4    4    0    0 -0.30715871756E+02  0.10381381839E+03  0.10513453189E+03  0.15091071355E+03  0.00000000000E+00 0.  1.
         14    1    4    4    0    0 -0.40676919522E+02 -0.41077598414E-01  0.48166952932E+02  0.63044974613E+02  0.00000000000E+00 0. -1.
         -5    1    5    5    0  502  0.32484745938E+02 -0.17223822607E+03  0.22446329710E+02  0.17676875560E+03  0.47000000000E+01 0.  1.
         11    1    6    6    0    0 -0.11024312608E+02  0.14255066583E+01 -0.17373468669E+02  0.20625347302E+02  0.00000000000E+00 0. -1.
        -12    1    6    6    0    0  0.95915891433E+02 -0.79245785666E+02 -0.34866757193E+02  0.12921084913E+03  0.00000000000E+00 0.  1.
</event>
<event>
12    1  0.8219652E-002  0.2254722E+03  0.7818608E-02  0.1130228E+00
         21   -1    0    0  501  502  0.00000000000E+00  0.00000000000E+00  0.12039524009E+04  0.12039524009E+04  0.00000000000E+00 0. -1.
         21   -1    0    0  502  503 -0.00000000000E+00 -0.00000000000E+00 -0.47316994558E+02  0.47316994558E+02  0.00000000000E+00 0. -1.
         -6    2    1    2    0  503  0.14412857263E+03 -0.60177417622E+01  0.36348900459E+03  0.42669742245E+03  0.17069614875E+03 0.  0.
        -24    2    3    3    0    0  0.50200426979E+02 -0.61373043847E+02  0.20719196998E+03  0.23607329217E+03  0.80717739510E+02 0.  0.
          6    2    1    2  501    0 -0.14412857263E+03  0.60177417622E+01  0.79314640179E+03  0.82457197305E+03  0.17328723383E+03 0.  0.
         24    2    5    5    0    0 -0.53883964169E+02  0.16222808882E+02  0.63385852780E+03  0.64115182817E+03  0.78309465395E+02 0.  0.
          5    1    5    5  501    0 -0.90244608460E+02 -0.10205067120E+02  0.15928787398E+03  0.18342014488E+03  0.47000000000E+01 0. -1.
        -11    1    6    6    0    0 -0.95218306686E+01  0.11999337812E+02  0.49669018744E+03  0.49692634431E+03  0.00000000000E+00 0.  1.
         12    1    6    6    0    0 -0.44362133500E+02  0.42234710698E+01  0.13716834036E+03  0.14422548386E+03  0.00000000000E+00 0. -1.
         -5    1    3    3    0  503  0.93928145650E+02  0.55355302085E+02  0.15629703461E+03  0.19062413027E+03  0.47000000000E+01 0.  1.
         11    1    4    4    0    0  0.65560461886E+02 -0.39121315542E+02  0.18801613213E+03  0.20292539869E+03  0.00000000000E+00 0. -1.
        -12    1    4    4    0    0 -0.15360034907E+02 -0.22251728305E+02  0.19175837852E+02  0.33147893481E+02  0.00000000000E+00 0.  1.
</event>
<event>
12    1  0.8219652E-002  0.2190485E+03  0.7818608E-02  0.1134874E+00
         21   -1    0    0  501  502  0.00000000000E+00  0.00000000000E+00  0.37835482681E+03  0.37835482681E+03  0.00000000000E+00 0.  1.
         21   -1    0    0  502  503 -0.00000000000E+00 -0.00000000000E+00 -0.18507696738E+03  0.18507696738E+03  0.00000000000E+00 0. -1.
         -6    2    1    2    0  503  0.11949878347E+03  0.59017902310E+02 -0.62802495396E+02  0.22644606733E+03  0.17196103029E+03 0.  0.
        -24    2    3    3    0    0  0.68465458748E+02 -0.23401665025E+02 -0.71070872150E+02  0.12904051633E+03  0.79782385391E+02 0.  0.
          6    2    1    2  501    0 -0.11949878347E+03 -0.59017902310E+02  0.25608035483E+03  0.33698572686E+03  0.17383658975E+03 0.  0.
         24    2    5    5    0    0 -0.14657025161E+02 -0.78000351410E+02  0.13508745326E+03  0.17569871595E+03  0.79514373233E+02 0.  0.
          5    1    5    5  501    0 -0.10484175831E+03  0.18982449100E+02  0.12099290157E+03  0.16128701091E+03  0.47000000000E+01 0. -1.
        -11    1    6    6    0    0 -0.47704812539E+02 -0.48823413075E+02  0.81931778581E+02  0.10664094497E+03  0.00000000000E+00 0.  1.
         12    1    6    6    0    0  0.33047787377E+02 -0.29176938335E+02  0.53155674684E+02  0.69057770976E+02  0.00000000000E+00 0. -1.
         -5    1    3    3    0  503  0.51033324725E+02  0.82419567335E+02  0.82683767539E+01  0.97405551003E+02  0.47000000000E+01 0.  1.
         11    1    4    4    0    0  0.44493160156E+02  0.24459364794E+02 -0.50740209891E+02  0.71780712775E+02  0.00000000000E+00 0. -1.
        -12    1    4    4    0    0  0.23972298592E+02 -0.47861029819E+02 -0.20330662259E+02  0.57259803554E+02  0.00000000000E+00 0.  1.
</event>
<event>
12    1  0.8219652E-002  0.1807153E+03  0.7818608E-02  0.1169364E+00
         21   -1    0    0  501  502  0.00000000000E+00  0.00000000000E+00  0.13968132950E+04  0.13968132950E+04  0.00000000000E+00 0. -1.
         21   -1    0    0  502  503 -0.00000000000E+00 -0.00000000000E+00 -0.22218943479E+02  0.22218943479E+02  0.00000000000E+00 0. -1.
         -6    2    1    2    0  503  0.53932929240E+02 -0.14188623048E+02  0.70986537365E+03  0.73250726019E+03  0.17189519960E+03 0.  0.
        -24    2    3    3    0    0  0.50793954362E+02  0.13380943590E+02  0.20048577969E+03  0.22235081859E+03  0.80537340517E+02 0.  0.
          6    2    1    2  501    0 -0.53932929240E+02  0.14188623048E+02  0.66472897790E+03  0.68652497832E+03  0.16230173724E+03 0.  0.
         24    2    5    5    0    0 -0.97467587590E+02  0.10842286089E+00  0.50153770242E+03  0.51697557281E+03  0.78890642961E+02 0.  0.
          5    1    5    5  501    0  0.43534658350E+02  0.14080200187E+02  0.16319127548E+03  0.16954940551E+03  0.47000000000E+01 0. -1.
        -13    1    6    6    0    0  0.12436873022E+02 -0.86230866756E+01  0.58493628342E+02  0.60419682149E+02  0.00000000000E+00 0.  1.
         14    1    6    6    0    0 -0.10990446061E+03  0.87315095365E+01  0.44304407408E+03  0.45655589066E+03  0.00000000000E+00 0. -1.
         -5    1    3    3    0  503  0.31389748776E+01 -0.27569566638E+02  0.50937959396E+03  0.51015644160E+03  0.47000000000E+01 0.  1.
         13    1    4    4    0    0  0.50128373152E+02 -0.29902851991E+01  0.19973256347E+03  0.20594876186E+03  0.00000000000E+00 0. -1.
        -14    1    4    4    0    0  0.66558120963E+00  0.16371228789E+02  0.75321622342E+00  0.16402056733E+02  0.00000000000E+00 0.  1.
</event>
<event>
12    1  0.8219652E-002  0.1768828E+03  0.7818608E-02  0.1171620E+00
         21   -1    0    0  501  502  0.00000000000E+00  0.00000000000E+00  0.52977065030E+02  0.52977065030E+02  0.00000000000E+00 0. -1.
         21   -1    0    0  502  503 -0.00000000000E+00 -0.00000000000E+00 -0.73926334671E+03  0.73926334671E+03  0.00000000000E+00 0. -1.
         -6    2    1    2    0  503 -0.14790804959E+02 -0.38111731079E+02 -0.52441404235E+03  0.55246937946E+03  0.16894098222E+03 0.  0.
        -24    2    3    3    0    0 -0.64851971622E+02 -0.11579026897E+02 -0.43445390780E+03  0.44605029937E+03  0.76621273040E+02 0.  0.
          6    2    1    2  501    0  0.14790804959E+02  0.38111731079E+02 -0.16187223933E+03  0.23977103227E+03  0.17209373636E+03 0.  0.
         24    2    5    5    0    0 -0.13308010659E+02 -0.11209675610E+02 -0.16161534223E+03  0.18281227006E+03  0.83654332013E+02 0.  0.
          5    1    5    5  501    0  0.28098815619E+02  0.49321406689E+02 -0.25689709650E+00  0.56958762215E+02  0.47000000000E+01 0. -1.
        -11    1    6    6    0    0  0.34139782362E+02 -0.27310510368E+01 -0.44404159995E+02  0.56077738938E+02  0.00000000000E+00 0.  1.
         12    1    6    6    0    0 -0.47447793022E+02 -0.84786245734E+01 -0.11721118224E+03  0.12673453112E+03  0.00000000000E+00 0. -1.
         -5    1    3    3    0  503  0.50061166663E+02 -0.26532704181E+02 -0.89960134554E+02  0.10641908009E+03  0.47000000000E+01 0.  1.
         11    1    4    4    0    0 -0.33356637614E+02 -0.15587542378E+02 -0.38823523083E+03  0.38997721883E+03  0.00000000000E+00 0. -1.
        -12    1    4    4    0    0 -0.31495334009E+02  0.40085154806E+01 -0.46218676969E+02  0.56073080542E+02  0.00000000000E+00 0.  1.
</event>
<event>
12    1  0.8219652E-002  0.1775281E+03  0.7818608E-02  0.1170299E+00
         21   -1    0    0  501  502  0.00000000000E+00  0.00000000000E+00  0.43844799111E+02  0.43844799111E+02  0.00000000000E+00 0. -1.
         21   -1    0    0  502  503 -0.00000000000E+00 -0.00000000000E+00 -0.91260373784E+03  0.91260373784E+03  0.00000000000E+00 0. -1.
         -6    2    1    2    0  503  0.27653302595E+02 -0.32674098916E+02 -0.65519732220E+03  0.67873504145E+03  0.17194599030E+03 0.  0.
        -24    2    3    3    0    0 -0.35675332547E+02 -0.30026991351E+02 -0.53307662437E+03  0.54106486296E+03  0.80038421452E+02 0.  0.
          6    2    1    2  501    0 -0.27653302595E+02  0.32674098916E+02 -0.21356161653E+03  0.27771349551E+03  0.17229021925E+03 0.  0.
         24    2    5    5    0    0 -0.91545134998E+01  0.70280092746E+02 -0.68153907925E+02  0.12631366826E+03  0.79291179016E+02 0.  0.
          5    1    5    5  501    0 -0.18498789095E+02 -0.37605993830E+02 -0.14540770860E+03  0.15139982725E+03  0.47000000000E+01 0. -1.
        -13    1    6    6    0    0 -0.39856376799E+02  0.30074048966E+02 -0.54504027599E+02  0.73916630181E+02  0.00000000000E+00 0.  1.
         14    1    6    6    0    0  0.30701863299E+02  0.40206043780E+02 -0.13649880326E+02  0.52397038078E+02  0.00000000000E+00 0. -1.
         -5    1    3    3    0  503  0.63328635142E+02 -0.26471075651E+01 -0.12212069783E+03  0.13767017849E+03  0.47000000000E+01 0.  1.
         13    1    4    4    0    0  0.14276290150E+02 -0.38120121788E+02 -0.19318006446E+03  0.19742211997E+03  0.00000000000E+00 0. -1.
        -14    1    4    4    0    0 -0.49951622697E+02  0.80931304366E+01 -0.33989655991E+03  0.34364274299E+03  0.00000000000E+00 0.  1.
</event>
<event>
12    1  0.8219652E-002  0.1731109E+03  0.7818608E-02  0.1174850E+00
         21   -1    0    0  503  502  0.00000000000E+00  0.00000000000E+00  0.42336003166E+03  0.42336003166E+03  0.00000000000E+00 0.  1.
         21   -1    0    0  501  503 -0.00000000000E+00 -0.00000000000E+00 -0.75519166252E+02  0.75519166252E+02  0.00000000000E+00 0.  1.
          6    2    1    2  501    0  0.12570334265E+01 -0.15017644166E+02  0.10968558282E+03  0.20493489022E+03  0.17245368185E+03 0.  0.
         24    2    3    3    0    0  0.59824765492E+02  0.25390608174E+02  0.64074853367E+02  0.12028599928E+03  0.78354637640E+02 0.  0.
         -6    2    1    2    0  502 -0.12570334265E+01  0.15017644166E+02  0.23815528259E+03  0.29394430769E+03  0.17163393495E+03 0.  0.
        -24    2    5    5    0    0 -0.77120204118E+01 -0.27176537032E+02  0.48616401802E+02  0.99601586924E+02  0.82212421019E+02 0.  0.
          5    1    3    3  501    0 -0.58567732065E+02 -0.40408252340E+02  0.45610729453E+02  0.84648890942E+02  0.47000000000E+01 0. -1.
        -11    1    4    4    0    0  0.85048163483E+01 -0.26109376734E+02  0.27644342328E+02  0.38964613656E+02  0.00000000000E+00 0.  1.
         12    1    4    4    0    0  0.51319949144E+02  0.51499984909E+02  0.36430511039E+02  0.81321385627E+02  0.00000000000E+00 0. -1.
         -5    1    5    5    0  502  0.64549869853E+01  0.42194181198E+02  0.18953888078E+03  0.19434272076E+03  0.47000000000E+01 0.  1.
         13    1    6    6    0    0 -0.14980682497E+02 -0.25800810967E+02  0.70472419417E+02  0.76527541403E+02  0.00000000000E+00 0. -1.
        -14    1    6    6    0    0  0.72686620851E+01 -0.13757260652E+01 -0.21856017616E+02  0.23074045522E+02  0.00000000000E+00 0.  1.
</event>
<event>
12    1  0.8219652E-002  0.1748006E+03  0.7818608E-02  0.1173296E+00
         21   -1    0    0  501  502  0.00000000000E+00  0.00000000000E+00  0.71195038389E+02  0.71195038389E+02  0.00000000000E+00 0. -1.
         21   -1    0    0  502  503 -0.00000000000E+00 -0.00000000000E+00 -0.10278625148E+04  0.10278625148E+04  0.00000000000E+00 0.  1.
         -6    2    1    2    0  503 -0.23161870558E+02 -0.68949838071E+01 -0.89814142597E+03  0.91471946011E+03  0.17166728463E+03 0.  0.
        -24    2    3    3    0    0  0.10128778479E+02 -0.53993845395E+02 -0.74062668032E+03  0.74691136980E+03  0.79566244368E+02 0.  0.
          6    2    1    2  501    0  0.23161870558E+02  0.68949838071E+01 -0.58526050427E+02  0.18433809306E+03  0.17312198279E+03 0.  0.
         24    2    5    5    0    0 -0.10818701737E+02 -0.58831068722E+02 -0.28045112194E+02  0.10417718694E+03  0.80549481731E+02 0.  0.
          5    1    5    5  501    0  0.33980572296E+02  0.65726052529E+02 -0.30480938233E+02  0.80160906121E+02  0.47000000000E+01 0. -1.
        -11    1    6    6    0    0  0.54212995509E+00  0.19836775087E+02 -0.11678774356E+02  0.23025753434E+02  0.00000000000E+00 0.  1.
         12    1    6    6    0    0 -0.11360831692E+02 -0.78667843809E+02 -0.16366337839E+02  0.81151433509E+02  0.00000000000E+00 0. -1.
         -5    1    3    3    0  503 -0.33290649037E+02  0.47098861587E+02 -0.15751474565E+03  0.16780809031E+03  0.47000000000E+01 0.  1.
         11    1    4    4    0    0  0.16322608857E+02 -0.13852159589E+02 -0.42341193066E+02  0.47445616399E+02  0.00000000000E+00 0. -1.
        -12    1    4    4    0    0 -0.61938303783E+01 -0.40141685806E+02 -0.69828548725E+03  0.69946575340E+03  0.00000000000E+00 0.  1.
</event>
<event>
12    1  0.8219652E-002  0.1736701E+03  0.7818608E-02  0.1174477E+00
         21   -1    0    0  503  502  0.00000000000E+00  0.00000000000E+00  0.51970823154E+03  0.51970823154E+03  0.00000000000E+00 0.  1.
         21   -1    0    0  501  503 -0.00000000000E+00 -0.00000000000E+00 -0.59731598491E+02  0.59731598491E+02  0.00000000000E+00 0.  1.
          6    2    1    2  501    0  0.10379147621E+02 -0.11304622563E+01  0.17307368044E+03  0.24406747934E+03  0.17177144978E+03 0.  0.
         24    2    3    3    0    0  0.67081135959E+02  0.23443153008E+02  0.13036169988E+03  0.16879875189E+03  0.80308066959E+02 0.  0.
         -6    2    1    2    0  502 -0.10379147621E+02  0.11304622563E+01  0.28690295261E+03  0.33537235069E+03  0.17335600579E+03 0.  0.
        -24    2    5    5    0    0  0.23723256853E+02  0.49958935685E+02  0.99185156475E+02  0.13837678020E+03  0.79068007835E+02 0.  0.
          5    1    3    3  501    0 -0.56701988339E+02 -0.24573615264E+02  0.42711980556E+02  0.75268727449E+02  0.47000000000E+01 0. -1.
        -13    1    4    4    0    0 -0.11408141017E+02  0.13842556922E+02  0.20176567392E+01  0.18050844920E+02  0.00000000000E+00 0.  1.
         14    1    4    4    0    0  0.78489276976E+02  0.96005960860E+01  0.12834404315E+03  0.15074790697E+03  0.00000000000E+00 0. -1.
         -5    1    5    5    0  502 -0.34102404473E+02 -0.48828473428E+02  0.18771779614E+03  0.19699557049E+03  0.47000000000E+01 0.  1.
         11    1    6    6    0    0 -0.23876973870E+02 -0.41371355213E+01  0.28942513460E+02  0.37747779496E+02  0.00000000000E+00 0. -1.
        -12    1    6    6    0    0  0.47600230723E+02  0.54096071206E+02  0.70242643015E+02  0.10062900070E+03  0.00000000000E+00 0.  1.
</event>
<event>
12    1  0.8219652E-002  0.1906456E+03  0.7818608E-02  0.1158106E+00
         21   -1    0    0  503  502  0.00000000000E+00  0.00000000000E+00  0.31495690576E+02  0.31495690576E+02  0.00000000000E+00 0.  1.
         21   -1    0    0  501  503 -0.00000000000E+00 -0.00000000000E+00 -0.18247472341E+04  0.18247472341E+04  0.00000000000E+00 0.  1.
          6    2    1    2  501    0  0.59899996452E+02 -0.55658119756E+02 -0.14633639431E+04  0.14757302525E+04  0.17222053457E+03 0.  0.
         24    2    3    3    0    0  0.10450265038E+03 -0.29701011916E+02 -0.11702202646E+04  0.11780416998E+04  0.81017435365E+02 0.  0.
         -6    2    1    2    0  502 -0.59899996452E+02  0.55658119756E+02 -0.32988760043E+03  0.38051267211E+03  0.17110882165E+03 0.  0.
        -24    2    5    5    0    0  0.27857422192E+02  0.60457627058E+01 -0.10936830837E+03  0.13799752068E+03  0.79178921572E+02 0.  0.
          5    1    3    3  501    0 -0.44602653930E+02 -0.25957107840E+02 -0.29314367848E+03  0.29768855271E+03  0.47000000000E+01 0. -1.
        -11    1    4    4    0    0  0.30196447347E+02 -0.45786902658E+02 -0.64788040100E+03  0.65019787749E+03  0.00000000000E+00 0.  1.
         12    1    4    4    0    0  0.74306203035E+02  0.16085890741E+02 -0.52233986360E+03  0.52784382235E+03  0.00000000000E+00 0. -1.
         -5    1    5    5    0  502 -0.87757418644E+02  0.49612357050E+02 -0.22051929207E+03  0.24251515143E+03  0.47000000000E+01 0.  1.
         11    1    6    6    0    0  0.13557182816E+01  0.25659699936E+01 -0.11116982242E+03  0.11120769574E+03  0.00000000000E+00 0. -1.
        -12    1    6    6    0    0  0.26501703910E+02  0.34797927122E+01  0.18015140578E+01  0.26789824941E+02  0.00000000000E+00 0.  1.
</event>
<event>
12    1  0.8219652E-002  0.1977249E+03  0.7818608E-02  0.1153905E+00
         21   -1    0    0  501  502  0.00000000000E+00  0.00000000000E+00  0.14688007681E+03  0.14688007681E+03  0.00000000000E+00 0. -1.
         21   -1    0    0  502  503 -0.00000000000E+00 -0.00000000000E+00 -0.26209938407E+03  0.26209938407E+03  0.00000000000E+00 0. -1.
         -6    2    1    2    0  503 -0.87814507596E+02 -0.35154900135E+02 -0.94856351746E+02  0.21020876862E+03  0.16199612400E+03 0.  0.
        -24    2    3    3    0    0 -0.92188830787E+02 -0.46280375211E+02 -0.12339939132E+03  0.17890851292E+03  0.78359380850E+02 0.  0.
          6    2    1    2  501    0  0.87814507596E+02  0.35154900135E+02 -0.20362955511E+02  0.19877069226E+03  0.17363145854E+03 0.  0.
         24    2    5    5    0    0  0.11158792248E+03  0.67710203987E+02 -0.11656319412E+00  0.15341620553E+03  0.80622468114E+02 0.  0.
          5    1    5    5  501    0 -0.23773414887E+02 -0.32555303851E+02 -0.20246392317E+02  0.45354486725E+02  0.47000000000E+01 0. -1.
        -13    1    6    6    0    0  0.27414335800E+01 -0.67832603522E+01 -0.18827041533E+02  0.20198652726E+02  0.00000000000E+00 0.  1.
         14    1    6    6    0    0  0.10884648890E+03  0.74493464339E+02  0.18710478339E+02  0.13321755281E+03  0.00000000000E+00 0. -1.
         -5    1    3    3    0  503  0.43743231908E+01  0.11125475076E+02  0.28543039571E+02  0.31300255702E+02  0.47000000000E+01 0.  1.
         11    1    4    4    0    0 -0.61500944481E+02  0.55675632783E+01 -0.32303762122E+02  0.69691441226E+02  0.00000000000E+00 0. -1.
        -12    1    4    4    0    0 -0.30687886306E+02 -0.51847938490E+02 -0.91095629194E+02  0.10921707170E+03  0.00000000000E+00 0.  1.
</event>
<event>
12    1  0.8219652E-002  0.1878157E+03  0.7818608E-02  0.1160498E+00
         21   -1    0    0  501  502  0.00000000000E+00  0.00000000000E+00  0.39344515204E+03  0.39344515204E+03  0.00000000000E+00 0. -1.
         21   -1    0    0  502  503 -0.00000000000E+00 -0.00000000000E+00 -0.90216020273E+02  0.90216020273E+02  0.00000000000E+00 0. -1.
         -6    2    1    2    0  503  0.26241459698E+02 -0.70950130900E+02  0.17250998490E+03  0.25501849614E+03  0.17190754260E+03 0.  0.
        -24    2    3    3    0    0  0.44575882355E+02 -0.95231030235E+02  0.17930113208E+03  0.22349195483E+03  0.82120639934E+02 0.  0.
          6    2    1    2  501    0 -0.26241459698E+02  0.70950130900E+02  0.13071914687E+03  0.22864267617E+03  0.17166083632E+03 0.  0.
         24    2    5    5    0    0  0.14552631805E+02 -0.23694586771E+02  0.61152398055E+02  0.10421035310E+03  0.79667869120E+02 0.  0.
          5    1    5    5  501    0 -0.40794091503E+02  0.94644717671E+02  0.69566748812E+02  0.12443232307E+03  0.47000000000E+01 0. -1.
        -13    1    6    6    0    0  0.40393293132E+02 -0.81394786267E+01  0.63987924591E+01  0.41699086169E+02  0.00000000000E+00 0.  1.
         14    1    6    6    0    0 -0.25840661327E+02 -0.15555108144E+02  0.54753605596E+02  0.62511266929E+02  0.00000000000E+00 0. -1.
         -5    1    3    3    0  503 -0.18334422656E+02  0.24280899335E+02 -0.67911471841E+01  0.31526541306E+02  0.47000000000E+01 0.  1.
         11    1    4    4    0    0  0.63163297329E+02 -0.86405688675E+02  0.17005585748E+03  0.20093416790E+03  0.00000000000E+00 0. -1.
        -12    1    4    4    0    0 -0.18587414974E+02 -0.88253415601E+01  0.92452745981E+01  0.22557786937E+02  0.00000000000E+00 0.  1.
</event>
<event>
12    1  0.8219652E-002  0.1739617E+03  0.7818608E-02  0.1173835E+00
         21   -1    0    0  503  502  0.00000000000E+00  0.00000000000E+00  0.83405552893E+03  0.83405552893E+03  0.00000000000E+00 0. -1.
         21   -1    0    0  501  503 -0.00000000000E+00 -0.00000000000E+00 -0.65415637647E+02  0.65415637647E+02  0.00000000000E+00 0. -1.
          6    2    1    2  501    0 -0.14424673999E+02  0.16591837401E+02  0.83817461724E+02  0.19289886299E+03  0.17234048904E+03 0.  0.
         24    2    3    3    0    0 -0.50339754161E+02  0.11558314401E+02  0.11156737140E+03  0.14699268885E+03  0.80572245432E+02 0.  0.
         -6    2    1    2    0  502  0.14424673999E+02 -0.16591837401E+02  0.68482242956E+03  0.70657230359E+03  0.17256679832E+03 0.  0.
        -24    2    5    5    0    0  0.52783597593E+02 -0.48100949063E+02  0.29959416961E+03  0.31813037305E+03  0.79689762940E+02 0.  0.
          5    1    3    3  501    0  0.35915080162E+02  0.50335229992E+01 -0.27749909675E+02  0.45906174136E+02  0.47000000000E+01 0. -1.
        -13    1    4    4    0    0 -0.48563524231E+02  0.23407775576E+02  0.24694123714E+02  0.59297045366E+02  0.00000000000E+00 0.  1.
         14    1    4    4    0    0 -0.17762299304E+01 -0.11849461175E+02  0.86873247685E+02  0.87695643485E+02  0.00000000000E+00 0. -1.
         -5    1    5    5    0  502 -0.38358923593E+02  0.31509111662E+02  0.38522825995E+03  0.38844193054E+03  0.47000000000E+01 0.  1.
         13    1    6    6    0    0  0.19962858990E+02  0.20174672761E+02  0.52450544586E+02  0.59637176220E+02  0.00000000000E+00 0. -1.
        -14    1    6    6    0    0  0.32820738603E+02 -0.68275621824E+02  0.24714362502E+03  0.25849319683E+03  0.00000000000E+00 0.  1.
</event>
<event>
12    1  0.8219652E-002  0.1869665E+03  0.7818608E-02  0.1161296E+00
         21   -1    0    0  503  502  0.00000000000E+00  0.00000000000E+00  0.64226800087E+03  0.64226800087E+03  0.00000000000E+00 0.  1.
         21   -1    0    0  501  503 -0.00000000000E+00 -0.00000000000E+00 -0.54340912518E+02  0.54340912518E+02  0.00000000000E+00 0.  1.
          6    2    1    2  501    0 -0.44035342952E+02  0.59187931658E+02  0.29162018881E+03  0.34624587415E+03  0.17146879646E+03 0.  0.
         24    2    3    3    0    0 -0.45309344077E+02 -0.20576836032E+02  0.94690514739E+02  0.13371957513E+03  0.80238945343E+02 0.  0.
         -6    2    1    2    0  502  0.44035342952E+02 -0.59187931658E+02  0.29630689954E+03  0.35036303924E+03  0.17179685058E+03 0.  0.
        -24    2    5    5    0    0  0.47792641826E+02 -0.28305860705E+02  0.30304567305E+03  0.31818663998E+03  0.79502827258E+02 0.  0.
          5    1    3    3  501    0  0.12740011254E+01  0.79764767690E+02  0.19692967407E+03  0.21252629902E+03  0.47000000000E+01 0. -1.
        -11    1    4    4    0    0  0.10182088129E+02 -0.76634349075E+01 -0.88662239247E+01  0.15524595967E+02  0.00000000000E+00 0.  1.
         12    1    4    4    0    0 -0.55491432206E+02 -0.12913401124E+02  0.10355673866E+03  0.11819497916E+03  0.00000000000E+00 0. -1.
         -5    1    5    5    0  502 -0.37572988747E+01 -0.30882070953E+02 -0.67387735101E+01  0.32176399264E+02  0.47000000000E+01 0.  1.
         11    1    6    6    0    0  0.42637950855E+02 -0.44967343716E+02  0.12734054134E+03  0.14161804377E+03  0.00000000000E+00 0. -1.
        -12    1    6    6    0    0  0.51546909716E+01  0.16661483011E+02  0.17570513171E+03  0.17656859620E+03  0.00000000000E+00 0.  1.
</event>
<event>
12    1  0.8219652E-002  0.2250330E+03  0.7818608E-02  0.1130339E+00
         21   -1    0    0  501  502  0.00000000000E+00  0.00000000000E+00  0.46984928810E+03  0.46984928810E+03  0.00000000000E+00 0.  1.
         21   -1    0    0  502  503 -0.00000000000E+00 -0.00000000000E+00 -0.39484494925E+03  0.39484494925E+03  0.00000000000E+00 0. -1.
         -6    2    1    2    0  503 -0.17588494585E+01 -0.14474558581E+03 -0.33138449939E+03  0.40056902213E+03  0.17229473843E+03 0.  0.
        -24    2    3    3    0    0  0.34249196417E+02 -0.90118929880E+02 -0.30574556521E+03  0.33014107419E+03  0.78856510445E+02 0.  0.
          6    2    1    2  501    0  0.17588494585E+01  0.14474558581E+03  0.40638883824E+03  0.46412521522E+03  0.17118980518E+03 0.  0.
         24    2    5    5    0    0  0.12844591281E+02  0.80920802939E+02  0.37476721625E+03  0.39188593534E+03  0.80068471139E+02 0.  0.
          5    1    5    5  501    0 -0.11085741823E+02  0.63824782871E+02  0.31621621990E+02  0.72239279880E+02  0.47000000000E+01 0. -1.
        -11    1    6    6    0    0  0.59906322356E+01  0.91674977962E+02  0.36329939537E+03  0.37473542658E+03  0.00000000000E+00 0.  1.
         12    1    6    6    0    0  0.68539590458E+01 -0.10754175023E+02  0.11467820877E+02  0.17150508759E+02  0.00000000000E+00 0. -1.
         -5    1    3    3    0  503 -0.36008045875E+02 -0.54626655930E+02 -0.25638934180E+02  0.70427947945E+02  0.47000000000E+01 0.  1.
         11    1    4    4    0    0  0.62168606286E+01 -0.71737890602E+02 -0.10950743656E+03  0.13106049354E+03  0.00000000000E+00 0. -1.
        -12    1    4    4    0    0  0.28032335788E+02 -0.18381039279E+02 -0.19623812865E+03  0.19908058065E+03  0.00000000000E+00 0.  1.
</event>
<event>
12    1  0.8219652E-002  0.2276837E+03  0.7818608E-02  0.1128475E+00
         21   -1    0    0  501  502  0.00000000000E+00  0.00000000000E+00  0.36143116866E+03  0.36143116866E+03  0.00000000000E+00 0.  1.
         21   -1    0    0  502  503 -0.00000000000E+00 -0.00000000000E+00 -0.19901531974E+03  0.19901531974E+03  0.00000000000E+00 0.  1.
         -6    2    1    2    0  503  0.99467810520E+02 -0.11054215341E+03 -0.67934217991E+02  0.23656223285E+03  0.17097724710E+03 0.  0.
        -24    2    3    3    0    0  0.10770091711E+03 -0.13562916355E+03 -0.34422304161E+02  0.19364043780E+03  0.79479346875E+02 0.  0.
          6    2    1    2  501    0 -0.99467810520E+02  0.11054215341E+03  0.23035006691E+03  0.32388425555E+03  0.17241358605E+03 0.  0.
         24    2    5    5    0    0 -0.12505056407E+03  0.45889327400E+02  0.17689295256E+03  0.23605363296E+03  0.81772409912E+02 0.  0.
          5    1    5    5  501    0  0.25582753547E+02  0.64652826014E+02  0.53457114352E+02  0.87830622595E+02  0.47000000000E+01 0. -1.
        -13    1    6    6    0    0 -0.12349918831E+03  0.58230195895E+02  0.17708883933E+03  0.22361409222E+03  0.00000000000E+00 0.  1.
         14    1    6    6    0    0 -0.15513757609E+01 -0.12340868496E+02 -0.19588676766E+00  0.12439540731E+02  0.00000000000E+00 0. -1.
         -5    1    3    3    0  503 -0.82331065868E+01  0.25087010132E+02 -0.33511913830E+02  0.42921795046E+02  0.47000000000E+01 0.  1.
         11    1    4    4    0    0  0.11441208611E+03 -0.12746049354E+03 -0.15516936556E+02  0.17197987726E+03  0.00000000000E+00 0. -1.
        -12    1    4    4    0    0 -0.67111689996E+01 -0.81686700037E+01 -0.18905367605E+02  0.21660560548E+02  0.00000000000E+00 0.  1.
</event>
<event>
12    1  0.8219652E-002  0.1845127E+03  0.7818608E-02  0.1163973E+00
         21   -1    0    0  503  502  0.00000000000E+00  0.00000000000E+00  0.13315634946E+03  0.13315634946E+03  0.00000000000E+00 0.  1.
         21   -1    0    0  501  503 -0.00000000000E+00 -0.00000000000E+00 -0.32592898645E+03  0.32592898645E+03  0.00000000000E+00 0.  1.
          6    2    1    2  501    0  0.46165234735E+02  0.50855510706E+02 -0.20460939166E+03  0.27419332706E+03  0.16911376520E+03 0.  0.
         24    2    3    3    0    0  0.77885071841E+02  0.70167149518E+02 -0.19661583620E+03  0.23591703690E+03  0.77521274293E+02 0.  0.
         -6    2    1    2    0  502 -0.46165234735E+02 -0.50855510706E+02  0.11836754674E+02  0.18489200884E+03  0.17125254540E+03 0.  0.
        -24    2    5    5    0    0 -0.33194075305E+02  0.28673814980E+02 -0.36460501370E+01  0.10270337297E+03  0.92793614209E+02 0.  0.
          5    1    3    3  501    0 -0.31719837106E+02 -0.19311638812E+02 -0.79935554639E+01  0.38276290162E+02  0.47000000000E+01 0. -1.
        -11    1    4    4    0    0  0.31962513894E+02  0.75470826749E+02 -0.10408010318E+03  0.13247685029E+03  0.00000000000E+00 0.  1.
         12    1    4    4    0    0  0.45922557948E+02 -0.53036772308E+01 -0.92535733020E+02  0.10344018661E+03  0.00000000000E+00 0. -1.
         -5    1    5    5    0  502 -0.12971159430E+02 -0.79529325686E+02  0.15482804811E+02  0.82188635868E+02  0.47000000000E+01 0.  1.
         13    1    6    6    0    0  0.20796457951E+02  0.39289574763E+02 -0.14218532351E+02  0.46672583071E+02  0.00000000000E+00 0. -1.
        -14    1    6    6    0    0 -0.53990533256E+02 -0.10615759783E+02  0.10572482214E+02  0.56030789903E+02  0.00000000000E+00 0.  1.
</event>
<event>
12    1  0.8219652E-002  0.3316747E+03  0.7818608E-02  0.1071513E+00
         21   -1    0    0  503  502  0.00000000000E+00  0.00000000000E+00  0.52679082344E+02  0.52679082344E+02  0.00000000000E+00 0.  1.
         21   -1    0    0  501  503 -0.00000000000E+00 -0.00000000000E+00 -0.24745226564E+04  0.24745226564E+04  0.00000000000E+00 0.  1.
          6    2    1    2  501    0 -0.21374472008E+03  0.16753330308E+03 -0.17640168202E+04  0.17949271499E+04  0.19040461839E+03 0.  0.
         24    2    3    3    0    0 -0.14727006623E+03  0.24923882852E+02 -0.10642896741E+04  0.10777127502E+04  0.80265740104E+02 0.  0.
         -6    2    1    2    0  502  0.21374472008E+03 -0.16753330308E+03 -0.65782675388E+03  0.73227458881E+03  0.17244077909E+03 0.  0.
        -24    2    5    5    0    0  0.50528231153E+02 -0.17781190285E+02 -0.15532241237E+03  0.18309518208E+03  0.80805451816E+02 0.  0.
          5    1    3    3  501    0 -0.66474653851E+02  0.14260942023E+03 -0.69972714601E+03  0.71721439975E+03  0.47000000000E+01 0. -1.
        -13    1    4    4    0    0 -0.96930054138E+02  0.47745579187E+02 -0.82935006526E+03  0.83635913726E+03  0.00000000000E+00 0.  1.
         14    1    4    4    0    0 -0.50340012089E+02 -0.22821696335E+02 -0.23493960889E+03  0.24135361291E+03  0.00000000000E+00 0. -1.
         -5    1    5    5    0  502  0.16321648893E+03 -0.14975211280E+03 -0.50250434151E+03  0.54917940673E+03  0.47000000000E+01 0.  1.
         11    1    6    6    0    0  0.24758899186E+02 -0.11327085495E+02 -0.15411597674E+03  0.15650252471E+03  0.00000000000E+00 0. -1.
        -12    1    6    6    0    0  0.25769331967E+02 -0.64541047903E+01 -0.12064356294E+01  0.26592657362E+02  0.00000000000E+00 0.  1.
</event>
<event>
12    1  0.8219652E-002  0.1830783E+03  0.7818608E-02  0.1166173E+00
         21   -1    0    0  501  502  0.00000000000E+00  0.00000000000E+00  0.75664302837E+03  0.75664302837E+03  0.00000000000E+00 0. -1.
         21   -1    0    0  502  503 -0.00000000000E+00 -0.00000000000E+00 -0.27992474179E+03  0.27992474179E+03  0.00000000000E+00 0. -1.
         -6    2    1    2    0  503 -0.58199485276E+02  0.23176506517E+02 -0.23791130133E+03  0.30019904755E+03  0.17202717899E+03 0.  0.
        -24    2    3    3    0    0 -0.72852314060E+02 -0.32373239158E+02 -0.98621854454E+02  0.14945383321E+03  0.79086609539E+02 0.  0.
          6    2    1    2  501    0  0.58199485276E+02 -0.23176506517E+02  0.71462958792E+03  0.73636872261E+03  0.16619000323E+03 0.  0.
         24    2    5    5    0    0  0.38049816671E+02 -0.55692468175E+02  0.66708200106E+03  0.67516284117E+03  0.79353805166E+02 0.  0.
          5    1    5    5  501    0  0.20149668605E+02  0.32515961658E+02  0.47547586856E+02  0.61205881444E+02  0.47000000000E+01 0. -1.
        -11    1    6    6    0    0  0.61551420090E+02 -0.51465979365E+02  0.52130120640E+03  0.52743935399E+03  0.00000000000E+00 0.  1.
         12    1    6    6    0    0 -0.23501603419E+02 -0.42264888101E+01  0.14578079466E+03  0.14772348717E+03  0.00000000000E+00 0. -1.
         -5    1    3    3    0  503  0.14652828785E+02  0.55549745674E+02 -0.13928944687E+03  0.15074521434E+03  0.47000000000E+01 0.  1.
         11    1    4    4    0    0 -0.26333175833E+02 -0.22115452254E+01 -0.89433664703E+02  0.93256139015E+02  0.00000000000E+00 0. -1.
        -12    1    4    4    0    0 -0.46519138227E+02 -0.30161693932E+02 -0.91881897517E+01  0.56197694198E+02  0.00000000000E+00 0.  1.
</event>
<event>
12    1  0.8219652E-002  0.1861609E+03  0.7818608E-02  0.1161983E+00
         21   -1    0    0  501  502  0.00000000000E+00  0.00000000000E+00  0.63149993862E+03  0.63149993862E+03  0.00000000000E+00 0. -1.
         21   -1    0    0  502  503 -0.00000000000E+00 -0.00000000000E+00 -0.73252370928E+02  0.73252370928E+02  0.00000000000E+00 0. -1.
         -6    2    1    2    0  503  0.71294812112E+02  0.16701030718E+01  0.10253835432E+03  0.21248535372E+03  0.17190163455E+03 0.  0.
        -24    2    3    3    0    0  0.62663252632E+02  0.52387374816E+02  0.22240269993E+02  0.11700437227E+03  0.80772973509E+02 0.  0.
          6    2    1    2  501    0 -0.71294812112E+02 -0.16701030718E+01  0.45570921336E+03  0.49226695582E+03  0.17195967310E+03 0.  0.
         24    2    5    5    0    0 -0.21541294394E+02  0.62649814888E+02  0.26826702921E+03  0.28789198971E+03  0.80781013308E+02 0.  0.
          5    1    5    5  501    0 -0.49753517718E+02 -0.64319917960E+02  0.18744218416E+03  0.20437496611E+03  0.47000000000E+01 0. -1.
        -13    1    6    6    0    0  0.18780281309E+02  0.60569750110E+02  0.17955214078E+03  0.19042154514E+03  0.00000000000E+00 0.  1.
         14    1    6    6    0    0 -0.40321575703E+02  0.20800647780E+01  0.88714888422E+02  0.97470444568E+02  0.00000000000E+00 0. -1.
         -5    1    3    3    0  503  0.86315594802E+01 -0.50717271744E+02  0.80298084331E+02  0.95480981454E+02  0.47000000000E+01 0.  1.
         13    1    4    4    0    0  0.76751141574E+02  0.20424629801E+02  0.20529894500E+02  0.82032797121E+02  0.00000000000E+00 0. -1.
        -14    1    4    4    0    0 -0.14087888942E+02  0.31962745015E+02  0.17103754924E+01  0.34971575145E+02  0.00000000000E+00 0.  1.
</event>
<event>
12    1  0.8219652E-002  0.1795112E+03  0.7818608E-02  0.1168604E+00
         21   -1    0    0  503  502  0.00000000000E+00  0.00000000000E+00  0.23984488270E+03  0.23984488270E+03  0.00000000000E+00 0.  1.
         21   -1    0    0  501  503 -0.00000000000E+00 -0.00000000000E+00 -0.14198314714E+03  0.14198314714E+03  0.00000000000E+00 0.  1.
          6    2    1    2  501    0 -0.18582410944E+02  0.42707913711E+02  0.16885120542E+01  0.17817740495E+03  0.17197402324E+03 0.  0.
         24    2    3    3    0    0  0.40194688739E+02  0.47953883756E+02 -0.36385087117E+02  0.10779305581E+03  0.79876657085E+02 0.  0.
         -6    2    1    2    0  502  0.18582410944E+02 -0.42707913711E+02  0.96173223504E+02  0.20365062489E+03  0.17336382612E+03 0.  0.
        -24    2    5    5    0    0 -0.75113169114E+01  0.37418614808E+02  0.21023779267E+02  0.90643226127E+02  0.79483473327E+02 0.  0.
          5    1    3    3  501    0 -0.58777099683E+02 -0.52459700450E+01  0.38073599172E+02  0.70384349132E+02  0.47000000000E+01 0. -1.
        -11    1    4    4    0    0 -0.19554426907E+02  0.22491755941E+02  0.57789140633E+01  0.30358698007E+02  0.00000000000E+00 0.  1.
         12    1    4    4    0    0  0.59749115646E+02  0.25462127815E+02 -0.42164001181E+02  0.77434357807E+02  0.00000000000E+00 0. -1.
         -5    1    5    5    0  502  0.26093727855E+02 -0.80126528519E+02  0.75149444237E+02  0.11300739876E+03  0.47000000000E+01 0.  1.
         11    1    6    6    0    0  0.11318217450E+02  0.26145531198E+01 -0.26421267263E+02  0.28862108344E+02  0.00000000000E+00 0. -1.
        -12    1    6    6    0    0 -0.18829534361E+02  0.34804061688E+02  0.47445046531E+02  0.61781117783E+02  0.00000000000E+00 0.  1.
</event>
<event>
12    1  0.8219652E-002  0.3133045E+03  0.7818608E-02  0.1078820E+00
         21   -1    0    0  503  502  0.00000000000E+00  0.00000000000E+00  0.77142971734E+03  0.77142971734E+03  0.00000000000E+00 0.  1.
         21   -1    0    0  501  503 -0.00000000000E+00 -0.00000000000E+00 -0.46469314149E+03  0.46469314149E+03  0.00000000000E+00 0. -1.
          6    2    1    2  501    0 -0.51541672479E+02 -0.25663482735E+03 -0.37347207397E+03  0.48722797581E+03  0.17144016965E+03 0.  0.
         24    2    3    3    0    0 -0.72130836538E+02 -0.21335685430E+03 -0.36770730415E+03  0.43872829335E+03  0.80931137425E+02 0.  0.
         -6    2    1    2    0  502  0.51541672479E+02  0.25663482735E+03  0.68020864982E+03  0.74889488302E+03  0.17216782482E+03 0.  0.
        -24    2    5    5    0    0  0.34884359253E+02  0.43489147276E+02  0.23626744391E+03  0.25613283971E+03  0.81691505515E+02 0.  0.
          5    1    3    3  501    0  0.20589164059E+02 -0.43277973049E+02 -0.57647698221E+01  0.48499682463E+02  0.47000000000E+01 0. -1.
        -11    1    4    4    0    0 -0.87122890013E+02 -0.14366773834E+03 -0.25586004019E+03  0.30609667945E+03  0.00000000000E+00 0.  1.
         12    1    4    4    0    0  0.14992053475E+02 -0.69689115965E+02 -0.11184726396E+03  0.13263161390E+03  0.00000000000E+00 0. -1.
         -5    1    5    5    0  502  0.16657313226E+02  0.21314568007E+03  0.44394120591E+03  0.49276204330E+03  0.47000000000E+01 0.  1.
         11    1    6    6    0    0 -0.14312758723E+02  0.38608048129E+02  0.16023134512E+03  0.16543736096E+03  0.00000000000E+00 0. -1.
        -12    1    6    6    0    0  0.49197117976E+02  0.48810991471E+01  0.76036098799E+02  0.90695478755E+02  0.00000000000E+00 0.  1.
</event>
<event>
12    1  0.8219652E-002  0.1895548E+03  0.7818608E-02  0.1159093E+00
         21   -1    0    0  503  502  0.00000000000E+00  0.00000000000E+00  0.25603897918E+03  0.25603897918E+03  0.00000000000E+00 0. -1.
         21   -1    0    0  501  503 -0.00000000000E+00 -0.00000000000E+00 -0.30152385593E+03  0.30152385593E+03  0.00000000000E+00 0. -1.
          6    2    1    2  501    0 -0.52542281230E+02  0.58000501295E+02 -0.22701802170E+03  0.29510274485E+03  0.17153337394E+03 0.  0.
         24    2    3    3    0    0 -0.99041258641E+01 -0.17658270978E+02 -0.17825556431E+03  0.19539251786E+03  0.77416300527E+02 0.  0.
         -6    2    1    2    0  502  0.52542281230E+02 -0.58000501295E+02  0.18153314495E+03  0.26246009025E+03  0.17264491534E+03 0.  0.
        -24    2    5    5    0    0  0.16807860462E+02  0.34765122936E+02  0.61170799154E+02  0.10628200552E+03  0.77864498209E+02 0.  0.
          5    1    3    3  501    0 -0.42638155366E+02  0.75658772274E+02 -0.48762457392E+02  0.99710226988E+02  0.47000000000E+01 0. -1.
        -13    1    4    4    0    0 -0.11880272670E+02 -0.87115382881E+01  0.20327110849E+01  0.14871573300E+02  0.00000000000E+00 0.  1.
         14    1    4    4    0    0  0.19761468061E+01 -0.89467326900E+01 -0.18028827539E+03  0.18052094456E+03  0.00000000000E+00 0. -1.
         -5    1    5    5    0  502  0.35734420768E+02 -0.92765624232E+02  0.12036234580E+03  0.15617808474E+03  0.47000000000E+01 0.  1.
         11    1    6    6    0    0  0.30696197886E+02 -0.11530903759E+02  0.67175501395E+01  0.33471536953E+02  0.00000000000E+00 0. -1.
        -12    1    6    6    0    0 -0.13888337423E+02  0.46296026696E+02  0.54453249014E+02  0.72810468563E+02  0.00000000000E+00 0.  1.
</event>
<event>
12    1  0.8219652E-002  0.1756711E+03  0.7818608E-02  0.1172128E+00
         21   -1    0    0  501  502  0.00000000000E+00  0.00000000000E+00  0.19681344502E+03  0.19681344502E+03  0.00000000000E+00 0.  1.
         21   -1    0    0  502  503 -0.00000000000E+00 -0.00000000000E+00 -0.33056218923E+03  0.33056218923E+03  0.00000000000E+00 0.  1.
         -6    2    1    2    0  503 -0.13899388827E+02 -0.34897162056E+02 -0.25816294616E+03  0.31211016245E+03  0.17132904542E+03 0.  0.
        -24    2    3    3    0    0 -0.35884077165E+02 -0.52302526396E+02 -0.79931526671E+02  0.13162525416E+03  0.83144075642E+02 0.  0.
          6    2    1    2  501    0  0.13899388827E+02  0.34897162056E+02  0.12441420196E+03  0.21526547180E+03  0.17160805567E+03 0.  0.
         24    2    5    5    0    0  0.72478680745E+02  0.41392664458E+02  0.96369384939E+02  0.14982598254E+03  0.78703588593E+02 0.  0.
          5    1    5    5  501    0 -0.58579291919E+02 -0.64955024013E+01  0.28044817016E+02  0.65439489260E+02  0.47000000000E+01 0. -1.
        -11    1    6    6    0    0  0.53267301161E+01  0.32678399668E+02  0.13374609698E+01  0.33136696583E+02  0.00000000000E+00 0.  1.
         12    1    6    6    0    0  0.67151950629E+02  0.87142647896E+01  0.95031923969E+02  0.11668928596E+03  0.00000000000E+00 0. -1.
         -5    1    3    3    0  503  0.21984688338E+02  0.17405364339E+02 -0.17823141949E+03  0.18048490829E+03  0.47000000000E+01 0.  1.
         13    1    4    4    0    0 -0.23978442222E+02  0.13054953079E+02  0.49889469960E+00  0.27306526458E+02  0.00000000000E+00 0. -1.
        -14    1    4    4    0    0 -0.11905634943E+02 -0.65357479475E+02 -0.80430421371E+02  0.10431872770E+03  0.00000000000E+00 0.  1.
</event>
<event>
12    1  0.8219652E-002  0.6619144E+03  0.7818608E-02  0.9784814E-01
         21   -1    0    0  503  502  0.00000000000E+00  0.00000000000E+00  0.29337607031E+03  0.29337607031E+03  0.00000000000E+00 0.  1.
         21   -1    0    0  501  503 -0.00000000000E+00 -0.00000000000E+00 -0.18704188946E+04  0.18704188946E+04  0.00000000000E+00 0. -1.
          6    2    1    2  501    0 -0.60637218080E+03 -0.20121523806E+03 -0.12745431255E+04  0.14360334807E+04  0.17192203296E+03 0.  0.
         24    2    3    3    0    0 -0.30803071225E+03 -0.50896784715E+02 -0.53770649300E+03  0.62698862275E+03  0.80703519495E+02 0.  0.
         -6    2    1    2    0  502  0.60637218080E+03  0.20121523806E+03 -0.30249969885E+03  0.72776148421E+03  0.17307777567E+03 0.  0.
        -24    2    5    5    0    0  0.52228962843E+03  0.14761372491E+03 -0.30551666184E+03  0.62789061814E+03  0.79560856831E+02 0.  0.
          5    1    3    3  501    0 -0.29834146854E+03 -0.15031845334E+03 -0.73683663248E+03  0.80904485799E+03  0.47000000000E+01 0. -1.
        -11    1    4    4    0    0 -0.59460707188E+02 -0.38344470514E+02 -0.87093087648E+02  0.11220998188E+03  0.00000000000E+00 0.  1.
         12    1    4    4    0    0 -0.24857000507E+03 -0.12552314201E+02 -0.45061340535E+03  0.51477864087E+03  0.00000000000E+00 0. -1.
         -5    1    5    5    0  502  0.84082552370E+02  0.53601513143E+02  0.30169629973E+01  0.99870866072E+02  0.47000000000E+01 0.  1.
         11    1    6    6    0    0  0.28277642711E+03  0.10759692445E+03 -0.20274812349E+03  0.36420654505E+03  0.00000000000E+00 0. -1.
        -12    1    6    6    0    0  0.23951320132E+03  0.40016800460E+02 -0.10276853835E+03  0.26368407309E+03  0.00000000000E+00 0.  1.
</event>
<event>
12    1  0.8219652E-002  0.2669892E+03  0.7818608E-02  0.1103141E+00
         21   -1    0    0  503  502  0.00000000000E+00  0.00000000000E+00  0.77171421947E+03  0.77171421947E+03  0.00000000000E+00 0. -1.
         21   -1    0    0  501  503 -0.00000000000E+00 -0.00000000000E+00 -0.92983748821E+02  0.92983748821E+02  0.00000000000E+00 0. -1.
          6    2    1    2  501    0 -0.55926628010E+02 -0.19513802515E+03  0.38167824495E+03  0.46529435625E+03  0.17208695101E+03 0.  0.
         24    2    3    3    0    0 -0.88054179555E+02 -0.20020669133E+03  0.32597417506E+03  0.40061897958E+03  0.80000913733E+02 0.  0.
         -6    2    1    2    0  502  0.55926628010E+02  0.19513802515E+03  0.29705222569E+03  0.39940361204E+03  0.17342601864E+03 0.  0.
        -24    2    5    5    0    0  0.47118451135E+02  0.89269050573E+02  0.24324994784E+03  0.28022895508E+03  0.95752902402E+02 0.  0.
          5    1    3    3  501    0  0.32127551546E+02  0.50686661852E+01  0.55704069892E+02  0.64675376672E+02  0.47000000000E+01 0. -1.
        -11    1    4    4    0    0  0.31976165714E+01 -0.60077548687E+02  0.12827392340E+03  0.14168181264E+03  0.00000000000E+00 0.  1.
         12    1    4    4    0    0 -0.91251796127E+02 -0.14012914265E+03  0.19770025166E+03  0.25893716694E+03  0.00000000000E+00 0. -1.
         -5    1    5    5    0  502  0.88081768744E+01  0.10586897457E+03  0.53802277854E+02  0.11917465695E+03  0.47000000000E+01 0.  1.
         13    1    6    6    0    0  0.93113098061E+01  0.54614578167E+02  0.34489236225E+02  0.65260708348E+02  0.00000000000E+00 0. -1.
        -14    1    6    6    0    0  0.37807141329E+02  0.34654472407E+02  0.20876071161E+03  0.21496824674E+03  0.00000000000E+00 0.  1.
</event>
<event>
12    1  0.8219652E-002  0.1859161E+03  0.7818608E-02  0.1162253E+00
         21   -1    0    0  503  502  0.00000000000E+00  0.00000000000E+00  0.10585216174E+03  0.10585216174E+03  0.00000000000E+00 0. -1.
         21   -1    0    0  501  503 -0.00000000000E+00 -0.00000000000E+00 -0.47281748599E+03  0.47281748599E+03  0.00000000000E+00 0.  1.
          6    2    1    2  501    0 -0.70547933724E+02  0.14969755061E+02 -0.34456641077E+03  0.39140910505E+03  0.17109638094E+03 0.  0.
         24    2    3    3    0    0 -0.10345454444E+03 -0.18486574438E+02 -0.19999199002E+03  0.23933667446E+03  0.78997794080E+02 0.  0.
         -6    2    1    2    0  502  0.70547933724E+02 -0.14969755061E+02 -0.22398913483E+02  0.18726054267E+03  0.17135838175E+03 0.  0.
        -24    2    5    5    0    0 -0.80797373986E+01 -0.30111332162E+02 -0.54679092520E+02  0.10079853956E+03  0.78730984610E+02 0.  0.
          5    1    3    3  501    0  0.32906610715E+02  0.33456329499E+02 -0.14457442074E+03  0.15207243059E+03  0.47000000000E+01 0. -1.
        -11    1    4    4    0    0 -0.27065315342E+02  0.12253765375E+02 -0.12323956462E+03  0.12677017137E+03  0.00000000000E+00 0.  1.
         12    1    4    4    0    0 -0.76389229098E+02 -0.30740339813E+02 -0.76752425403E+02  0.11256650310E+03  0.00000000000E+00 0. -1.
         -5    1    5    5    0  502  0.78627671123E+02  0.15141577101E+02  0.32280179036E+02  0.86462003111E+02  0.47000000000E+01 0.  1.
         11    1    6    6    0    0  0.21070429830E+02 -0.37273629571E+02 -0.54810699788E+01  0.43166290120E+02  0.00000000000E+00 0. -1.
        -12    1    6    6    0    0 -0.29150167228E+02  0.71622974089E+01 -0.49198022541E+02  0.57632249440E+02  0.00000000000E+00 0.  1.
</event>
<event>
12    1  0.8219652E-002  0.1873231E+03  0.7818608E-02  0.1162198E+00
         21   -1    0    0  503  502  0.00000000000E+00  0.00000000000E+00  0.67440468756E+03  0.67440468756E+03  0.00000000000E+00 0. -1.
         21   -1    0    0  501  503 -0.00000000000E+00 -0.00000000000E+00 -0.63784193959E+02  0.63784193959E+02  0.00000000000E+00 0. -1.
          6    2    1    2  501    0 -0.11899081778E+02 -0.73872888808E+02  0.14050585731E+03  0.23416202729E+03  0.17172992528E+03 0.  0.
         24    2    3    3    0    0  0.52239245151E+02 -0.41155528986E+02  0.11654185985E+03  0.15813233711E+03  0.83672663647E+02 0.  0.
         -6    2    1    2    0  502  0.11899081778E+02  0.73872888808E+02  0.47011463629E+03  0.50402685423E+03  0.16563968933E+03 0.  0.
        -24    2    5    5    0    0 -0.40112058672E+02  0.90854078095E+02  0.31619804569E+03  0.34060737442E+03  0.78541318116E+02 0.  0.
          5    1    3    3  501    0 -0.64138326928E+02 -0.32717359822E+02  0.23963997461E+02  0.76029690182E+02  0.47000000000E+01 0. -1.
        -13    1    4    4    0    0  0.66689965047E+02 -0.24035286107E+02  0.11572815225E+03  0.13571385942E+03  0.00000000000E+00 0.  1.
         14    1    4    4    0    0 -0.14450719896E+02 -0.17120242879E+02  0.81370760286E+00  0.22418477687E+02  0.00000000000E+00 0. -1.
         -5    1    5    5    0  502  0.52011140450E+02 -0.16981189287E+02  0.15391659059E+03  0.16341947981E+03  0.47000000000E+01 0.  1.
         13    1    6    6    0    0 -0.13435863315E+02  0.97135609047E+02  0.26453817639E+03  0.28212815481E+03  0.00000000000E+00 0. -1.
        -14    1    6    6    0    0 -0.26676195357E+02 -0.62815309524E+01  0.51659869299E+02  0.58479219607E+02  0.00000000000E+00 0.  1.
</event>
<event>
12    1  0.8219652E-002  0.1795116E+03  0.7818608E-02  0.1168373E+00
         21   -1    0    0  501  502  0.00000000000E+00  0.00000000000E+00  0.31715301064E+03  0.31715301064E+03  0.00000000000E+00 0.  1.
         21   -1    0    0  502  503 -0.00000000000E+00 -0.00000000000E+00 -0.16343365877E+03  0.16343365877E+03  0.00000000000E+00 0.  1.
         -6    2    1    2    0  503 -0.34926588737E+02 -0.36059143790E+02 -0.71153190036E+02  0.19309892644E+03  0.17234932692E+03 0.  0.
        -24    2    3    3    0    0 -0.55169642451E+02 -0.57171836213E+02  0.37250287649E+01  0.11257337363E+03  0.79665427300E+02 0.  0.
          6    2    1    2  501    0  0.34926588737E+02  0.36059143790E+02  0.22487254191E+03  0.28748774297E+03  0.17193432991E+03 0.  0.
         24    2    5    5    0    0  0.75306597261E+02  0.56090397198E+02  0.20198669285E+03  0.23671719748E+03  0.80119855518E+02 0.  0.
          5    1    5    5  501    0 -0.40380008524E+02 -0.20031253407E+02  0.22885849062E+02  0.50770545484E+02  0.47000000000E+01 0. -1.
        -11    1    6    6    0    0  0.10727895524E+02  0.92424277362E+01  0.12516021560E+03  0.12595868283E+03  0.00000000000E+00 0.  1.
         12    1    6    6    0    0  0.64578701737E+02  0.46847969461E+02  0.76826477249E+02  0.11075851465E+03  0.00000000000E+00 0. -1.
         -5    1    3    3    0  503  0.20243053714E+02  0.21112692423E+02 -0.74878218800E+02  0.80525552812E+02  0.47000000000E+01 0.  1.
         13    1    4    4    0    0  0.17540031655E+02 -0.20225173003E+02 -0.12289862871E+02  0.29457614684E+02  0.00000000000E+00 0. -1.
        -14    1    4    4    0    0 -0.72709674106E+02 -0.36946663211E+02  0.16014891636E+02  0.83115758946E+02  0.00000000000E+00 0.  1.
</event>
<event>
12    1  0.8219652E-002  0.1830012E+03  0.7818608E-02  0.1165719E+00
         21   -1    0    0  503  502  0.00000000000E+00  0.00000000000E+00  0.61762047617E+02  0.61762047617E+02  0.00000000000E+00 0.  1.
         21   -1    0    0  501  503 -0.00000000000E+00 -0.00000000000E+00 -0.61923507701E+03  0.61923507701E+03  0.00000000000E+00 0.  1.
          6    2    1    2  501    0 -0.19104693809E+00  0.56418114850E+02 -0.40398487959E+03  0.44214981543E+03  0.17061546285E+03 0.  0.
         24    2    3    3    0    0  0.68755523219E+02  0.35521201758E+02 -0.18455908953E+03  0.21115181142E+03  0.67334628464E+02 0.  0.
         -6    2    1    2    0  502  0.19104693809E+00 -0.56418114850E+02 -0.15348814981E+03  0.23884730920E+03  0.17408729075E+03 0.  0.
        -24    2    5    5    0    0 -0.64347734162E+02 -0.31215068287E+01 -0.94719080084E+02  0.13646725134E+03  0.74170289595E+02 0.  0.
          5    1    3    3  501    0 -0.68946570157E+02  0.20896913092E+02 -0.21942579005E+03  0.23099800400E+03  0.47000000000E+01 0. -1.
        -11    1    4    4    0    0  0.19523390333E+02  0.40213762780E+02 -0.13020901784E+03  0.13766879753E+03  0.00000000000E+00 0.  1.
         12    1    4    4    0    0  0.49232132886E+02 -0.46925610218E+01 -0.54350071692E+02  0.73483013890E+02  0.00000000000E+00 0. -1.
         -5    1    5    5    0  502  0.64538781100E+02 -0.53296608021E+02 -0.58769069723E+02  0.10238005787E+03  0.47000000000E+01 0.  1.
         11    1    6    6    0    0 -0.72764179885E+02 -0.18767488872E+02 -0.91516203799E+02  0.11841477978E+03  0.00000000000E+00 0. -1.
        -12    1    6    6    0    0  0.84164457237E+01  0.15645982044E+02 -0.32028762852E+01  0.18052471555E+02  0.00000000000E+00 0.  1.
</event>
<event>
12    1  0.8219652E-002  0.1924183E+03  0.7818608E-02  0.1156473E+00
         21   -1    0    0  503  502  0.00000000000E+00  0.00000000000E+00  0.73343044837E+03  0.73343044837E+03  0.00000000000E+00 0.  1.
         21   -1    0    0  501  503 -0.00000000000E+00 -0.00000000000E+00 -0.12438961147E+03  0.12438961147E+03  0.00000000000E+00 0. -1.
          6    2    1    2  501    0  0.81879218307E+02  0.21271912469E+02 -0.26301103572E+02  0.19420746670E+03  0.17282387399E+03 0.  0.
         24    2    3    3    0    0  0.65601919459E+02  0.80324976973E+02 -0.21821546464E+02  0.13260899824E+03  0.79707294277E+02 0.  0.
         -6    2    1    2    0  502 -0.81879218307E+02 -0.21271912469E+02  0.63534194047E+03  0.66361259315E+03  0.17194647949E+03 0.  0.
        -24    2    5    5    0    0 -0.43961978395E+02 -0.10447247503E+02  0.14660041657E+03  0.17326041599E+03  0.80533776059E+02 0.  0.
          5    1    3    3  501    0  0.16277298848E+02 -0.59053064504E+02 -0.44795571082E+01  0.61598468463E+02  0.47000000000E+01 0. -1.
        -11    1    4    4    0    0  0.32012391655E+02  0.15317892782E+02  0.27045525582E+02  0.44619407356E+02  0.00000000000E+00 0.  1.
         12    1    4    4    0    0  0.33589527804E+02  0.65007084191E+02 -0.48867072046E+02  0.87989590881E+02  0.00000000000E+00 0. -1.
         -5    1    5    5    0  502 -0.37917239911E+02 -0.10824664966E+02  0.48874152390E+03  0.49035217715E+03  0.47000000000E+01 0.  1.
         11    1    6    6    0    0 -0.10289777206E+02  0.16153221297E+02 -0.13625146338E+01  0.19200586433E+02  0.00000000000E+00 0. -1.
        -12    1    6    6    0    0 -0.33672201190E+02 -0.26600468801E+02  0.14796293121E+03  0.15405982956E+03  0.00000000000E+00 0.  1.
</event>
<event>
12    1  0.8219652E-002  0.1964020E+03  0.7818608E-02  0.1153038E+00
         21   -1    0    0  501  502  0.00000000000E+00  0.00000000000E+00  0.89922470570E+02  0.89922470570E+02  0.00000000000E+00 0.  1.
         21   -1    0    0  502  503 -0.00000000000E+00 -0.00000000000E+00 -0.42687268870E+03  0.42687268870E+03  0.00000000000E+00 0.  1.
         -6    2    1    2    0  503  0.89815527491E+02  0.28613046580E+02 -0.16253829288E+03  0.25412946709E+03  0.17110684960E+03 0.  0.
        -24    2    3    3    0    0  0.24345739523E+02 -0.48986191562E+02 -0.86659730022E+02  0.12729263807E+03  0.75505926271E+02 0.  0.
          6    2    1    2  501    0 -0.89815527491E+02 -0.28613046580E+02 -0.17441192525E+03  0.26266569218E+03  0.17230267195E+03 0.  0.
         24    2    5    5    0    0 -0.35837084792E+02  0.41900844644E+02 -0.13229429978E+03  0.16426922116E+03  0.80265919538E+02 0.  0.
          5    1    5    5  501    0 -0.53978442699E+02 -0.70513891225E+02 -0.42117625474E+02  0.98396471011E+02  0.47000000000E+01 0. -1.
        -11    1    6    6    0    0  0.93592259002E+01  0.11888558025E+02  0.55626785902E+01  0.16120679715E+02  0.00000000000E+00 0.  1.
         12    1    6    6    0    0 -0.45196310692E+02  0.30012286619E+02 -0.13785697837E+03  0.14814854145E+03  0.00000000000E+00 0. -1.
         -5    1    3    3    0  503  0.65469787969E+02  0.77599238142E+02 -0.75878562854E+02  0.12683682903E+03  0.47000000000E+01 0.  1.
         11    1    4    4    0    0  0.49421073325E+02 -0.45653614026E+02 -0.69464531305E+02  0.96705822325E+02  0.00000000000E+00 0. -1.
        -12    1    4    4    0    0 -0.25075333802E+02 -0.33325775364E+01 -0.17195198717E+02  0.30586815742E+02  0.00000000000E+00 0.  1.
</event>
<event>
12    1  0.8219652E-002  0.2351807E+03  0.7818608E-02  0.1123336E+00
         21   -1    0    0  501  502  0.00000000000E+00  0.00000000000E+00  0.91136038281E+02  0.91136038281E+02  0.00000000000E+00 0.  1.
         21   -1    0    0  502  503 -0.00000000000E+00 -0.00000000000E+00 -0.74098326169E+03  0.74098326169E+03  0.00000000000E+00 0.  1.
         -6    2    1    2    0  503  0.10984749122E+03 -0.11511223336E+03 -0.50571694236E+03  0.55772714465E+03  0.17318384593E+03 0.  0.
        -24    2    3    3    0    0 -0.13225306775E+02 -0.38762420882E+02 -0.15810766656E+03  0.18112323324E+03  0.78295321571E+02 0.  0.
          6    2    1    2  501    0 -0.10984749122E+03  0.11511223336E+03 -0.14413028105E+03  0.27439215532E+03  0.17088071685E+03 0.  0.
         24    2    5    5    0    0 -0.91721939064E+02  0.42010803288E+02 -0.25835781635E+02  0.13407810289E+03  0.84448968982E+02 0.  0.
          5    1    5    5  501    0 -0.18125552159E+02  0.73101430070E+02 -0.11829449941E+03  0.14031405244E+03  0.47000000000E+01 0. -1.
        -13    1    6    6    0    0 -0.48891671828E+02 -0.21612468296E+02 -0.20306382153E+02  0.57182545555E+02  0.00000000000E+00 0.  1.
         14    1    6    6    0    0 -0.42830267237E+02  0.63623271584E+02 -0.55293994813E+01  0.76895557331E+02  0.00000000000E+00 0. -1.
         -5    1    3    3    0  503  0.12307279800E+03 -0.76349812476E+02 -0.34760927579E+03  0.37660391141E+03  0.47000000000E+01 0.  1.
         11    1    4    4    0    0  0.32473447279E+02 -0.14526812767E+02 -0.78514784307E+02  0.86198169483E+02  0.00000000000E+00 0. -1.
        -12    1    4    4    0    0 -0.45698754054E+02 -0.24235608115E+02 -0.79592882257E+02  0.94925063754E+02  0.00000000000E+00 0.  1.
</event>
<event>
12    1  0.8219652E-002  0.1939986E+03  0.7818608E-02  0.1155133E+00
         21   -1    0    0  501  502  0.00000000000E+00  0.00000000000E+00  0.46160253632E+03  0.46160253632E+03  0.00000000000E+00 0. -1.
         21   -1    0    0  502  503 -0.00000000000E+00 -0.00000000000E+00 -0.99634497176E+02  0.99634497176E+02  0.00000000000E+00 0.  1.
         -6    2    1    2    0  503 -0.21589776838E+02  0.87659748993E+02  0.59538328895E+02  0.20193328086E+03  0.17053412343E+03 0.  0.
        -24    2    3    3    0    0  0.34365092347E+01 -0.55186176026E+01  0.68143730239E+02  0.10495562401E+03  0.79560356367E+02 0.  0.
          6    2    1    2  501    0  0.21589776838E+02 -0.87659748993E+02  0.30242971025E+03  0.35930375263E+03  0.17171227957E+03 0.  0.
         24    2    5    5    0    0  0.54049025635E+02 -0.11515871766E+03  0.17933525539E+03  0.22898057385E+03  0.63938579508E+02 0.  0.
          5    1    5    5  501    0 -0.32459248797E+02  0.27498968670E+02  0.12309445486E+03  0.13032317878E+03  0.47000000000E+01 0. -1.
        -13    1    6    6    0    0  0.60525192779E+02 -0.57589558218E+02  0.93065385237E+02  0.12506407200E+03  0.00000000000E+00 0.  1.
         14    1    6    6    0    0 -0.64761671447E+01 -0.57569159445E+02  0.86269870153E+02  0.10391650185E+03  0.00000000000E+00 0. -1.
         -5    1    3    3    0  503 -0.25026286072E+02  0.93178366595E+02 -0.86054013443E+01  0.96977656851E+02  0.47000000000E+01 0.  1.
         13    1    4    4    0    0 -0.24673775213E+02 -0.45429200348E+01 -0.58798486811E+01  0.25768312444E+02  0.00000000000E+00 0. -1.
        -14    1    4    4    0    0  0.28110284448E+02 -0.97569756775E+00  0.74023578920E+02  0.79187311570E+02  0.00000000000E+00 0.  1.
</event>
<event>
12    1  0.8219652E-002  0.1886069E+03  0.7818608E-02  0.1159814E+00
         21   -1    0    0  501  502  0.00000000000E+00  0.00000000000E+00  0.15250713352E+03  0.15250713352E+03  0.00000000000E+00 0.  1.
         21   -1    0    0  502  503 -0.00000000000E+00 -0.00000000000E+00 -0.37558332310E+03  0.37558332310E+03  0.00000000000E+00 0. -1.
         -6    2    1    2    0  503 -0.15849001782E+02  0.73661730637E+02 -0.27443539474E+03  0.33299753075E+03  0.17290265522E+03 0.  0.
        -24    2    3    3    0    0  0.34627911446E+02  0.86661133296E+02 -0.12419716041E+03  0.17390472673E+03  0.78158013332E+02 0.  0.
          6    2    1    2  501    0  0.15849001782E+02 -0.73661730637E+02  0.51359205163E+02  0.19509292586E+03  0.17247098407E+03 0.  0.
         24    2    5    5    0    0  0.11625155285E+02  0.21623413243E+02  0.47047520692E+02  0.99501189047E+02  0.84168290840E+02 0.  0.
          5    1    5    5  501    0  0.42238464972E+01 -0.95285143880E+02  0.43116844712E+01  0.95591736811E+02  0.47000000000E+01 0. -1.
        -13    1    6    6    0    0  0.41740092543E+02  0.30133431458E+02  0.44596701562E+02  0.68111121024E+02  0.00000000000E+00 0.  1.
         14    1    6    6    0    0 -0.30114937258E+02 -0.85100182150E+01  0.24508191301E+01  0.31390068023E+02  0.00000000000E+00 0. -1.
         -5    1    3    3    0  503 -0.50476913228E+02 -0.12999402658E+02 -0.15023823433E+03  0.15909280403E+03  0.47000000000E+01 0.  1.
         11    1    4    4    0    0  0.24377308240E+01  0.16095386361E+02 -0.85853523018E+02  0.87383244437E+02  0.00000000000E+00 0. -1.
        -12    1    4    4    0    0  0.32190180622E+02  0.70565746935E+02 -0.38343637396E+02  0.86521482290E+02  0.00000000000E+00 0.  1.
</event>
<event>
12    1  0.8219652E-002  0.1756411E+03  0.7818608E-02  0.1172684E+00
         21   -1    0    0  503  502  0.00000000000E+00  0.00000000000E+00  0.44314233955E+02  0.44314233955E+02  0.00000000000E+00 0.  1.
         21   -1    0    0  501  503 -0.00000000000E+00 -0.00000000000E+00 -0.69970829680E+03  0.69970829680E+03  0.00000000000E+00 0.  1.
          6    2    1    2  501    0  0.32677635861E+01 -0.27484949998E+02 -0.37598108167E+03  0.41399011233E+03  0.17105536700E+03 0.  0.
         24    2    3    3    0    0 -0.16105760099E+02 -0.26334201520E+02 -0.77962030784E+02  0.11530281375E+03  0.79144013906E+02 0.  0.
         -6    2    1    2    0  502 -0.32677635861E+01  0.27484949998E+02 -0.27941298117E+03  0.33003241842E+03  0.17344648283E+03 0.  0.
        -24    2    5    5    0    0  0.47328220079E+02 -0.21165577611E+02 -0.10406523002E+03  0.14109922591E+03  0.79946715760E+02 0.  0.
          5    1    3    3  501    0  0.19373523686E+02 -0.11507484782E+01 -0.29801905088E+03  0.29868729858E+03  0.47000000000E+01 0. -1.
        -11    1    4    4    0    0  0.25646934568E+02 -0.26846023987E+02 -0.15644367112E+02  0.40289210454E+02  0.00000000000E+00 0.  1.
         12    1    4    4    0    0 -0.41752694668E+02  0.51182246685E+00 -0.62317663672E+02  0.75013603298E+02  0.00000000000E+00 0. -1.
         -5    1    5    5    0  502 -0.50595983665E+02  0.48650527609E+02 -0.17534775115E+03  0.18893319251E+03  0.47000000000E+01 0.  1.
         11    1    6    6    0    0  0.26255855999E+02 -0.36920421081E+02 -0.14224422510E+02  0.47484962491E+02  0.00000000000E+00 0. -1.
        -12    1    6    6    0    0  0.21072364080E+02  0.15754843470E+02 -0.89840807511E+02  0.93614263416E+02  0.00000000000E+00 0.  1.
</event>
<event>
12    1  0.8219652E-002  0.1981445E+03  0.7818608E-02  0.1151523E+00
         21   -1    0    0  501  502  0.00000000000E+00  0.00000000000E+00  0.10420797498E+03  0.10420797498E+03  0.00000000000E+00 0.  1.
         21   -1    0    0  502  503 -0.00000000000E+00 -0.00000000000E+00 -0.37941121360E+03  0.37941121360E+03  0.00000000000E+00 0.  1.
         -6    2    1    2    0  503  0.71605103039E+02 -0.62262486877E+02 -0.16361671952E+03  0.25621473109E+03  0.17283416753E+03 0.  0.
        -24    2    3    3    0    0  0.74314992086E+02 -0.57216312722E+02 -0.19146800036E+03  0.22739475162E+03  0.79069295011E+02 0.  0.
          6    2    1    2  501    0 -0.71605103039E+02  0.62262486877E+02 -0.11158651910E+03  0.22740445750E+03  0.17394633653E+03 0.  0.
         24    2    5    5    0    0 -0.22593352324E+02  0.10324544644E+03 -0.58837203558E+02  0.14442051343E+03  0.78901117836E+02 0.  0.
          5    1    5    5  501    0 -0.49011750715E+02 -0.40982959568E+02 -0.52749315539E+02  0.82983944067E+02  0.47000000000E+01 0. -1.
        -11    1    6    6    0    0 -0.36378181098E+02  0.18522759122E+02 -0.84754510438E+00  0.40831152300E+02  0.00000000000E+00 0.  1.
         12    1    6    6    0    0  0.13784828773E+02  0.84722687323E+02 -0.57989658453E+02  0.10358936113E+03  0.00000000000E+00 0. -1.
         -5    1    3    3    0  503 -0.27098890466E+01 -0.50461741551E+01  0.27851280838E+02  0.28819979468E+02  0.47000000000E+01 0.  1.
         13    1    4    4    0    0  0.38149441601E+02  0.71048559123E+01 -0.27422761984E+02  0.47517015340E+02  0.00000000000E+00 0. -1.
        -14    1    4    4    0    0  0.36165550485E+02 -0.64321168634E+02 -0.16404523837E+03  0.17987773628E+03  0.00000000000E+00 0.  1.
</event>
<event>
12    1  0.8219652E-002  0.2918183E+03  0.7818608E-02  0.1089623E+00
         21   -1    0    0  501  502  0.00000000000E+00  0.00000000000E+00  0.20660979120E+03  0.20660979120E+03  0.00000000000E+00 0. -1.
         21   -1    0    0  502  503 -0.00000000000E+00 -0.00000000000E+00 -0.93180343980E+03  0.93180343980E+03  0.00000000000E+00 0.  1.
         -6    2    1    2    0  503  0.16419157579E+02 -0.23301162158E+03 -0.78817268571E+03  0.83987634886E+03  0.17208165024E+03 0.  0.
        -24    2    3    3    0    0  0.47964686133E+02 -0.11333435286E+03 -0.57221572272E+03  0.59092400627E+03  0.81333026485E+02 0.  0.
          6    2    1    2  501    0 -0.16419157579E+02  0.23301162158E+03  0.62979037107E+02  0.29853688215E+03  0.17491113847E+03 0.  0.
         24    2    5    5    0    0  0.45184419598E+02  0.17146151642E+03  0.78778415534E+01  0.19537851885E+03  0.81670201751E+02 0.  0.
          5    1    5    5  501    0 -0.61603577177E+02  0.61550105156E+02  0.55101195554E+02  0.10315836329E+03  0.47000000000E+01 0. -1.
        -13    1    6    6    0    0  0.51221754115E+02  0.56767306190E+02  0.22244467481E+02  0.79630468291E+02  0.00000000000E+00 0.  1.
         14    1    6    6    0    0 -0.60373345163E+01  0.11469421023E+03 -0.14366625928E+02  0.11574805056E+03  0.00000000000E+00 0. -1.
         -5    1    3    3    0  503 -0.31545528555E+02 -0.11967726872E+03 -0.21595696299E+03  0.24895234259E+03  0.47000000000E+01 0.  1.
         13    1    4    4    0    0  0.26409214607E+02 -0.33474156455E+01 -0.21226110600E+03  0.21392388583E+03  0.00000000000E+00 0. -1.
        -14    1    4    4    0    0  0.21555471526E+02 -0.10998693721E+03 -0.35995461672E+03  0.37700012044E+03  0.00000000000E+00 0.  1.
</event>
<event>
12    1  0.8219652E-002  0.2104800E+03  0.7818608E-02  0.1141438E+00
         21   -1    0    0  501  502  0.00000000000E+00  0.00000000000E+00  0.27493402833E+03  0.27493402833E+03  0.00000000000E+00 0. -1.
         21   -1    0    0  502  503 -0.00000000000E+00 -0.00000000000E+00 -0.11034227265E+04  0.11034227265E+04  0.00000000000E+00 0.  1.
         -6    2    1    2    0  503  0.30032429823E+02 -0.11466299469E+03 -0.10516266427E+04  0.10724832936E+04  0.17393179723E+03 0.  0.
        -24    2    3    3    0    0  0.65783942009E+02 -0.13290029511E+03 -0.81371487580E+03  0.83116427526E+03  0.81927638271E+02 0.  0.
          6    2    1    2  501    0 -0.30032429823E+02  0.11466299469E+03  0.22313794460E+03  0.30587346122E+03  0.17239049499E+03 0.  0.
         24    2    5    5    0    0  0.38765768532E+02  0.63187158639E+02  0.68103648199E+02  0.12855827051E+03  0.79960741562E+02 0.  0.
          5    1    5    5  501    0 -0.68798198355E+02  0.51475836049E+02  0.15503429640E+03  0.17731519071E+03  0.47000000000E+01 0. -1.
        -13    1    6    6    0    0  0.13977255399E+02 -0.16644138279E+02  0.29085077306E+02  0.36308851943E+02  0.00000000000E+00 0.  1.
         14    1    6    6    0    0  0.24788513134E+02  0.79831296918E+02  0.39018570893E+02  0.92249418564E+02  0.00000000000E+00 0. -1.
         -5    1    3    3    0  503 -0.35751512186E+02  0.18237300422E+02 -0.23791176694E+03  0.24131901831E+03  0.47000000000E+01 0.  1.
         13    1    4    4    0    0  0.17491429279E+02  0.88298813416E+01 -0.85753749563E+02  0.87963756553E+02  0.00000000000E+00 0. -1.
        -14    1    4    4    0    0  0.48292512730E+02 -0.14173017645E+03 -0.72796112623E+03  0.74320051871E+03  0.00000000000E+00 0.  1.
</event>
<event>
12    1  0.8219652E-002  0.1769276E+03  0.7818608E-02  0.1171296E+00
         21   -1    0    0  503  502  0.00000000000E+00  0.00000000000E+00  0.24900833914E+03  0.24900833914E+03  0.00000000000E+00 0. -1.
         21   -1    0    0  501  503 -0.00000000000E+00 -0.00000000000E+00 -0.14022665350E+03  0.14022665350E+03  0.00000000000E+00 0. -1.
          6    2    1    2  501    0 -0.20432069551E+02 -0.40084853312E+02 -0.11401493064E+02  0.17534866222E+03  0.16909433570E+03 0.  0.
         24    2    3    3    0    0  0.15516158937E+02 -0.61879992807E+02  0.38527753349E+02  0.10990920253E+03  0.80782178260E+02 0.  0.
         -6    2    1    2    0  502  0.20432069551E+02  0.40084853312E+02  0.12018317870E+03  0.21388633042E+03  0.17111137007E+03 0.  0.
        -24    2    5    5    0    0  0.14171843414E+02  0.85006639966E+02  0.44348908270E+02  0.12539856901E+03  0.79567615656E+02 0.  0.
          5    1    3    3  501    0 -0.35948228488E+02  0.21795139495E+02 -0.49929246412E+02  0.65439459689E+02  0.47000000000E+01 0. -1.
        -13    1    4    4    0    0  0.40574829219E+02 -0.80738909484E+01  0.48190512931E+01  0.41650062863E+02  0.00000000000E+00 0.  1.
         14    1    4    4    0    0 -0.25058670282E+02 -0.53806101859E+02  0.33708702055E+02  0.68259139665E+02  0.00000000000E+00 0. -1.
         -5    1    5    5    0  502  0.62602261370E+01 -0.44921786655E+02  0.75834270433E+02  0.88487761412E+02  0.47000000000E+01 0.  1.
         13    1    6    6    0    0  0.52112173737E+01  0.24917397617E+02  0.57814239275E+02  0.63170560813E+02  0.00000000000E+00 0. -1.
        -14    1    6    6    0    0  0.89606260405E+01  0.60089242349E+02 -0.13465331005E+02  0.62228008197E+02  0.00000000000E+00 0.  1.
</event>
<event>
12    1  0.8219652E-002  0.1972096E+03  0.7818608E-02  0.1152158E+00
         21   -1    0    0  503  502  0.00000000000E+00  0.00000000000E+00  0.68242881515E+03  0.68242881515E+03  0.00000000000E+00 0. -1.
         21   -1    0    0  501  503 -0.00000000000E+00 -0.00000000000E+00 -0.15387317659E+03  0.15387317659E+03  0.00000000000E+00 0.  1.
          6    2    1    2  501    0  0.90863462357E+02 -0.29134518030E+02 -0.67571517257E+02  0.20846468694E+03  0.17258802631E+03 0.  0.
         24    2    3    3    0    0  0.30874379372E+02  0.27500709496E+02 -0.84370338779E+02  0.12414073139E+03  0.81136001879E+02 0.  0.
         -6    2    1    2    0  502 -0.90863462357E+02  0.29134518030E+02  0.59612715581E+03  0.62783730480E+03  0.17235749613E+03 0.  0.
        -24    2    5    5    0    0  0.98638496744E+01  0.50680050134E+02  0.25217896180E+03  0.26876537398E+03  0.77297053387E+02 0.  0.
          5    1    3    3  501    0  0.59989082985E+02 -0.56635227526E+02  0.16798821522E+02  0.84323955546E+02  0.47000000000E+01 0. -1.
        -11    1    4    4    0    0  0.43225914266E+02  0.16986468412E+02 -0.93355320778E+01  0.47372691843E+02  0.00000000000E+00 0.  1.
         12    1    4    4    0    0 -0.12351534894E+02  0.10514241084E+02 -0.75034806701E+02  0.76768039551E+02  0.00000000000E+00 0. -1.
         -5    1    5    5    0  502 -0.10072731203E+03 -0.21545532104E+02  0.34394819401E+03  0.35907193082E+03  0.47000000000E+01 0.  1.
         13    1    6    6    0    0  0.19042806791E+02  0.52231314450E+02  0.25335441316E+03  0.25938233819E+03  0.00000000000E+00 0. -1.
        -14    1    6    6    0    0 -0.91789571164E+01 -0.15512643160E+01 -0.11754513534E+01  0.93830357884E+01  0.00000000000E+00 0.  1.
</event>
<event>
12    1  0.8219652E-002  0.1774902E+03  0.7818608E-02  0.1170269E+00
         21   -1    0    0  501  502  0.00000000000E+00  0.00000000000E+00  0.59384162222E+03  0.59384162222E+03  0.00000000000E+00 0.  1.
         21   -1    0    0  502  503 -0.00000000000E+00 -0.00000000000E+00 -0.60596805470E+02  0.60596805470E+02  0.00000000000E+00 0. -1.
         -6    2    1    2    0  503  0.59829442006E+02 -0.78318680855E+01  0.38227846136E+03  0.42147312233E+03  0.16691875431E+03 0.  0.
        -24    2    3    3    0    0  0.11181054915E+02  0.53556763689E+02  0.23222621694E+03  0.25214209820E+03  0.81567634058E+02 0.  0.
          6    2    1    2  501    0 -0.59829442006E+02  0.78318680855E+01  0.15096635539E+03  0.23296530535E+03  0.16685650347E+03 0.  0.
         24    2    5    5    0    0  0.28685943872E+02  0.16172233665E+02  0.88535344691E+02  0.12422590894E+03  0.80679270418E+02 0.  0.
          5    1    5    5  501    0 -0.88515385878E+02 -0.83403655796E+01  0.62431010694E+02  0.10873939641E+03  0.47000000000E+01 0. -1.
        -11    1    6    6    0    0  0.37476835033E+02  0.42605631920E+02  0.44464562355E+02  0.72089183244E+02  0.00000000000E+00 0.  1.
         12    1    6    6    0    0 -0.87908911605E+01 -0.26433398255E+02  0.44070782336E+02  0.52136725697E+02  0.00000000000E+00 0. -1.
         -5    1    3    3    0  503  0.48648387091E+02 -0.61388631774E+02  0.15005224442E+03  0.16933102413E+03  0.47000000000E+01 0.  1.
         13    1    4    4    0    0  0.28583487573E+02  0.62544393021E+00  0.26425758682E+02  0.38932347269E+02  0.00000000000E+00 0. -1.
        -14    1    4    4    0    0 -0.17402432658E+02  0.52931319759E+02  0.20580045826E+03  0.21320975093E+03  0.00000000000E+00 0.  1.
</event>
<event>
12    1  0.8219652E-002  0.3150361E+03  0.7818608E-02  0.1077985E+00
         21   -1    0    0  501  502  0.00000000000E+00  0.00000000000E+00  0.10177627564E+04  0.10177627564E+04  0.00000000000E+00 0.  1.
         21   -1    0    0  502  503 -0.00000000000E+00 -0.00000000000E+00 -0.11097302958E+03  0.11097302958E+03  0.00000000000E+00 0.  1.
         -6    2    1    2    0  503  0.22867187690E+03  0.13181812617E+03  0.25647689950E+03  0.40623654804E+03  0.17199095125E+03 0.  0.
        -24    2    3    3    0    0  0.28307556963E+02  0.41006731887E+02  0.89884703749E+02  0.13025173012E+03  0.80021143396E+02 0.  0.
          6    2    1    2  501    0 -0.22867187690E+03 -0.13181812617E+03  0.65031282737E+03  0.72249923798E+03  0.17155620005E+03 0.  0.
         24    2    5    5    0    0 -0.88612455527E+02 -0.73606584728E+02  0.45633034097E+03  0.47621379363E+03  0.72609231936E+02 0.  0.
          5    1    5    5  501    0 -0.14005942137E+03 -0.58211541444E+02  0.19398248640E+03  0.24628544436E+03  0.47000000000E+01 0. -1.
        -11    1    6    6    0    0 -0.26921183345E+02 -0.61070800911E+02  0.16168179558E+03  0.17491539628E+03  0.00000000000E+00 0.  1.
         12    1    6    6    0    0 -0.61691272183E+02 -0.12535783816E+02  0.29464854539E+03  0.30129839734E+03  0.00000000000E+00 0. -1.
         -5    1    3    3    0  503  0.20036431993E+03  0.90811394286E+02  0.16659219575E+03  0.27598481791E+03  0.47000000000E+01 0.  1.
         13    1    4    4    0    0  0.30320596921E+02  0.17374663195E+02  0.98889220527E+02  0.10488229333E+03  0.00000000000E+00 0. -1.
        -14    1    4    4    0    0 -0.20130399582E+01  0.23632068691E+02 -0.90045167776E+01  0.25369436787E+02  0.00000000000E+00 0.  1.
</event>
<event>
12    1  0.8219652E-002  0.2108278E+03  0.7818608E-02  0.1141040E+00
         21   -1    0    0  503  502  0.00000000000E+00  0.00000000000E+00  0.47981616282E+02  0.47981616282E+02  0.00000000000E+00 0. -1.
         21   -1    0    0  501  503 -0.00000000000E+00 -0.00000000000E+00 -0.93667676834E+03  0.93667676834E+03  0.00000000000E+00 0. -1.
          6    2    1    2  501    0 -0.11807927276E+03  0.26499465690E+02 -0.38530653312E+03  0.43890345139E+03  0.17184347191E+03 0.  0.
         24    2    3    3    0    0 -0.90565918931E+02  0.37408108339E+02 -0.12689422293E+03  0.17875926986E+03  0.79064407335E+02 0.  0.
         -6    2    1    2    0  502  0.11807927276E+03 -0.26499465690E+02 -0.50338861893E+03  0.54575493323E+03  0.17263663903E+03 0.  0.
        -24    2    5    5    0    0  0.13891053666E+03  0.11770025173E+01 -0.47103726256E+03  0.49812480929E+03  0.83394846203E+02 0.  0.
          5    1    3    3  501    0 -0.27513353828E+02 -0.10908642650E+02 -0.25841231019E+03  0.26014418152E+03  0.47000000000E+01 0. -1.
        -13    1    4    4    0    0 -0.34126667578E+02  0.53129081162E+02 -0.88476928773E+02  0.10869910593E+03  0.00000000000E+00 0.  1.
         14    1    4    4    0    0 -0.56439251353E+02 -0.15720972822E+02 -0.38417294159E+02  0.70060163932E+02  0.00000000000E+00 0. -1.
         -5    1    5    5    0  502 -0.20831263899E+02 -0.27676468207E+02 -0.32351356370E+02  0.47630123945E+02  0.47000000000E+01 0.  1.
         13    1    6    6    0    0  0.95040588950E+02  0.34584880711E+02 -0.23697342548E+03  0.25765331728E+03  0.00000000000E+00 0. -1.
        -14    1    6    6    0    0  0.43869947707E+02 -0.33407878193E+02 -0.23406383708E+03  0.24047149200E+03  0.00000000000E+00 0.  1.
</event>
<event>
12    1  0.8219652E-002  0.2168362E+03  0.7818608E-02  0.1136387E+00
         21   -1    0    0  503  502  0.00000000000E+00  0.00000000000E+00  0.11057424179E+04  0.11057424179E+04  0.00000000000E+00 0.  1.
         21   -1    0    0  501  503 -0.00000000000E+00 -0.00000000000E+00 -0.96779312106E+02  0.96779312106E+02  0.00000000000E+00 0.  1.
          6    2    1    2  501    0 -0.10017239179E+03 -0.86461950855E+02  0.53432780911E+02  0.22269718509E+03  0.17096431543E+03 0.  0.
         24    2    3    3    0    0  0.13826257296E+02 -0.37809991330E+02  0.36715268089E+02  0.97540202089E+02  0.80903147513E+02 0.  0.
         -6    2    1    2    0  502  0.10017239179E+03  0.86461950855E+02  0.95553032485E+03  0.97982454488E+03  0.17177822918E+03 0.  0.
        -24    2    5    5    0    0  0.10724759850E+03  0.17993776090E+02  0.48588693543E+03  0.50514048918E+03  0.85176149421E+02 0.  0.
          5    1    3    3  501    0 -0.11399864909E+03 -0.48651959525E+02  0.16717512821E+02  0.12515698300E+03  0.47000000000E+01 0. -1.
        -11    1    4    4    0    0  0.26265270121E+02 -0.32860037522E+02 -0.14583473579E+02  0.44523299317E+02  0.00000000000E+00 0.  1.
         12    1    4    4    0    0 -0.12439012825E+02 -0.49499538080E+01  0.51298741668E+02  0.53016902771E+02  0.00000000000E+00 0. -1.
         -5    1    5    5    0  502 -0.70752067122E+01  0.68468174765E+02  0.46964338942E+03  0.47468405570E+03  0.47000000000E+01 0.  1.
         13    1    6    6    0    0  0.62445079256E+02  0.26788884362E+02  0.13339523329E+03  0.14970410987E+03  0.00000000000E+00 0. -1.
        -14    1    6    6    0    0  0.44802519248E+02 -0.87951082723E+01  0.35249170214E+03  0.35543637931E+03  0.00000000000E+00 0.  1.
</event>
<event>
12    1  0.8219652E-002  0.2168298E+03  0.7818608E-02  0.1136751E+00
         21   -1    0    0  503  502  0.00000000000E+00  0.00000000000E+00  0.13935403782E+04  0.13935403782E+04  0.00000000000E+00 0. -1.
         21   -1    0    0  501  503 -0.00000000000E+00 -0.00000000000E+00 -0.13482415520E+03  0.13482415520E+03  0.00000000000E+00 0.  1.
          6    2    1    2  501    0  0.12503415058E+03 -0.51255249966E+02 -0.32704848092E+02  0.21928237665E+03  0.16957156059E+03 0.  0.
         24    2    3    3    0    0  0.26973711121E+02 -0.64903310346E+02  0.22111954947E+02  0.10601679832E+03  0.76227306056E+02 0.  0.
         -6    2    1    2    0  502 -0.12503415058E+03  0.51255249966E+02  0.12914210711E+04  0.13090821568E+04  0.16633421415E+03 0.  0.
        -24    2    5    5    0    0 -0.72739230926E+02  0.95485496522E+02  0.96170331505E+03  0.97229296158E+03  0.77922148326E+02 0.  0.
          5    1    3    3  501    0  0.98060439463E+02  0.13648060379E+02 -0.54816803039E+02  0.11326557833E+03  0.47000000000E+01 0. -1.
        -13    1    4    4    0    0 -0.11671880930E+02 -0.67056041838E+01 -0.20250250794E+02  0.24316056200E+02  0.00000000000E+00 0.  1.
         14    1    4    4    0    0  0.38645592051E+02 -0.58197706162E+02  0.42362205741E+02  0.81700742118E+02  0.00000000000E+00 0. -1.
         -5    1    5    5    0  502 -0.52294919658E+02 -0.44230246555E+02  0.32971775604E+03  0.33678919517E+03  0.47000000000E+01 0.  1.
         13    1    6    6    0    0  0.24471536246E+01  0.43009644180E+02  0.48087718999E+03  0.48280295142E+03  0.00000000000E+00 0. -1.
        -14    1    6    6    0    0 -0.75186384551E+02  0.52475852341E+02  0.48082612507E+03  0.48949001016E+03  0.00000000000E+00 0.  1.
</event>
<event>
12    1  0.8219652E-002  0.2363720E+03  0.7818608E-02  0.1122503E+00
         21   -1    0    0  501  502  0.00000000000E+00  0.00000000000E+00  0.23589077704E+03  0.23589077704E+03  0.00000000000E+00 0.  1.
         21   -1    0    0  502  503 -0.00000000000E+00 -0.00000000000E+00 -0.27573858210E+03  0.27573858210E+03  0.00000000000E+00 0.  1.
         -6    2    1    2    0  503 -0.13055853533E+03 -0.91903922034E+02 -0.11786309077E+03  0.26271545997E+03  0.17215063958E+03 0.  0.
        -24    2    3    3    0    0 -0.47844647103E+02  0.19372531409E+02 -0.55578421525E+02  0.11064473162E+03  0.80553649617E+02 0.  0.
          6    2    1    2  501    0  0.13055853533E+03  0.91903922034E+02  0.78015285713E+02  0.24891389918E+03  0.17429825692E+03 0.  0.
         24    2    5    5    0    0  0.91017917447E+02  0.96419459556E+02 -0.71524674295E+01  0.15478905274E+03  0.79545707490E+02 0.  0.
          5    1    5    5  501    0  0.39540617883E+02 -0.45155375219E+01  0.85167753143E+02  0.94124846439E+02  0.47000000000E+01 0. -1.
        -11    1    6    6    0    0  0.82747712978E+02  0.32153452118E+02  0.47791357656E+01  0.88903704225E+02  0.00000000000E+00 0.  1.
         12    1    6    6    0    0  0.82702044683E+01  0.64266007438E+02 -0.11931603195E+02  0.65885348514E+02  0.00000000000E+00 0. -1.
         -5    1    3    3    0  503 -0.82713888227E+02 -0.11127645344E+03 -0.62284669244E+02  0.15207072834E+03  0.47000000000E+01 0.  1.
         11    1    4    4    0    0 -0.18880545495E+01 -0.23105534073E+02  0.48122706448E+01  0.23676748162E+02  0.00000000000E+00 0. -1.
        -12    1    4    4    0    0 -0.45956592553E+02  0.42478065482E+02 -0.60390692170E+02  0.86967983459E+02  0.00000000000E+00 0.  1.
</event>
<event>
12    1  0.8219652E-002  0.1922664E+03  0.7818608E-02  0.1157387E+00
         21   -1    0    0  503  502  0.00000000000E+00  0.00000000000E+00  0.11214249714E+03  0.11214249714E+03  0.00000000000E+00 0. -1.
         21   -1    0    0  501  503 -0.00000000000E+00 -0.00000000000E+00 -0.36875962881E+03  0.36875962881E+03  0.00000000000E+00 0. -1.
          6    2    1    2  501    0  0.70044759408E+02 -0.18044628567E+02 -0.21230660182E+03  0.28359576426E+03  0.17355283745E+03 0.  0.
         24    2    3    3    0    0 -0.29480338678E+02 -0.76573492764E+01 -0.10638868051E+03  0.13780880745E+03  0.82127892361E+02 0.  0.
         -6    2    1    2    0  502 -0.70044759408E+02  0.18044628567E+02 -0.44310529844E+02  0.19730636169E+03  0.17814179849E+03 0.  0.
        -24    2    5    5    0    0 -0.68832657804E+01  0.24610824823E+02 -0.88447562516E+02  0.11982954668E+03  0.76701218354E+02 0.  0.
          5    1    3    3  501    0  0.99525098086E+02 -0.10387279291E+02 -0.10591792131E+03  0.14578695681E+03  0.47000000000E+01 0. -1.
        -13    1    4    4    0    0 -0.11483444048E+02 -0.11806217984E+02  0.10459234467E+02  0.19510301278E+02  0.00000000000E+00 0.  1.
         14    1    4    4    0    0 -0.17996894630E+02  0.41488687078E+01 -0.11684791498E+03  0.11829850617E+03  0.00000000000E+00 0. -1.
         -5    1    5    5    0  502 -0.63161493627E+02 -0.65661962562E+01  0.44137032672E+02  0.77476815007E+02  0.47000000000E+01 0.  1.
         11    1    6    6    0    0 -0.30694790536E+02  0.33197423589E+02 -0.25329155235E+02  0.51824754740E+02  0.00000000000E+00 0. -1.
        -12    1    6    6    0    0  0.23811524755E+02 -0.85865987653E+01 -0.63118407281E+02  0.68004791943E+02  0.00000000000E+00 0.  1.
</event>
<event>
12    1  0.8219652E-002  0.1798417E+03  0.7818608E-02  0.1168464E+00
         21   -1    0    0  501  502  0.00000000000E+00  0.00000000000E+00  0.99490985039E+03  0.99490985039E+03  0.00000000000E+00 0. -1.
         21   -1    0    0  502  503 -0.00000000000E+00 -0.00000000000E+00 -0.33810421939E+02  0.33810421939E+02  0.00000000000E+00 0. -1.
         -6    2    1    2    0  503 -0.38373496128E+02  0.37176587975E+02  0.36334346410E+03  0.40449658219E+03  0.16954170047E+03 0.  0.
        -24    2    3    3    0    0 -0.41381374211E+01 -0.13891836957E+02  0.80990766764E+02  0.11548935130E+03  0.81044300530E+02 0.  0.
          6    2    1    2  501    0  0.38373496128E+02 -0.37176587975E+02  0.59775596435E+03  0.62422369014E+03  0.17172186383E+03 0.  0.
         24    2    5    5    0    0  0.61805906944E+02  0.31128239893E+02  0.31582253775E+03  0.33315123452E+03  0.80355038785E+02 0.  0.
          5    1    5    5  501    0 -0.23432410817E+02 -0.68304827868E+02  0.28193342659E+03  0.29107245561E+03  0.47000000000E+01 0. -1.
        -13    1    6    6    0    0  0.59867812680E+02 -0.13433613660E+02  0.17621029556E+03  0.18658693746E+03  0.00000000000E+00 0.  1.
         14    1    6    6    0    0  0.19380942642E+01  0.44561853553E+02  0.13961224219E+03  0.14656429706E+03  0.00000000000E+00 0. -1.
         -5    1    3    3    0  503 -0.34235358707E+02  0.51068424932E+02  0.28235269734E+03  0.28900723088E+03  0.47000000000E+01 0.  1.
         13    1    4    4    0    0  0.20690312754E+02 -0.36085882704E+02  0.68060061565E+02  0.79764979488E+02  0.00000000000E+00 0. -1.
        -14    1    4    4    0    0 -0.24828450175E+02  0.22194045748E+02  0.12930705199E+02  0.35724371817E+02  0.00000000000E+00 0.  1.
</event>
<event>
12    1  0.8219652E-002  0.1958164E+03  0.7818608E-02  0.1154053E+00
         21   -1    0    0  503  502  0.00000000000E+00  0.00000000000E+00  0.33015980956E+03  0.33015980956E+03  0.00000000000E+00 0.  1.
         21   -1    0    0  501  503 -0.00000000000E+00 -0.00000000000E+00 -0.19658208787E+03  0.19658208787E+03  0.00000000000E+00 0.  1.
          6    2    1    2  501    0  0.84017966835E+02  0.23820363349E+02 -0.10408793771E+03  0.21879864528E+03  0.17149962081E+03 0.  0.
         24    2    3    3    0    0  0.57442761783E+02 -0.33539975485E+02 -0.89503902602E+01  0.10447588757E+03  0.80065602861E+02 0.  0.
         -6    2    1    2    0  502 -0.84017966835E+02 -0.23820363349E+02  0.23766565939E+03  0.30794325215E+03  0.17526452131E+03 0.  0.
        -24    2    5    5    0    0 -0.10710627487E+03  0.58240863537E+01  0.10593822598E+03  0.17088096676E+03  0.80447019685E+02 0.  0.
          5    1    3    3  501    0  0.26575205052E+02  0.57360338835E+02 -0.95137547448E+02  0.11432275770E+03  0.47000000000E+01 0. -1.
        -13    1    4    4    0    0  0.28618489148E+02 -0.54131387178E+02 -0.24290809301E+02  0.65873123620E+02  0.00000000000E+00 0.  1.
         14    1    4    4    0    0  0.28824272635E+02  0.20591411693E+02  0.15340419041E+02  0.38602763953E+02  0.00000000000E+00 0. -1.
         -5    1    5    5    0  502  0.23088308037E+02 -0.29644449703E+02  0.13172743341E+03  0.13706228540E+03  0.47000000000E+01 0.  1.
         11    1    6    6    0    0 -0.29861798325E+02  0.33258965073E+02  0.12150710196E+02  0.46319817737E+02  0.00000000000E+00 0. -1.
        -12    1    6    6    0    0 -0.77244476547E+02 -0.27434878719E+02  0.93787515788E+02  0.12456114902E+03  0.00000000000E+00 0.  1.
</event>
<event>
12    1  0.8219652E-002  0.1892658E+03  0.7818608E-02  0.1159504E+00
         21   -1    0    0  503  502  0.00000000000E+00  0.00000000000E+00  0.16968000472E+03  0.16968000472E+03  0.00000000000E+00 0.  1.
         21   -1    0    0  501  503 -0.00000000000E+00 -0.00000000000E+00 -0.48721645488E+03  0.48721645488E+03  0.00000000000E+00 0.  1.
          6    2    1    2  501    0 -0.71977938786E+02  0.24916426951E+02 -0.40714822520E+03  0.44898910702E+03  0.17326248566E+03 0.  0.
         24    2    3    3    0    0 -0.53640624487E+02  0.69212479640E+02 -0.17128818475E+03  0.20826011819E+03  0.79780640905E+02 0.  0.
         -6    2    1    2    0  502  0.71977938786E+02 -0.24916426951E+02  0.89611775043E+02  0.20790735258E+03  0.17144545788E+03 0.  0.
        -24    2    5    5    0    0  0.86475006266E+00 -0.61571075027E+02  0.23993718165E+02  0.10432903331E+03  0.80728579863E+02 0.  0.
          5    1    3    3  501    0 -0.18337314299E+02 -0.44296052689E+02 -0.23586004045E+03  0.24072898882E+03  0.47000000000E+01 0. -1.
        -13    1    4    4    0    0 -0.52654093073E+02  0.13459167832E+02 -0.12309356802E+03  0.13455715962E+03  0.00000000000E+00 0.  1.
         14    1    4    4    0    0 -0.98653141414E+00  0.55753311808E+02 -0.48194616728E+02  0.73702958579E+02  0.00000000000E+00 0. -1.
         -5    1    5    5    0  502  0.71113188723E+02  0.36654648075E+02  0.65618056879E+02  0.10357831928E+03  0.47000000000E+01 0.  1.
         13    1    6    6    0    0 -0.37265447152E+02 -0.12410906118E+02  0.78562221435E+01  0.40055765733E+02  0.00000000000E+00 0. -1.
        -14    1    6    6    0    0  0.38130197214E+02 -0.49160168908E+02  0.16137496021E+02  0.64273267573E+02  0.00000000000E+00 0.  1.
</event>
<event>
12    1  0.8219652E-002  0.3429337E+03  0.7818608E-02  0.1065573E+00
         21   -1    0    0  503  502  0.00000000000E+00  0.00000000000E+00  0.92380293261E+03  0.92380293261E+03  0.00000000000E+00 0.  1.
         21   -1    0    0  501  503 -0.00000000000E+00 -0.00000000000E+00 -0.36255977639E+03  0.36255977639E+03  0.00000000000E+00 0. -1.
          6    2    1    2  501    0 -0.17727918307E+03  0.23649557020E+03 -0.23758214071E+03  0.41703805890E+03  0.17354367033E+03 0.  0.
         24    2    3    3    0    0 -0.33228849261E+02  0.48384175583E+02 -0.33909670049E+02  0.10456252264E+03  0.79613256104E+02 0.  0.
         -6    2    1    2    0  502  0.17727918307E+03 -0.23649557020E+03  0.79882529693E+03  0.86932465010E+03  0.17391212947E+03 0.  0.
        -24    2    5    5    0    0  0.74787686630E+02 -0.10459076146E+03  0.54406885726E+03  0.56465053081E+03  0.79289816798E+02 0.  0.
          5    1    3    3  501    0 -0.14405033381E+03  0.18811139462E+03 -0.20367247066E+03  0.31247553626E+03  0.47000000000E+01 0. -1.
        -11    1    4    4    0    0 -0.37830184601E+02  0.62806307940E+02 -0.69562149178E+01  0.73648788924E+02  0.00000000000E+00 0.  1.
         12    1    4    4    0    0  0.46013353394E+01 -0.14422132357E+02 -0.26953455131E+02  0.30913733714E+02  0.00000000000E+00 0. -1.
         -5    1    5    5    0  502  0.10249149644E+03 -0.13190480874E+03  0.25475643967E+03  0.30467411929E+03  0.47000000000E+01 0.  1.
         13    1    6    6    0    0 -0.84825261730E+01 -0.51079079958E+02  0.20409180868E+03  0.21055757415E+03  0.00000000000E+00 0. -1.
        -14    1    6    6    0    0  0.83270212803E+02 -0.53511681505E+02  0.33997704858E+03  0.35409295666E+03  0.00000000000E+00 0.  1.
</event>
<event>
12    1  0.8219652E-002  0.1786517E+03  0.7818608E-02  0.1169463E+00
         21   -1    0    0  501  502  0.00000000000E+00  0.00000000000E+00  0.18426999102E+03  0.18426999102E+03  0.00000000000E+00 0.  1.
         21   -1    0    0  502  503 -0.00000000000E+00 -0.00000000000E+00 -0.20950809190E+03  0.20950809190E+03  0.00000000000E+00 0.  1.
         -6    2    1    2    0  503 -0.27714888031E+02 -0.37045171741E+02 -0.96154896307E+02  0.20288469899E+03  0.17255717091E+03 0.  0.
        -24    2    3    3    0    0 -0.85590721213E+01 -0.49692489046E+02  0.92251838915E+01  0.94931231138E+02  0.79901398262E+02 0.  0.
          6    2    1    2  501    0  0.27714888031E+02  0.37045171741E+02  0.70916795427E+02  0.19089338393E+03  0.17108662246E+03 0.  0.
         24    2    5    5    0    0  0.70025599946E+02  0.68667301993E+02  0.49591957200E+02  0.13373575810E+03  0.76204381540E+02 0.  0.
          5    1    5    5  501    0 -0.42310711914E+02 -0.31622130252E+02  0.21324838226E+02  0.57157625823E+02  0.47000000000E+01 0. -1.
        -13    1    6    6    0    0  0.36028220890E+02  0.25864150000E+02  0.63384928232E+02  0.77360429696E+02  0.00000000000E+00 0.  1.
         14    1    6    6    0    0  0.33997379056E+02  0.42803151993E+02 -0.13792971032E+02  0.56375328408E+02  0.00000000000E+00 0. -1.
         -5    1    3    3    0  503 -0.19155815910E+02  0.12647317306E+02 -0.10538008020E+03  0.10795346785E+03  0.47000000000E+01 0.  1.
         11    1    4    4    0    0  0.21406589674E+02  0.11894190582E+02 -0.49637970530E+01  0.24987059296E+02  0.00000000000E+00 0. -1.
        -12    1    4    4    0    0 -0.29965661795E+02 -0.61586679628E+02  0.14188980945E+02  0.69944171842E+02  0.00000000000E+00 0.  1.
</event>
<event>
12    1  0.8219652E-002  0.2220661E+03  0.7818608E-02  0.1132432E+00
         21   -1    0    0  501  502  0.00000000000E+00  0.00000000000E+00  0.14302437850E+03  0.14302437850E+03  0.00000000000E+00 0.  1.
         21   -1    0    0  502  503 -0.00000000000E+00 -0.00000000000E+00 -0.39120737371E+03  0.39120737371E+03  0.00000000000E+00 0.  1.
         -6    2    1    2    0  503  0.77428969095E+02  0.11697565969E+03 -0.21666221684E+03  0.30993967908E+03  0.17158536723E+03 0.  0.
        -24    2    3    3    0    0 -0.20490993102E+02  0.23156492343E+02 -0.89203193078E+02  0.12377242123E+03  0.80039356980E+02 0.  0.
          6    2    1    2  501    0 -0.77428969095E+02 -0.11697565969E+03 -0.31520778371E+02  0.22429207312E+03  0.17214768189E+03 0.  0.
         24    2    5    5    0    0  0.13620552254E+02 -0.93047395553E+02 -0.36347759161E+02  0.12991004673E+03  0.81927549591E+02 0.  0.
          5    1    5    5  501    0 -0.91049521349E+02 -0.23928264138E+02  0.48269807902E+01  0.94382026393E+02  0.47000000000E+01 0. -1.
        -11    1    6    6    0    0 -0.30460124943E+01 -0.62740824153E+02  0.18131342158E+02  0.65379161634E+02  0.00000000000E+00 0.  1.
         12    1    6    6    0    0  0.16666564748E+02 -0.30306571400E+02 -0.54479101319E+02  0.64530885094E+02  0.00000000000E+00 0. -1.
         -5    1    3    3    0  503  0.97919962197E+02  0.93819167348E+02 -0.12745902376E+03  0.18616725785E+03  0.47000000000E+01 0.  1.
         11    1    4    4    0    0 -0.32559243470E+02  0.37148783138E+02 -0.92631183251E+02  0.10497939100E+03  0.00000000000E+00 0. -1.
        -12    1    4    4    0    0  0.12068250368E+02 -0.13992290795E+02  0.34279901731E+01  0.18793030231E+02  0.00000000000E+00 0.  1.
</event>
<event>
12    1  0.8219652E-002  0.1828321E+03  0.7818608E-02  0.1165271E+00
         21   -1    0    0  501  502  0.00000000000E+00  0.00000000000E+00  0.13270127929E+03  0.13270127929E+03  0.00000000000E+00 0. -1.
         21   -1    0    0  502  503 -0.00000000000E+00 -0.00000000000E+00 -0.35637638567E+03  0.35637638567E+03  0.00000000000E+00 0. -1.
         -6    2    1    2    0  503 -0.22270970654E+02 -0.57281324708E+02 -0.24507007907E+03  0.30575630508E+03  0.17219299680E+03 0.  0.
        -24    2    3    3    0    0 -0.80992143664E+02 -0.47140517709E+02 -0.15941799181E+03  0.20130831717E+03  0.79554928847E+02 0.  0.
          6    2    1    2  501    0  0.22270970654E+02  0.57281324708E+02  0.21394972690E+02  0.18332135988E+03  0.17138211645E+03 0.  0.
         24    2    5    5    0    0  0.57784820663E+02  0.47747051657E+02 -0.35845738477E+02  0.11512513624E+03  0.79686972495E+02 0.  0.
          5    1    5    5  501    0 -0.35513850009E+02  0.95342730512E+01  0.57240711167E+02  0.68196223649E+02  0.47000000000E+01 0. -1.
        -13    1    6    6    0    0 -0.42462255250E+01  0.32695702107E+02 -0.39180701538E+02  0.51207096583E+02  0.00000000000E+00 0.  1.
         14    1    6    6    0    0  0.62031046188E+02  0.15051349551E+02  0.33349630607E+01  0.63918039653E+02  0.00000000000E+00 0. -1.
         -5    1    3    3    0  503  0.58721173010E+02 -0.10140806999E+02 -0.85652087261E+02  0.10444798791E+03  0.47000000000E+01 0.  1.
         13    1    4    4    0    0 -0.30386213709E+01  0.19844371106E+02 -0.28641255824E+02  0.34976475232E+02  0.00000000000E+00 0. -1.
        -14    1    4    4    0    0 -0.77953522293E+02 -0.66984888815E+02 -0.13077673599E+03  0.16633184194E+03  0.00000000000E+00 0.  1.
</event>
<event>
12    1  0.8219652E-002  0.2373208E+03  0.7818608E-02  0.1122051E+00
         21   -1    0    0  501  502  0.00000000000E+00  0.00000000000E+00  0.69149859473E+02  0.69149859473E+02  0.00000000000E+00 0. -1.
         21   -1    0    0  502  503 -0.00000000000E+00 -0.00000000000E+00 -0.98163852256E+03  0.98163852256E+03  0.00000000000E+00 0.  1.
         -6    2    1    2    0  503 -0.55325368271E+02  0.14877670131E+03 -0.23565811178E+03  0.33444865766E+03  0.17642492945E+03 0.  0.
        -24    2    3    3    0    0  0.18637578456E+02  0.13177745603E+03 -0.10061393174E+03  0.17946958684E+03  0.66132534284E+02 0.  0.
          6    2    1    2  501    0  0.55325368271E+02 -0.14877670131E+03 -0.67683055131E+03  0.71633972438E+03  0.17276458639E+03 0.  0.
         24    2    5    5    0    0  0.59227352760E+02 -0.70956090193E+02 -0.57633292452E+03  0.58908747100E+03  0.79509512397E+02 0.  0.
          5    1    5    5  501    0 -0.39019844887E+01 -0.77820611120E+02 -0.10049762679E+03  0.12725225338E+03  0.47000000000E+01 0. -1.
        -13    1    6    6    0    0  0.12351229769E+02 -0.51867714796E+02 -0.13966808752E+03  0.14949912169E+03  0.00000000000E+00 0.  1.
         14    1    6    6    0    0  0.46876122991E+02 -0.19088375397E+02 -0.43666483700E+03  0.43958834932E+03  0.00000000000E+00 0. -1.
         -5    1    3    3    0  503 -0.73962946727E+02  0.16999245279E+02 -0.13504418004E+03  0.15497907082E+03  0.47000000000E+01 0.  1.
         11    1    4    4    0    0 -0.55854231234E+01  0.12075895850E+03 -0.90461494378E+02  0.15098743317E+03  0.00000000000E+00 0. -1.
        -12    1    4    4    0    0  0.24223001580E+02  0.11018497534E+02 -0.10152437364E+02  0.28482153673E+02  0.00000000000E+00 0.  1.
</event>
<event>
12    1  0.8219652E-002  0.2696758E+03  0.7818608E-02  0.1101748E+00
         21   -1    0    0  503  502  0.00000000000E+00  0.00000000000E+00  0.78435716832E+03  0.78435716832E+03  0.00000000000E+00 0. -1.
         21   -1    0    0  501  503 -0.00000000000E+00 -0.00000000000E+00 -0.17719681776E+03  0.17719681776E+03  0.00000000000E+00 0. -1.
          6    2    1    2  501    0  0.25020275168E+02 -0.20618884095E+03 -0.29124065047E+02  0.27124393109E+03  0.17200350778E+03 0.  0.
         24    2    3    3    0    0 -0.30637163626E+02 -0.12744013353E+03 -0.66878957274E+02  0.16757797091E+03  0.80187018770E+02 0.  0.
         -6    2    1    2    0  502 -0.25020275168E+02  0.20618884095E+03  0.63628441560E+03  0.69031005499E+03  0.16890903523E+03 0.  0.
        -24    2    5    5    0    0  0.27815332770E+02  0.13362377809E+03  0.27068195347E+03  0.31382029400E+03  0.81150786707E+02 0.  0.
          5    1    3    3  501    0  0.55657438794E+02 -0.78748707419E+02  0.37754892227E+02  0.10366596018E+03  0.47000000000E+01 0. -1.
        -11    1    4    4    0    0 -0.74571860410E+01  0.32806512746E+01  0.10979238385E+02  0.13671721616E+02  0.00000000000E+00 0.  1.
         12    1    4    4    0    0 -0.23179977585E+02 -0.13072078480E+03 -0.77858195658E+02  0.15390624929E+03  0.00000000000E+00 0. -1.
         -5    1    5    5    0  502 -0.52835607938E+02  0.72565062857E+02  0.36560246214E+03  0.37648976099E+03  0.47000000000E+01 0.  1.
         13    1    6    6    0    0  0.41287677985E+02  0.36512801313E+02  0.13993318587E+03  0.15039665396E+03  0.00000000000E+00 0. -1.
        -14    1    6    6    0    0 -0.13472345215E+02  0.97110976776E+02  0.13074876759E+03  0.16342364004E+03  0.00000000000E+00 0.  1.
</event>
<event>
12    1  0.8219652E-002  0.4251913E+03  0.7818608E-02  0.1035390E+00
         21   -1    0    0  503  502  0.00000000000E+00  0.00000000000E+00  0.16345306202E+03  0.16345306202E+03  0.00000000000E+00 0.  1.
         21   -1    0    0  501  503 -0.00000000000E+00 -0.00000000000E+00 -0.12017562420E+04  0.12017562420E+04  0.00000000000E+00 0. -1.
          6    2    1    2  501    0  0.38291301855E+03 -0.68156507792E+02 -0.32651783561E+03  0.53609773963E+03  0.17181152504E+03 0.  0.
         24    2    3    3    0    0  0.31762764266E+03 -0.36934420382E+02 -0.18705927107E+03  0.37891065278E+03  0.79565326054E+02 0.  0.
         -6    2    1    2    0  502 -0.38291301855E+03  0.68156507792E+02 -0.71178534437E+03  0.82911156439E+03  0.17181362114E+03 0.  0.
        -24    2    5    5    0    0 -0.24159042338E+03  0.11711892233E+02 -0.32221147673E+03  0.41084375678E+03  0.80431683190E+02 0.  0.
          5    1    3    3  501    0  0.65285375894E+02 -0.31222087410E+02 -0.13945856454E+03  0.15718708685E+03  0.47000000000E+01 0. -1.
        -11    1    4    4    0    0  0.41601084249E+02  0.19904794316E+02 -0.39909233933E+02  0.60988507119E+02  0.00000000000E+00 0.  1.
         12    1    4    4    0    0  0.27602655841E+03 -0.56839214698E+02 -0.14715003713E+03  0.31792214566E+03  0.00000000000E+00 0. -1.
         -5    1    5    5    0  502 -0.14132259517E+03  0.56444615559E+02 -0.38957386764E+03  0.41826780760E+03  0.47000000000E+01 0.  1.
         13    1    6    6    0    0 -0.93967542264E+02  0.28413668667E+02 -0.79722526123E+02  0.12646310425E+03  0.00000000000E+00 0. -1.
        -14    1    6    6    0    0 -0.14762288112E+03 -0.16701776434E+02 -0.24248895061E+03  0.28438065253E+03  0.00000000000E+00 0.  1.
</event>
<event>
12    1  0.8219652E-002  0.2003153E+03  0.7818608E-02  0.1149664E+00
         21   -1    0    0  503  502  0.00000000000E+00  0.00000000000E+00  0.97798643426E+02  0.97798643426E+02  0.00000000000E+00 0.  1.
         21   -1    0    0  501  503 -0.00000000000E+00 -0.00000000000E+00 -0.56470257437E+03  0.56470257437E+03  0.00000000000E+00 0. -1.
          6    2    1    2  501    0  0.35463350404E+02 -0.95888396101E+02 -0.58820609481E+02  0.20790444008E+03  0.17120793899E+03 0.  0.
         24    2    3    3    0    0  0.89869597674E+02 -0.68355321230E+02 -0.38373325858E+02  0.14341962511E+03  0.79672342768E+02 0.  0.
         -6    2    1    2    0  502 -0.35463350404E+02  0.95888396101E+02 -0.40808332146E+03  0.45459677772E+03  0.17226142728E+03 0.  0.
        -24    2    5    5    0    0 -0.26250073934E+02  0.92942869049E+02 -0.42073454817E+03  0.43799243701E+03  0.74110536155E+02 0.  0.
          5    1    3    3  501    0 -0.54406247270E+02 -0.27533074871E+02 -0.20447283623E+02  0.64484814968E+02  0.47000000000E+01 0. -1.
        -11    1    4    4    0    0  0.61813085501E+02 -0.54962638341E+01  0.46720733546E+01  0.62232585715E+02  0.00000000000E+00 0.  1.
         12    1    4    4    0    0  0.28056512173E+02 -0.62859057396E+02 -0.43045399213E+02  0.81187039393E+02  0.00000000000E+00 0. -1.
         -5    1    5    5    0  502 -0.92132764706E+01  0.29455270517E+01  0.12651226710E+02  0.16604340703E+02  0.47000000000E+01 0.  1.
         11    1    6    6    0    0 -0.21600507879E+02  0.21201068335E+02 -0.26192707696E+03  0.26366998480E+03  0.00000000000E+00 0. -1.
        -12    1    6    6    0    0 -0.46495660553E+01  0.71741800714E+02 -0.15880747121E+03  0.17432245221E+03  0.00000000000E+00 0.  1.
</event>
<event>
12    1  0.8219652E-002  0.2186459E+03  0.7818608E-02  0.1135110E+00
         21   -1    0    0  501  502  0.00000000000E+00  0.00000000000E+00  0.10773094567E+04  0.10773094567E+04  0.00000000000E+00 0.  1.
         21   -1    0    0  502  503 -0.00000000000E+00 -0.00000000000E+00 -0.44680973364E+02  0.44680973364E+02  0.00000000000E+00 0.  1.
         -6    2    1    2    0  503 -0.34428958555E+02 -0.12844982664E+03  0.45625670418E+03  0.50594089567E+03  0.17355488658E+03 0.  0.
        -24    2    3    3    0    0  0.27284575422E+02 -0.10541494961E+02  0.17501057642E+03  0.19476183254E+03  0.80298806857E+02 0.  0.
          6    2    1    2  501    0  0.34428958555E+02  0.12844982664E+03  0.57637177918E+03  0.61604953441E+03  0.17212753954E+03 0.  0.
         24    2    5    5    0    0  0.59840201553E+02  0.13844837205E+03  0.55555032525E+03  0.58138939701E+03  0.81416617617E+02 0.  0.
          5    1    5    5  501    0 -0.25411242998E+02 -0.99985454136E+01  0.20821453926E+02  0.34660137402E+02  0.47000000000E+01 0. -1.
        -11    1    6    6    0    0  0.34092318544E+02  0.13113363600E+03  0.37218613160E+03  0.39608185168E+03  0.00000000000E+00 0.  1.
         12    1    6    6    0    0  0.25747883009E+02  0.73147360460E+01  0.18336419365E+03  0.18530754533E+03  0.00000000000E+00 0. -1.
         -5    1    3    3    0  503 -0.61713533977E+02 -0.11790833168E+03  0.28124612775E+03  0.31117906313E+03  0.47000000000E+01 0.  1.
         13    1    4    4    0    0  0.52492578502E+00  0.32578081244E+02  0.90479808458E+02  0.96167575945E+02  0.00000000000E+00 0. -1.
        -14    1    4    4    0    0  0.26759649637E+02 -0.43119576205E+02  0.84530767966E+02  0.98594256596E+02  0.00000000000E+00 0.  1.
</event>
<event>
12    1  0.8219652E-002  0.1790751E+03  0.7818608E-02  0.1169395E+00
         21   -1    0    0  501  502  0.00000000000E+00  0.00000000000E+00  0.48258894787E+02  0.48258894787E+02  0.00000000000E+00 0.  1.
         21   -1    0    0  502  503 -0.00000000000E+00 -0.00000000000E+00 -0.78134237333E+03  0.78134237333E+03  0.00000000000E+00 0.  1.
         -6    2    1    2    0  503  0.32799522777E+01 -0.44060096842E+02 -0.53639551138E+03  0.56549805532E+03  0.17353920514E+03 0.  0.
        -24    2    3    3    0    0 -0.55649489459E+02  0.97443352562E+01 -0.31542722675E+03  0.33051578189E+03  0.80960045405E+02 0.  0.
          6    2    1    2  501    0 -0.32799522777E+01  0.44060096842E+02 -0.19668796716E+03  0.26410321280E+03  0.17062327029E+03 0.  0.
         24    2    5    5    0    0  0.34696351884E+02  0.21114877687E+01 -0.38142661933E+02  0.95697187694E+02  0.80590283897E+02 0.  0.
          5    1    5    5  501    0 -0.37976304162E+02  0.41948609073E+02 -0.15854530523E+03  0.16840602511E+03  0.47000000000E+01 0. -1.
        -13    1    6    6    0    0  0.68341816730E+01  0.39580286027E+02 -0.10819854711E+02  0.41597768415E+02  0.00000000000E+00 0.  1.
         14    1    6    6    0    0  0.27862170211E+02 -0.37468798259E+02 -0.27322807222E+02  0.54099419279E+02  0.00000000000E+00 0. -1.
         -5    1    3    3    0  503  0.58929441737E+02 -0.53804432098E+02 -0.22096828462E+03  0.23498227343E+03  0.47000000000E+01 0.  1.
         13    1    4    4    0    0  0.18382391880E+02  0.34002221796E+01 -0.11985711667E+03  0.12130623339E+03  0.00000000000E+00 0. -1.
        -14    1    4    4    0    0 -0.74031881339E+02  0.63441130766E+01 -0.19557011008E+03  0.20920954850E+03  0.00000000000E+00 0.  1.
</event>
<event>
12    1  0.8219652E-002  0.1772224E+03  0.7818608E-02  0.1171824E+00
         21   -1    0    0  501  502  0.00000000000E+00  0.00000000000E+00  0.16089420891E+03  0.16089420891E+03  0.00000000000E+00 0.  1.
         21   -1    0    0  502  503 -0.00000000000E+00 -0.00000000000E+00 -0.19025146061E+03  0.19025146061E+03  0.00000000000E+00 0.  1.
         -6    2    1    2    0  503  0.27529890793E+02  0.32934920239E+02 -0.39949136409E+01  0.17726740633E+03  0.17194525337E+03 0.  0.
        -24    2    3    3    0    0 -0.30570753599E+02  0.67575692312E+02 -0.12722191523E+02  0.10890130839E+03  0.78718458098E+02 0.  0.
          6    2    1    2  501    0 -0.27529890793E+02 -0.32934920239E+02 -0.25362338050E+02  0.17387826319E+03  0.16657670413E+03 0.  0.
         24    2    5    5    0    0 -0.74460865391E+02 -0.64332634683E+01 -0.42244001164E+02  0.11720432969E+03  0.79790299602E+02 0.  0.
          5    1    5    5  501    0  0.46930974598E+02 -0.26501656771E+02  0.16881663114E+02  0.56673933495E+02  0.47000000000E+01 0. -1.
        -11    1    6    6    0    0  0.15556761251E+01  0.84687955112E+01 -0.38714544014E+02  0.39660516182E+02  0.00000000000E+00 0.  1.
         12    1    6    6    0    0 -0.76016541516E+02 -0.14902058980E+02 -0.35294571499E+01  0.77543813510E+02  0.00000000000E+00 0. -1.
         -5    1    3    3    0  503  0.58100644391E+02 -0.34640772073E+02  0.87272778823E+01  0.68366097941E+02  0.47000000000E+01 0.  1.
         13    1    4    4    0    0  0.60299646831E+01  0.11332909586E+02 -0.35727632019E+02  0.37963917124E+02  0.00000000000E+00 0. -1.
        -14    1    4    4    0    0 -0.36600718282E+02  0.56242782726E+02  0.23005440496E+02  0.70937391268E+02  0.00000000000E+00 0.  1.
</event>
<event>
12    1  0.8219652E-002  0.1822753E+03  0.7818608E-02  0.1166245E+00
         21   -1    0    0  503  502  0.00000000000E+00  0.00000000000E+00  0.19308367824E+03  0.19308367824E+03  0.00000000000E+00 0. -1.
         21   -1    0    0  501  503 -0.00000000000E+00 -0.00000000000E+00 -0.17952240585E+03  0.17952240585E+03  0.00000000000E+00 0. -1.
          6    2    1    2  501    0 -0.50055954493E+02 -0.20547545689E+02  0.50583492453E+02  0.18916391036E+03  0.17405888389E+03 0.  0.
         24    2    3    3    0    0  0.17630060693E+02 -0.19405806602E+01 -0.25063382668E+02  0.85857785107E+02  0.80179805558E+02 0.  0.
         -6    2    1    2    0  502  0.50055954493E+02  0.20547545689E+02 -0.37022220068E+02  0.18344217372E+03  0.17132596449E+03 0.  0.
        -24    2    5    5    0    0  0.55870673824E+02 -0.36818155727E+02  0.14941611757E+02  0.10567994332E+03  0.80423192382E+02 0.  0.
          5    1    3    3  501    0 -0.67686015187E+02 -0.18606965029E+02  0.75646875122E+02  0.10330612525E+03  0.47000000000E+01 0. -1.
        -13    1    4    4    0    0 -0.16461095476E+02 -0.30015383018E+02 -0.23768748028E+02  0.41675463583E+02  0.00000000000E+00 0.  1.
         14    1    4    4    0    0  0.34091156170E+02  0.28074802358E+02 -0.12946346403E+01  0.44182321524E+02  0.00000000000E+00 0. -1.
         -5    1    5    5    0  502 -0.58147193303E+01  0.57365701417E+02 -0.51963831825E+02  0.77762230407E+02  0.47000000000E+01 0.  1.
         13    1    6    6    0    0  0.52447728192E+02 -0.47240696100E+02 -0.16406225757E+02  0.72468005382E+02  0.00000000000E+00 0. -1.
        -14    1    6    6    0    0  0.34229456316E+01  0.10422540372E+02  0.31347837514E+02  0.33211937935E+02  0.00000000000E+00 0.  1.
</event>
<event>
12    1  0.8219652E-002  0.2396663E+03  0.7818608E-02  0.1120700E+00
         21   -1    0    0  503  502  0.00000000000E+00  0.00000000000E+00  0.26204329757E+03  0.26204329757E+03  0.00000000000E+00 0. -1.
         21   -1    0    0  501  503 -0.00000000000E+00 -0.00000000000E+00 -0.24410199531E+03  0.24410199531E+03  0.00000000000E+00 0. -1.
          6    2    1    2  501    0  0.12790783571E+03  0.98075792936E+02 -0.77729822922E+02  0.24808926631E+03  0.17183446421E+03 0.  0.
         24    2    3    3    0    0  0.52543166562E+02 -0.41981335857E+01  0.47816216380E+01  0.96530637767E+02  0.80727265804E+02 0.  0.
         -6    2    1    2    0  502 -0.12790783571E+03 -0.98075792936E+02  0.95671125178E+02  0.25805602658E+03  0.17737156780E+03 0.  0.
        -24    2    5    5    0    0 -0.55922589815E+02  0.17577637384E+02  0.65162615713E+02  0.11837621157E+03  0.79564135082E+02 0.  0.
          5    1    3    3  501    0  0.75364669144E+02  0.10227392652E+03 -0.82511444560E+02  0.15155862854E+03  0.47000000000E+01 0. -1.
        -13    1    4    4    0    0  0.37772022568E+02  0.28989636227E+01 -0.36197374321E+02  0.52396369976E+02  0.00000000000E+00 0.  1.
         14    1    4    4    0    0  0.14771143995E+02 -0.70970972083E+01  0.40978995959E+02  0.44134267791E+02  0.00000000000E+00 0. -1.
         -5    1    5    5    0  502 -0.71985245892E+02 -0.11565343032E+03  0.30508509465E+02  0.13967981501E+03  0.47000000000E+01 0.  1.
         11    1    6    6    0    0 -0.71456607651E+02  0.14431937931E+02  0.28208727953E+02  0.78166872409E+02  0.00000000000E+00 0. -1.
        -12    1    6    6    0    0  0.15534017836E+02  0.31456994523E+01  0.36953887760E+02  0.40209339161E+02  0.00000000000E+00 0.  1.
</event>
<event>
12    1  0.8219652E-002  0.2179538E+03  0.7818608E-02  0.1135522E+00
         21   -1    0    0  501  502  0.00000000000E+00  0.00000000000E+00  0.99711768104E+02  0.99711768104E+02  0.00000000000E+00 0. -1.
         21   -1    0    0  502  503 -0.00000000000E+00 -0.00000000000E+00 -0.74394155762E+03  0.74394155762E+03  0.00000000000E+00 0.  1.
         -6    2    1    2    0  503  0.64631073109E+02 -0.11543348252E+03 -0.57538115566E+03  0.61508386609E+03  0.17251847303E+03 0.  0.
        -24    2    3    3    0    0  0.96501895747E+02 -0.99430234488E+02 -0.54482857752E+03  0.56788849223E+03  0.80375203301E+02 0.  0.
          6    2    1    2  501    0 -0.64631073109E+02  0.11543348252E+03 -0.68848633858E+02  0.22856945964E+03  0.17321027394E+03 0.  0.
         24    2    5    5    0    0 -0.86817953104E+02  0.83532533771E+02 -0.10321533784E+03  0.17648214335E+03  0.77314292193E+02 0.  0.
          5    1    5    5  501    0  0.22186879995E+02  0.31900948748E+02  0.34366703984E+02  0.52087316284E+02  0.47000000000E+01 0. -1.
        -11    1    6    6    0    0 -0.66534661415E+02  0.45766712290E+02 -0.20497748264E+02  0.83316329776E+02  0.00000000000E+00 0.  1.
         12    1    6    6    0    0 -0.20283291689E+02  0.37765821481E+02 -0.82717589578E+02  0.93165813577E+02  0.00000000000E+00 0. -1.
         -5    1    3    3    0  503 -0.31870822638E+02 -0.16003248031E+02 -0.30552578136E+02  0.47195373861E+02  0.47000000000E+01 0.  1.
         13    1    4    4    0    0  0.27811731112E+02  0.24855126667E+01 -0.43315958310E+02  0.51535836123E+02  0.00000000000E+00 0. -1.
        -14    1    4    4    0    0  0.68690164635E+02 -0.10191574715E+03 -0.50151261921E+03  0.51635265610E+03  0.00000000000E+00 0.  1.
</event>
<event>
12    1  0.8219652E-002  0.1989197E+03  0.7818608E-02  0.1151427E+00
         21   -1    0    0  501  502  0.00000000000E+00  0.00000000000E+00  0.28347523911E+03  0.28347523911E+03  0.00000000000E+00 0. -1.
         21   -1    0    0  502  503 -0.00000000000E+00 -0.00000000000E+00 -0.14711852068E+03  0.14711852068E+03  0.00000000000E+00 0. -1.
         -6    2    1    2    0  503  0.71339025505E+02 -0.59995222691E+02  0.11322283449E+02  0.19564129991E+03  0.17163519692E+03 0.  0.
        -24    2    3    3    0    0  0.10190201279E+03 -0.83768354273E+02 -0.61128581473E+01  0.15291739396E+03  0.77105155168E+02 0.  0.
          6    2    1    2  501    0 -0.71339025505E+02  0.59995222691E+02  0.12503443498E+03  0.23495245988E+03  0.17572810010E+03 0.  0.
         24    2    5    5    0    0  0.23470283861E+02  0.57789732175E+02  0.46643454284E+02  0.11182283231E+03  0.80238560732E+02 0.  0.
          5    1    5    5  501    0 -0.94809309366E+02  0.22054905163E+01  0.78390980699E+02  0.12312962757E+03  0.47000000000E+01 0. -1.
        -11    1    6    6    0    0  0.22632064400E+01  0.15478860890E+02 -0.22881412086E+02  0.27717796754E+02  0.00000000000E+00 0.  1.
         12    1    6    6    0    0  0.21207077421E+02  0.42310871285E+02  0.69524866370E+02  0.84105035553E+02  0.00000000000E+00 0. -1.
         -5    1    3    3    0  503 -0.30562987285E+02  0.23773131582E+02  0.17435141596E+02  0.42723905948E+02  0.47000000000E+01 0.  1.
         11    1    4    4    0    0  0.42392634575E+02  0.40643132368E+00 -0.23350632015E+02  0.48399924258E+02  0.00000000000E+00 0. -1.
        -12    1    4    4    0    0  0.59509378215E+02 -0.84174785597E+02  0.17237773867E+02  0.10451746971E+03  0.00000000000E+00 0.  1.
</event>
<event>
12    1  0.8219652E-002  0.1776844E+03  0.7818608E-02  0.1170091E+00
         21   -1    0    0  501  502  0.00000000000E+00  0.00000000000E+00  0.11763021234E+03  0.11763021234E+03  0.00000000000E+00 0. -1.
         21   -1    0    0  502  503 -0.00000000000E+00 -0.00000000000E+00 -0.30544474179E+03  0.30544474179E+03  0.00000000000E+00 0. -1.
         -6    2    1    2    0  503  0.41828195166E+02 -0.81057113265E+01 -0.16772270839E+03  0.24425823849E+03  0.17238294490E+03 0.  0.
        -24    2    3    3    0    0  0.36934124261E+01 -0.42657751494E+02 -0.27786025425E+02  0.95085619101E+02  0.80223978292E+02 0.  0.
          6    2    1    2  501    0 -0.41828195166E+02  0.81057113265E+01 -0.20091821062E+02  0.17881671565E+03  0.17250053929E+03 0.  0.
         24    2    5    5    0    0 -0.65155128143E+02  0.56375441379E+02 -0.37772879439E+02  0.12217024650E+03  0.77944836872E+02 0.  0.
          5    1    5    5  501    0  0.23326932976E+02 -0.48269730052E+02  0.17681058376E+02  0.56646469146E+02  0.47000000000E+01 0. -1.
        -13    1    6    6    0    0 -0.16140490068E+02 -0.11922374557E+02 -0.32173666976E+02  0.37918376567E+02  0.00000000000E+00 0.  1.
         14    1    6    6    0    0 -0.49014638074E+02  0.68297815936E+02 -0.55992124621E+01  0.84251869934E+02  0.00000000000E+00 0. -1.
         -5    1    3    3    0  503  0.38134782740E+02  0.34552040167E+02 -0.13993668297E+03  0.14917261938E+03  0.47000000000E+01 0.  1.
         11    1    4    4    0    0 -0.18910401919E+02 -0.51607783521E+02  0.39533698240E+01  0.55105315113E+02  0.00000000000E+00 0. -1.
        -12    1    4    4    0    0  0.22603814345E+02  0.89500320273E+01 -0.31739395249E+02  0.39980303988E+02  0.00000000000E+00 0.  1.
</event>
<event>
12    1  0.8219652E-002  0.1834679E+03  0.7818608E-02  0.1165002E+00
         21   -1    0    0  503  502  0.00000000000E+00  0.00000000000E+00  0.81492773897E+03  0.81492773897E+03  0.00000000000E+00 0. -1.
         21   -1    0    0  501  503 -0.00000000000E+00 -0.00000000000E+00 -0.40937771372E+02  0.40937771372E+02  0.00000000000E+00 0. -1.
          6    2    1    2  501    0  0.51985027438E+02  0.26841234629E+02  0.41228317077E+03  0.45126253803E+03  0.17388953499E+03 0.  0.
         24    2    3    3    0    0  0.29610774844E+02  0.64088507138E+02  0.38047970184E+03  0.39721147769E+03  0.89599217415E+02 0.  0.
         -6    2    1    2    0  502 -0.51985027438E+02 -0.26841234629E+02  0.36170679682E+03  0.40460297231E+03  0.17160671134E+03 0.  0.
        -24    2    5    5    0    0 -0.46198863249E+02 -0.41935137621E+02  0.37151164568E+03  0.38512142553E+03  0.80029487064E+02 0.  0.
          5    1    3    3  501    0  0.22374252594E+02 -0.37247272509E+02  0.31803468933E+02  0.54051060347E+02  0.47000000000E+01 0. -1.
        -13    1    4    4    0    0  0.55287581205E+02  0.67797696503E+02  0.31004491434E+03  0.32215073055E+03  0.00000000000E+00 0.  1.
         14    1    4    4    0    0 -0.25676806361E+02 -0.37091893653E+01  0.70434787501E+02  0.75060747138E+02  0.00000000000E+00 0. -1.
         -5    1    5    5    0  502 -0.57861641886E+01  0.15093902993E+02 -0.98048488522E+01  0.19481546771E+02  0.47000000000E+01 0.  1.
         11    1    6    6    0    0 -0.94943128260E+01 -0.53614640641E+02  0.13623730485E+03  0.14671494437E+03  0.00000000000E+00 0. -1.
        -12    1    6    6    0    0 -0.36704550423E+02  0.11679503020E+02  0.23527434082E+03  0.23840648117E+03  0.00000000000E+00 0.  1.
</event>
<event>
12    1  0.8219652E-002  0.2301408E+03  0.7818608E-02  0.1126794E+00
         21   -1    0    0  503  502  0.00000000000E+00  0.00000000000E+00  0.60133960444E+03  0.60133960444E+03  0.00000000000E+00 0. -1.
         21   -1    0    0  501  503 -0.00000000000E+00 -0.00000000000E+00 -0.10532111132E+03  0.10532111132E+03  0.00000000000E+00 0. -1.
          6    2    1    2  501    0  0.73158108676E+00 -0.15210621883E+03  0.10343159472E+03  0.25231502105E+03  0.17270766643E+03 0.  0.
         24    2    3    3    0    0 -0.28282333481E+02 -0.16075141510E+03  0.11981865815E+03  0.21757063294E+03  0.79621364184E+02 0.  0.
         -6    2    1    2    0  502 -0.73158108676E+00  0.15210621883E+03  0.39258689841E+03  0.45434569470E+03  0.17078846706E+03 0.  0.
        -24    2    5    5    0    0  0.61530938949E+02  0.64882847795E+02  0.17935299956E+03  0.21565065188E+03  0.79635826208E+02 0.  0.
          5    1    3    3  501    0  0.29013914567E+02  0.86451962675E+01 -0.16387063436E+02  0.34744388109E+02  0.47000000000E+01 0. -1.
        -11    1    4    4    0    0  0.27569455787E+02 -0.41378602925E+02  0.29780579147E+02  0.57958144956E+02  0.00000000000E+00 0.  1.
         12    1    4    4    0    0 -0.55851789267E+02 -0.11937281217E+03  0.90038079005E+02  0.15961248799E+03  0.00000000000E+00 0. -1.
         -5    1    5    5    0  502 -0.62262520036E+02  0.87223371035E+02  0.21323389884E+03  0.23869504283E+03  0.47000000000E+01 0.  1.
         13    1    6    6    0    0  0.34132268818E+02  0.24675462255E+02  0.15617939531E+03  0.16175875164E+03  0.00000000000E+00 0. -1.
        -14    1    6    6    0    0  0.27398670132E+02  0.40207385540E+02  0.23173604252E+02  0.53891900235E+02  0.00000000000E+00 0.  1.
</event>
<event>
12    1  0.8219652E-002  0.2906828E+03  0.7818608E-02  0.1090113E+00
         21   -1    0    0  503  502  0.00000000000E+00  0.00000000000E+00  0.84679537954E+02  0.84679537954E+02  0.00000000000E+00 0.  1.
         21   -1    0    0  501  503 -0.00000000000E+00 -0.00000000000E+00 -0.11706835797E+04  0.11706835797E+04  0.00000000000E+00 0.  1.
          6    2    1    2  501    0  0.20629213241E+03  0.11031399097E+03 -0.78564037448E+03  0.83737410997E+03  0.17099409796E+03 0.  0.
         24    2    3    3    0    0  0.75127940792E+02  0.10625806388E+02 -0.45183657018E+03  0.46509887702E+03  0.80022271890E+02 0.  0.
         -6    2    1    2    0  502 -0.20629213241E+03 -0.11031399097E+03 -0.30036366729E+03  0.41798900771E+03  0.17254233521E+03 0.  0.
        -24    2    5    5    0    0 -0.12935392989E+03 -0.12151027104E+02 -0.22856573043E+03  0.27400120191E+03  0.77163974005E+02 0.  0.
          5    1    3    3  501    0  0.13116419162E+03  0.99688184579E+02 -0.33380380430E+03  0.37227523295E+03  0.47000000000E+01 0. -1.
        -11    1    4    4    0    0  0.92007526581E+02  0.10545798766E+02 -0.40010283852E+03  0.41068099568E+03  0.00000000000E+00 0.  1.
         12    1    4    4    0    0 -0.16879585789E+02  0.80007621963E-01 -0.51733731667E+02  0.54417881343E+02  0.00000000000E+00 0. -1.
         -5    1    5    5    0  502 -0.76938202517E+02 -0.98162963863E+02 -0.71797936863E+02  0.14398780580E+03  0.47000000000E+01 0.  1.
         11    1    6    6    0    0 -0.12039657221E+03  0.12956403123E+02 -0.16168062868E+03  0.20199957593E+03  0.00000000000E+00 0. -1.
        -12    1    6    6    0    0 -0.89573576804E+01 -0.25107430227E+02 -0.66885101747E+02  0.72001625988E+02  0.00000000000E+00 0.  1.
</event>
<event>
12    1  0.8219652E-002  0.1786298E+03  0.7818608E-02  0.1169489E+00
         21   -1    0    0  501  502  0.00000000000E+00  0.00000000000E+00  0.26339500951E+03  0.26339500951E+03  0.00000000000E+00 0. -1.
         21   -1    0    0  502  503 -0.00000000000E+00 -0.00000000000E+00 -0.14026486320E+03  0.14026486320E+03  0.00000000000E+00 0. -1.
         -6    2    1    2    0  503 -0.35327803192E+02 -0.38126111527E+02 -0.15043475486E+02  0.17782683673E+03  0.16939428458E+03 0.  0.
        -24    2    3    3    0    0 -0.73069286486E+02 -0.57177000443E+02  0.19064306917E+02  0.12330356876E+03  0.78942968428E+02 0.  0.
          6    2    1    2  501    0  0.35327803192E+02  0.38126111527E+02  0.13817362180E+03  0.22583303597E+03  0.17090042807E+03 0.  0.
         24    2    5    5    0    0  0.81010728712E+01 -0.35080342364E+02  0.35647748043E+02  0.96859687853E+02  0.82551677078E+02 0.  0.
          5    1    5    5  501    0  0.27226730321E+02  0.73206453891E+02  0.10252587375E+03  0.12897334812E+03  0.47000000000E+01 0. -1.
        -11    1    6    6    0    0  0.16608398187E+01  0.70346994773E+01  0.51047961274E+02  0.51557150191E+02  0.00000000000E+00 0.  1.
         12    1    6    6    0    0  0.64402330526E+01 -0.42115041842E+02 -0.15400213231E+02  0.45302537662E+02  0.00000000000E+00 0. -1.
         -5    1    3    3    0  503  0.37741483295E+02  0.19050888916E+02 -0.34107782403E+02  0.54523267971E+02  0.47000000000E+01 0.  1.
         11    1    4    4    0    0 -0.48424817445E+02 -0.73442916702E+02 -0.33784649780E+00  0.87971240179E+02  0.00000000000E+00 0. -1.
        -12    1    4    4    0    0 -0.24644469041E+02  0.16265916259E+02  0.19402153415E+02  0.35332328584E+02  0.00000000000E+00 0.  1.
</event>
<event>
12    1  0.8219652E-002  0.1754770E+03  0.7818608E-02  0.1172449E+00
         21   -1    0    0  503  502  0.00000000000E+00  0.00000000000E+00  0.63987344335E+03  0.63987344335E+03  0.00000000000E+00 0.  1.
         21   -1    0    0  501  503 -0.00000000000E+00 -0.00000000000E+00 -0.49033730720E+02  0.49033730720E+02  0.00000000000E+00 0.  1.
          6    2    1    2  501    0  0.31496074512E+02  0.32379474236E+01  0.24389386327E+03  0.30046030972E+03  0.17259691239E+03 0.  0.
         24    2    3    3    0    0  0.32691894241E+02  0.30489565738E+02  0.51043050238E+02  0.10563318951E+03  0.80960510004E+02 0.  0.
         -6    2    1    2    0  502 -0.31496074512E+02 -0.32379474236E+01  0.34694584936E+03  0.38844686435E+03  0.17180528809E+03 0.  0.
        -24    2    5    5    0    0  0.20560615722E+02 -0.37000027350E+02  0.10312231501E+03  0.13680866584E+03  0.79313670038E+02 0.  0.
          5    1    3    3  501    0 -0.11958197289E+01 -0.27251618315E+02  0.19285081303E+03  0.19482712021E+03  0.47000000000E+01 0. -1.
        -13    1    4    4    0    0  0.90296413375E+01 -0.26338092670E+02  0.39364060686E+01  0.28119830030E+02  0.00000000000E+00 0.  1.
         14    1    4    4    0    0  0.23662252903E+02  0.56827658409E+02  0.47106644169E+02  0.77513359478E+02  0.00000000000E+00 0. -1.
         -5    1    5    5    0  502 -0.52056690234E+02  0.33762079926E+02  0.24382353436E+03  0.25163819850E+03  0.47000000000E+01 0.  1.
         11    1    6    6    0    0  0.35602798263E+02 -0.43073251226E+02  0.10647042498E+03  0.12024481532E+03  0.00000000000E+00 0. -1.
        -12    1    6    6    0    0 -0.15042182541E+02  0.60732238764E+01 -0.33481099740E+01  0.16563850526E+02  0.00000000000E+00 0.  1.
</event>
<event>
12    1  0.8219652E-002  0.1848534E+03  0.7818608E-02  0.1167160E+00
         21   -1    0    0  501  502  0.00000000000E+00  0.00000000000E+00  0.28554803073E+03  0.28554803073E+03  0.00000000000E+00 0. -1.
         21   -1    0    0  502  503 -0.00000000000E+00 -0.00000000000E+00 -0.15472684264E+03  0.15472684264E+03  0.00000000000E+00 0. -1.
         -6    2    1    2    0  503 -0.36846421606E+02  0.25918279641E+02 -0.51510355399E+02  0.19189609913E+03  0.17928017220E+03 0.  0.
        -24    2    3    3    0    0 -0.87374861350E+02 -0.18096482131E+02 -0.30144482753E+02  0.12140487279E+03  0.76606815855E+02 0.  0.
          6    2    1    2  501    0  0.36846421606E+02 -0.25918279641E+02  0.18233154349E+03  0.24837877424E+03  0.16253555838E+03 0.  0.
         24    2    5    5    0    0  0.46198862012E+02  0.25426874137E+02  0.48498884202E+02  0.10465312013E+03  0.76284159585E+02 0.  0.
          5    1    5    5  501    0 -0.93524404068E+01 -0.51345153778E+02  0.13383265929E+03  0.14372565411E+03  0.47000000000E+01 0. -1.
        -11    1    6    6    0    0 -0.77411051279E+01 -0.12205536901E+02 -0.92233470303E+01  0.17145552487E+02  0.00000000000E+00 0.  1.
         12    1    6    6    0    0  0.53939967140E+02  0.37632411038E+02  0.57722231232E+02  0.87507567639E+02  0.00000000000E+00 0. -1.
         -5    1    3    3    0  503  0.50528439745E+02  0.44014761771E+02 -0.21365872646E+02  0.70491226339E+02  0.47000000000E+01 0.  1.
         13    1    4    4    0    0 -0.18316585952E+02 -0.18115527377E+02 -0.43984333237E+02  0.50973436449E+02  0.00000000000E+00 0. -1.
        -14    1    4    4    0    0 -0.69058275398E+02  0.19045246386E-01  0.13839850485E+02  0.70431436342E+02  0.00000000000E+00 0.  1.
</event>
<event>
12    1  0.8219652E-002  0.1720696E+03  0.7818608E-02  0.1175900E+00
         21   -1    0    0  503  502  0.00000000000E+00  0.00000000000E+00  0.25125139357E+02  0.25125139357E+02  0.00000000000E+00 0.  1.
         21   -1    0    0  501  503 -0.00000000000E+00 -0.00000000000E+00 -0.12212720788E+04  0.12212720788E+04  0.00000000000E+00 0.  1.
          6    2    1    2  501    0  0.66160370335E+01 -0.38774319805E+01 -0.47326537671E+03  0.50331869608E+03  0.17114551296E+03 0.  0.
         24    2    3    3    0    0 -0.55130524207E+01 -0.34830578387E+02 -0.12109773739E+03  0.14955415818E+03  0.80363059255E+02 0.  0.
         -6    2    1    2    0  502 -0.66160370335E+01  0.38774319805E+01 -0.72288156274E+03  0.74307852208E+03  0.17189860328E+03 0.  0.
        -24    2    5    5    0    0  0.31252513210E+02 -0.45439340170E+02 -0.58036064976E+03  0.58751351398E+03  0.72884786422E+02 0.  0.
          5    1    3    3  501    0  0.12129089454E+02  0.30953146407E+02 -0.35216763933E+03  0.35376453790E+03  0.47000000000E+01 0. -1.
        -13    1    4    4    0    0  0.29607128799E+02 -0.94951209784E+01 -0.14128961059E+02  0.34152114703E+02  0.00000000000E+00 0.  1.
         14    1    4    4    0    0 -0.35120181219E+02 -0.25335457409E+02 -0.10696877633E+03  0.11540204348E+03  0.00000000000E+00 0. -1.
         -5    1    5    5    0  502 -0.37868550243E+02  0.49316772150E+02 -0.14252091297E+03  0.15556500811E+03  0.47000000000E+01 0.  1.
         11    1    6    6    0    0 -0.16995625567E+01  0.99084954435E+01 -0.12640766713E+02  0.16151030244E+02  0.00000000000E+00 0. -1.
        -12    1    6    6    0    0  0.32952075766E+02 -0.55347835613E+02 -0.56771988305E+03  0.57136248373E+03  0.00000000000E+00 0.  1.
</event>
<event>
12    1  0.8219652E-002  0.2064716E+03  0.7818608E-02  0.1144497E+00
         21   -1    0    0  503  502  0.00000000000E+00  0.00000000000E+00  0.61901590109E+03  0.61901590109E+03  0.00000000000E+00 0.  1.
         21   -1    0    0  501  503 -0.00000000000E+00 -0.00000000000E+00 -0.70810696743E+02  0.70810696743E+02  0.00000000000E+00 0. -1.
          6    2    1    2  501    0 -0.11069065874E+03 -0.25006571049E+02  0.21413032698E+03  0.29709697751E+03  0.17186351150E+03 0.  0.
         24    2    3    3    0    0 -0.26329903723E+02 -0.11843933603E+02  0.17519646444E+03  0.20313992528E+03  0.98683765124E+02 0.  0.
         -6    2    1    2    0  502  0.11069065874E+03  0.25006571049E+02  0.33407487736E+03  0.39272962032E+03  0.17248994308E+03 0.  0.
        -24    2    5    5    0    0  0.78253218478E+01 -0.11797394628E+02  0.73825674338E+02  0.11043979213E+03  0.80909228844E+02 0.  0.
          5    1    3    3  501    0 -0.84360755015E+02 -0.13162637446E+02  0.38933862546E+02  0.93957052232E+02  0.47000000000E+01 0. -1.
        -11    1    4    4    0    0 -0.38455796626E+02 -0.25384358458E+02  0.26134444508E+02  0.52973796713E+02  0.00000000000E+00 0.  1.
         12    1    4    4    0    0  0.12125892903E+02  0.13540424855E+02  0.14906201993E+03  0.15016612857E+03  0.00000000000E+00 0. -1.
         -5    1    5    5    0  502  0.10286533689E+03  0.36803965678E+02  0.26024920302E+03  0.28228982819E+03  0.47000000000E+01 0.  1.
         13    1    6    6    0    0  0.35472930041E+02 -0.40163888075E+01  0.52388080126E+01  0.36081924202E+02  0.00000000000E+00 0. -1.
        -14    1    6    6    0    0 -0.27647608193E+02 -0.77810058210E+01  0.68586866325E+02  0.74357867927E+02  0.00000000000E+00 0.  1.
</event>
<event>
12    1  0.8219652E-002  0.1998878E+03  0.7818608E-02  0.1150457E+00
         21   -1    0    0  503  502  0.00000000000E+00  0.00000000000E+00  0.14813901727E+03  0.14813901727E+03  0.00000000000E+00 0.  1.
         21   -1    0    0  501  503 -0.00000000000E+00 -0.00000000000E+00 -0.26585814268E+03  0.26585814268E+03  0.00000000000E+00 0.  1.
          6    2    1    2  501    0  0.83106671671E+02  0.48817747924E+02 -0.62926752699E+02  0.20955888884E+03  0.17511499164E+03 0.  0.
         24    2    3    3    0    0  0.92784903580E+02 -0.98908723610E+01 -0.80932361229E+02  0.14721578812E+03  0.80097275171E+02 0.  0.
         -6    2    1    2    0  502 -0.83106671671E+02 -0.48817747924E+02 -0.54792372702E+02  0.20443827111E+03  0.17176411499E+03 0.  0.
        -24    2    5    5    0    0 -0.12447861318E+03 -0.42016346459E+02 -0.52201320038E+02  0.16216889496E+03  0.79457373297E+02 0.  0.
          5    1    3    3  501    0 -0.96782319086E+01  0.58708620285E+02  0.18005608529E+02  0.62343100718E+02  0.47000000000E+01 0. -1.
        -11    1    4    4    0    0  0.55847330734E+02 -0.41594410771E+02 -0.27321615361E+02  0.74803008117E+02  0.00000000000E+00 0.  1.
         12    1    4    4    0    0  0.36937572846E+02  0.31703538410E+02 -0.53610745867E+02  0.72412780004E+02  0.00000000000E+00 0. -1.
         -5    1    5    5    0  502  0.41371941508E+02 -0.68014014647E+01 -0.25910526640E+01  0.42269376147E+02  0.47000000000E+01 0.  1.
         13    1    6    6    0    0 -0.34564748593E+02  0.11307953730E+00  0.19505951989E+02  0.39689000935E+02  0.00000000000E+00 0. -1.
        -14    1    6    6    0    0 -0.89913864586E+02 -0.42129425996E+02 -0.71707272027E+02  0.12247989403E+03  0.00000000000E+00 0.  1.
</event>
<event>
12    1  0.8219652E-002  0.2392976E+03  0.7818608E-02  0.1120268E+00
         21   -1    0    0  503  502  0.00000000000E+00  0.00000000000E+00  0.72861438870E+03  0.72861438870E+03  0.00000000000E+00 0.  1.
         21   -1    0    0  501  503 -0.00000000000E+00 -0.00000000000E+00 -0.98306350306E+02  0.98306350306E+02  0.00000000000E+00 0.  1.
          6    2    1    2  501    0 -0.12347971417E+03 -0.11204890480E+03  0.12996368921E+03  0.27231215770E+03  0.17164251758E+03 0.  0.
         24    2    3    3    0    0 -0.13463963955E+03 -0.14054968034E+03  0.10406583562E+03  0.23194351936E+03  0.71316567831E+02 0.  0.
         -6    2    1    2    0  502  0.12347971417E+03  0.11204890480E+03  0.50034434918E+03  0.55460858131E+03  0.17159258091E+03 0.  0.
        -24    2    5    5    0    0  0.13002903100E+03  0.10773229212E+03  0.29976202674E+03  0.35381793219E+03  0.82559437967E+02 0.  0.
          5    1    3    3  501    0  0.11159925383E+02  0.28500775541E+02  0.25897853591E+02  0.40368638342E+02  0.47000000000E+01 0. -1.
        -13    1    4    4    0    0 -0.66090095490E+02 -0.24309027155E+02  0.50952993997E+02  0.86919716523E+02  0.00000000000E+00 0.  1.
         14    1    4    4    0    0 -0.68549544059E+02 -0.11624065319E+03  0.53112841627E+02  0.14502380284E+03  0.00000000000E+00 0. -1.
         -5    1    5    5    0  502 -0.65493168324E+01  0.43166126800E+01  0.20058232244E+03  0.20079064912E+03  0.47000000000E+01 0.  1.
         11    1    6    6    0    0 -0.34855448392E+01  0.15690005635E+02  0.74749678275E+02  0.76458091148E+02  0.00000000000E+00 0. -1.
        -12    1    6    6    0    0  0.13351457584E+03  0.92042286485E+02  0.22501234846E+03  0.27735984104E+03  0.00000000000E+00 0.  1.
</event>
<event>
12    1  0.8219652E-002  0.1744993E+03  0.7818608E-02  0.1173563E+00
         21   -1    0    0  501  502  0.00000000000E+00  0.00000000000E+00  0.62618701647E+02  0.62618701647E+02  0.00000000000E+00 0.  1.
         21   -1    0    0  502  503 -0.00000000000E+00 -0.00000000000E+00 -0.54003101664E+03  0.54003101664E+03  0.00000000000E+00 0.  1.
         -6    2    1    2    0  503 -0.22356645608E+02 -0.10357268386E+02 -0.14130161108E+03  0.22453544418E+03  0.17275105727E+03 0.  0.
        -24    2    3    3    0    0 -0.11678770869E+02  0.54289801659E+02 -0.40867012675E+02  0.10452519782E+03  0.78559709785E+02 0.  0.
          6    2    1    2  501    0  0.22356645608E+02  0.10357268386E+02 -0.33611070392E+03  0.37811427411E+03  0.17144359535E+03 0.  0.
         24    2    5    5    0    0  0.30919799859E+02 -0.52595791220E+02 -0.26320047253E+03  0.28129275189E+03  0.78286475510E+02 0.  0.
          5    1    5    5  501    0 -0.85631542502E+01  0.62953059606E+02 -0.72910231389E+02  0.96821522223E+02  0.47000000000E+01 0. -1.
        -11    1    6    6    0    0 -0.16898209181E+02 -0.24406775692E+02 -0.17188607931E+03  0.17443068662E+03  0.00000000000E+00 0.  1.
         12    1    6    6    0    0  0.47818009039E+02 -0.28189015528E+02 -0.91314393221E+02  0.10686206527E+03  0.00000000000E+00 0. -1.
         -5    1    3    3    0  503 -0.10677874739E+02 -0.64647070045E+02 -0.10043459840E+03  0.12001024636E+03  0.47000000000E+01 0.  1.
         13    1    4    4    0    0  0.62305179359E+01  0.43835463910E+02 -0.61164179908E+02  0.75507775453E+02  0.00000000000E+00 0. -1.
        -14    1    4    4    0    0 -0.17909288805E+02  0.10454337749E+02  0.20297167233E+02  0.29017422370E+02  0.00000000000E+00 0.  1.
</event>
<event>
12    1  0.8219652E-002  0.2143664E+03  0.7818608E-02  0.1138271E+00
         21   -1    0    0  501  502  0.00000000000E+00  0.00000000000E+00  0.29666845950E+03  0.29666845950E+03  0.00000000000E+00 0.  1.
         21   -1    0    0  502  503 -0.00000000000E+00 -0.00000000000E+00 -0.17803422336E+03  0.17803422336E+03  0.00000000000E+00 0. -1.
         -6    2    1    2    0  503  0.12764886215E+03 -0.77150591518E+01 -0.27124240773E+02  0.21547599084E+03  0.17129046688E+03 0.  0.
        -24    2    3    3    0    0  0.31704948324E+02 -0.25197732342E+02  0.39251458865E+02  0.97413710811E+02  0.79426850419E+02 0.  0.
          6    2    1    2  501    0 -0.12764886215E+03  0.77150591518E+01  0.14575847692E+03  0.25922669202E+03  0.17204415165E+03 0.  0.
         24    2    5    5    0    0 -0.67482309723E+02 -0.62009021478E+02  0.88379293322E+02  0.15061765850E+03  0.80472347394E+02 0.  0.
          5    1    5    5  501    0 -0.60166552429E+02  0.69724080630E+02  0.57379183594E+02  0.10860903351E+03  0.47000000000E+01 0. -1.
        -13    1    6    6    0    0 -0.10448905131E+02 -0.19851899062E+02  0.75207547807E+02  0.78482181174E+02  0.00000000000E+00 0.  1.
         14    1    6    6    0    0 -0.57033404592E+02 -0.42157122417E+02  0.13171745516E+02  0.72135477330E+02  0.00000000000E+00 0. -1.
         -5    1    3    3    0  503  0.95943913827E+02  0.17482673191E+02 -0.66375699638E+02  0.11806228003E+03  0.47000000000E+01 0.  1.
         11    1    4    4    0    0  0.54541262408E+01 -0.53946547108E+01 -0.24504622388E+02  0.25677350153E+02  0.00000000000E+00 0. -1.
        -12    1    4    4    0    0  0.26250822083E+02 -0.19803077632E+02  0.63756081253E+02  0.71736360658E+02  0.00000000000E+00 0.  1.
</event>
<event>
12    1  0.8219652E-002  0.1976647E+03  0.7818608E-02  0.1152039E+00
         21   -1    0    0  501  502  0.00000000000E+00  0.00000000000E+00  0.27386196728E+03  0.27386196728E+03  0.00000000000E+00 0. -1.
         21   -1    0    0  502  503 -0.00000000000E+00 -0.00000000000E+00 -0.20390864641E+03  0.20390864641E+03  0.00000000000E+00 0.  1.
         -6    2    1    2    0  503  0.87198088497E+02  0.47574364506E+02 -0.96969132651E+02  0.22016886216E+03  0.17089320753E+03 0.  0.
        -24    2    3    3    0    0  0.38278587552E+01 -0.22118850864E+02 -0.71191047818E+02  0.10839078231E+03  0.78590714047E+02 0.  0.
          6    2    1    2  501    0 -0.87198088497E+02 -0.47574364506E+02  0.16692245352E+03  0.25760175154E+03  0.16920026628E+03 0.  0.
         24    2    5    5    0    0 -0.10124969422E+03 -0.29412764950E+02  0.56150204017E+02  0.14437687537E+03  0.81087763624E+02 0.  0.
          5    1    5    5  501    0  0.14051605722E+02 -0.18161599556E+02  0.11077224951E+03  0.11322487617E+03  0.47000000000E+01 0. -1.
        -13    1    6    6    0    0 -0.44372274881E+02 -0.54933640570E+02  0.27765763068E+02  0.75878463632E+02  0.00000000000E+00 0.  1.
         14    1    6    6    0    0 -0.56877419338E+02  0.25520875620E+02  0.28384440949E+02  0.68498411740E+02  0.00000000000E+00 0. -1.
         -5    1    3    3    0  503  0.83370229742E+02  0.69693215371E+02 -0.25778084834E+02  0.11177807984E+03  0.47000000000E+01 0.  1.
         11    1    4    4    0    0 -0.21995568421E+02 -0.75462719405E+01  0.73911990623E+01  0.24400431840E+02  0.00000000000E+00 0. -1.
        -12    1    4    4    0    0  0.25823427177E+02 -0.14572578924E+02 -0.78582246880E+02  0.83990350472E+02  0.00000000000E+00 0.  1.
</event>
<event>
12    1  0.8219652E-002  0.1784607E+03  0.7818608E-02  0.1169797E+00
         21   -1    0    0  503  502  0.00000000000E+00  0.00000000000E+00  0.21030059876E+03  0.21030059876E+03  0.00000000000E+00 0.  1.
         21   -1    0    0  501  503 -0.00000000000E+00 -0.00000000000E+00 -0.23269450355E+03  0.23269450355E+03  0.00000000000E+00 0.  1.
          6    2    1    2  501    0 -0.11077871005E+02  0.48126662950E+02 -0.14340787123E+03  0.22737367603E+03  0.16939325875E+03 0.  0.
         24    2    3    3    0    0 -0.61890066888E+02  0.32686435950E+02 -0.43946023355E+02  0.11452409011E+03  0.79282600693E+02 0.  0.
         -6    2    1    2    0  502  0.11077871005E+02 -0.48126662950E+02  0.12101396644E+03  0.21562142627E+03  0.17149147058E+03 0.  0.
        -24    2    5    5    0    0  0.63353806677E+01  0.64443169079E+00  0.14137676072E+03  0.16235000544E+03  0.79558679314E+02 0.  0.
          5    1    3    3  501    0  0.50812195883E+02  0.15440227001E+02 -0.99461847873E+02  0.11284958592E+03  0.47000000000E+01 0. -1.
        -13    1    4    4    0    0  0.57993510748E+01  0.14731592419E+02 -0.41537551865E+02  0.44452452160E+02  0.00000000000E+00 0.  1.
         14    1    4    4    0    0 -0.67689417963E+02  0.17954843530E+02 -0.24084714902E+01  0.70071637952E+02  0.00000000000E+00 0. -1.
         -5    1    5    5    0  502  0.47424903376E+01 -0.48771094641E+02 -0.20362794277E+02  0.53271420836E+02  0.47000000000E+01 0.  1.
         11    1    6    6    0    0 -0.10093857395E+02  0.31471126808E+02  0.26750910481E+02  0.42519748250E+02  0.00000000000E+00 0. -1.
        -12    1    6    6    0    0  0.16429238062E+02 -0.30826695118E+02  0.11462585023E+03  0.11983025719E+03  0.00000000000E+00 0.  1.
</event>
<event>
12    1  0.8219652E-002  0.1952411E+03  0.7818608E-02  0.1154711E+00
         21   -1    0    0  501  502  0.00000000000E+00  0.00000000000E+00  0.19661639565E+04  0.19661639565E+04  0.00000000000E+00 0. -1.
         21   -1    0    0  502  503 -0.00000000000E+00 -0.00000000000E+00 -0.25747706549E+02  0.25747706549E+02  0.00000000000E+00 0.  1.
         -6    2    1    2    0  503 -0.80060729920E+02  0.45511611552E+02  0.45234491903E+03  0.49108676084E+03  0.16753881234E+03 0.  0.
        -24    2    3    3    0    0 -0.21086504249E+02  0.58210905590E+02  0.13348268474E+03  0.16653407510E+03  0.77992441007E+02 0.  0.
          6    2    1    2  501    0  0.80060729920E+02 -0.45511611552E+02  0.14880713309E+04  0.15008249022E+04  0.17215711985E+03 0.  0.
         24    2    5    5    0    0  0.56023892058E+02  0.35436484241E+02  0.56397247668E+03  0.57286415616E+03  0.75590780314E+02 0.  0.
          5    1    5    5  501    0  0.24036837862E+02 -0.80948095793E+02  0.92409885426E+03  0.92796074607E+03  0.47000000000E+01 0. -1.
        -13    1    6    6    0    0  0.34735812744E+02 -0.20586373693E+02  0.24632333905E+03  0.24961082275E+03  0.00000000000E+00 0.  1.
         14    1    6    6    0    0  0.21288079314E+02  0.56022857934E+02  0.31764913762E+03  0.32325333342E+03  0.00000000000E+00 0. -1.
         -5    1    3    3    0  503 -0.58974225671E+02 -0.12699294038E+02  0.31886223430E+03  0.32455268574E+03  0.47000000000E+01 0.  1.
         11    1    4    4    0    0  0.99403482147E+01  0.48824922615E+02  0.12260363805E+03  0.13234173814E+03  0.00000000000E+00 0. -1.
        -12    1    4    4    0    0 -0.31026852463E+02  0.93859829749E+01  0.10879046691E+02  0.34192336965E+02  0.00000000000E+00 0.  1.
</event>
<event>
12    1  0.8219652E-002  0.1804727E+03  0.7818608E-02  0.1167863E+00
         21   -1    0    0  501  502  0.00000000000E+00  0.00000000000E+00  0.93957374535E+02  0.93957374535E+02  0.00000000000E+00 0.  1.
         21   -1    0    0  502  503 -0.00000000000E+00 -0.00000000000E+00 -0.68240603816E+03  0.68240603816E+03  0.00000000000E+00 0.  1.
         -6    2    1    2    0  503  0.87243602428E+01 -0.48289384438E+02 -0.56903298064E+03  0.59696643721E+03  0.17367329957E+03 0.  0.
        -24    2    3    3    0    0  0.65304591840E+02  0.20897458238E+00 -0.37928677560E+03  0.39305683527E+03  0.79815313204E+02 0.  0.
          6    2    1    2  501    0 -0.87243602428E+01  0.48289384438E+02 -0.19415682987E+02  0.17939697549E+03  0.17145940324E+03 0.  0.
         24    2    5    5    0    0  0.20415782471E+02 -0.77900430759E+01  0.40616162987E+02  0.92104578119E+02  0.79725100625E+02 0.  0.
          5    1    5    5  501    0 -0.29140142714E+02  0.56079427513E+02 -0.60031845973E+02  0.87292397370E+02  0.47000000000E+01 0. -1.
        -13    1    6    6    0    0  0.33330681619E+02  0.26987401179E+02  0.10079479753E+02  0.44055079976E+02  0.00000000000E+00 0.  1.
         14    1    6    6    0    0 -0.12914899148E+02 -0.34777444255E+02  0.30536683234E+02  0.48049498143E+02  0.00000000000E+00 0. -1.
         -5    1    3    3    0  503 -0.56580231597E+02 -0.48498359020E+02 -0.18974620504E+03  0.20390960194E+03  0.47000000000E+01 0.  1.
         13    1    4    4    0    0 -0.33943586988E+01 -0.17793165661E+02 -0.20706364242E+02  0.27511305592E+02  0.00000000000E+00 0. -1.
        -14    1    4    4    0    0  0.68698950539E+02  0.18002140244E+02 -0.35858041136E+03  0.36554552968E+03  0.00000000000E+00 0.  1.
</event>
<event>
12    1  0.8219652E-002  0.2099755E+03  0.7818608E-02  0.1141590E+00
         21   -1    0    0  503  502  0.00000000000E+00  0.00000000000E+00  0.11580171164E+03  0.11580171164E+03  0.00000000000E+00 0.  1.
         21   -1    0    0  501  503 -0.00000000000E+00 -0.00000000000E+00 -0.39778410456E+03  0.39778410456E+03  0.00000000000E+00 0.  1.
          6    2    1    2  501    0  0.10829418711E+03 -0.52083161446E+02 -0.19423222080E+03  0.28603474893E+03  0.17219011391E+03 0.  0.
         24    2    3    3    0    0  0.11829893175E+03 -0.64259723050E+02 -0.95021851308E+02  0.18547058542E+03  0.85124829342E+02 0.  0.
         -6    2    1    2    0  502 -0.10829418711E+03  0.52083161446E+02 -0.87750172124E+02  0.22755106728E+03  0.17216012559E+03 0.  0.
        -24    2    5    5    0    0 -0.76576369001E+02  0.84943568473E+02 -0.13750820272E+02  0.14046593416E+03  0.80388080498E+02 0.  0.
          5    1    3    3  501    0 -0.10004744636E+02  0.12176561604E+02 -0.99210369489E+02  0.10056416351E+03  0.47000000000E+01 0. -1.
        -13    1    4    4    0    0  0.81382602181E+02 -0.10615595720E+02 -0.87420950839E+02  0.11990930513E+03  0.00000000000E+00 0.  1.
         14    1    4    4    0    0  0.36916329565E+02 -0.53644127331E+02 -0.76009004696E+01  0.65561280292E+02  0.00000000000E+00 0. -1.
         -5    1    5    5    0  502 -0.31717818108E+02 -0.32860407027E+02 -0.73999351853E+02  0.87085133118E+02  0.47000000000E+01 0.  1.
         13    1    6    6    0    0 -0.78085502693E+01  0.23215434001E+02  0.29578356766E+02  0.38403242338E+02  0.00000000000E+00 0. -1.
        -14    1    6    6    0    0 -0.68767818732E+02  0.61728134473E+02 -0.43329177037E+02  0.10206269182E+03  0.00000000000E+00 0.  1.
</event>
<event>
12    1  0.8219652E-002  0.2932761E+03  0.7818608E-02  0.1088768E+00
         21   -1    0    0  501  502  0.00000000000E+00  0.00000000000E+00  0.10102595710E+03  0.10102595710E+03  0.00000000000E+00 0.  1.
         21   -1    0    0  502  503 -0.00000000000E+00 -0.00000000000E+00 -0.93727733075E+03  0.93727733075E+03  0.00000000000E+00 0. -1.
         -6    2    1    2    0  503  0.14270626922E+03 -0.18801853767E+03 -0.57710581483E+03  0.64693734322E+03  0.17251305677E+03 0.  0.
        -24    2    3    3    0    0  0.57850065818E+02 -0.86917284525E+02 -0.42699360486E+03  0.44699284036E+03  0.81103737716E+02 0.  0.
          6    2    1    2  501    0 -0.14270626922E+03  0.18801853767E+03 -0.25914555882E+03  0.39136594463E+03  0.17405410703E+03 0.  0.
         24    2    5    5    0    0 -0.15649798555E+03  0.86321422700E+02 -0.18941915168E+03  0.26720324296E+03  0.59790889993E+02 0.  0.
          5    1    5    5  501    0  0.13791716327E+02  0.10169711497E+03 -0.69726407142E+02  0.12416270167E+03  0.47000000000E+01 0. -1.
        -13    1    6    6    0    0 -0.77689453859E+02  0.73301251548E+02 -0.90019633774E+02  0.13968628846E+03  0.00000000000E+00 0.  1.
         14    1    6    6    0    0 -0.78808531691E+02  0.13020171151E+02 -0.99399517904E+02  0.12751695449E+03  0.00000000000E+00 0. -1.
         -5    1    3    3    0  503  0.84856203405E+02 -0.10110125315E+03 -0.15011220997E+03  0.19994450287E+03  0.47000000000E+01 0.  1.
         11    1    4    4    0    0  0.16515194240E+02 -0.16220461146E+02 -0.16543050418E+02  0.28452197062E+02  0.00000000000E+00 0. -1.
        -12    1    4    4    0    0  0.41334871578E+02 -0.70696823379E+02 -0.41045055444E+03  0.41854064329E+03  0.00000000000E+00 0.  1.
</event>
<event>
12    1  0.8219652E-002  0.2766414E+03  0.7818608E-02  0.1097609E+00
         21   -1    0    0  503  502  0.00000000000E+00  0.00000000000E+00  0.33354021915E+04  0.33354021915E+04  0.00000000000E+00 0.  1.
         21   -1    0    0  501  503 -0.00000000000E+00 -0.00000000000E+00 -0.40783674977E+02  0.40783674977E+02  0.00000000000E+00 0. -1.
          6    2    1    2  501    0 -0.58688921001E+02  0.20897080243E+03  0.52867720084E+03  0.59644454748E+03  0.17068488454E+03 0.  0.
         24    2    3    3    0    0 -0.57531283255E+02  0.57027715223E+02  0.14975646376E+03  0.18816638633E+03  0.80109809965E+02 0.  0.
         -6    2    1    2    0  502  0.58688921001E+02 -0.20897080243E+03  0.27659413157E+04  0.27797413190E+04  0.17151458548E+03 0.  0.
        -24    2    5    5    0    0  0.98179046773E+02 -0.13546813698E+03  0.15653882179E+04  0.15762829930E+04  0.78975058489E+02 0.  0.
          5    1    3    3  501    0 -0.11576377460E+01  0.15194308721E+03  0.37892073708E+03  0.40827816114E+03  0.47000000000E+01 0. -1.
        -11    1    4    4    0    0  0.32664976841E+01  0.41325876476E+02  0.99326172505E+02  0.10762985932E+03  0.00000000000E+00 0.  1.
         12    1    4    4    0    0 -0.60797780939E+02  0.15701838747E+02  0.50430291252E+02  0.80536527010E+02  0.00000000000E+00 0. -1.
         -5    1    5    5    0  502 -0.39490125772E+02 -0.73502665446E+02  0.12005530978E+04  0.12034583260E+04  0.47000000000E+01 0.  1.
         11    1    6    6    0    0  0.24873258764E+02 -0.41884882638E+02  0.20490025192E+03  0.21061133785E+03  0.00000000000E+00 0. -1.
        -12    1    6    6    0    0  0.73305788009E+02 -0.93583254345E+02  0.13604879660E+04  0.13656716551E+04  0.00000000000E+00 0.  1.
</event>
<event>
12    1  0.8219652E-002  0.2266584E+03  0.7818608E-02  0.1129985E+00
         21   -1    0    0  503  502  0.00000000000E+00  0.00000000000E+00  0.13738060852E+04  0.13738060852E+04  0.00000000000E+00 0.  1.
         21   -1    0    0  501  503 -0.00000000000E+00 -0.00000000000E+00 -0.62055184389E+02  0.62055184389E+02  0.00000000000E+00 0. -1.
          6    2    1    2  501    0  0.12498237388E+03 -0.59723217182E+02  0.11210086785E+04  0.11436933460E+04  0.17940612007E+03 0.  0.
         24    2    3    3    0    0  0.66121313583E+02  0.36871793102E+02  0.66264116925E+03  0.67155132924E+03  0.78462165338E+02 0.  0.
         -6    2    1    2    0  502 -0.12498237388E+03  0.59723217182E+02  0.19074222234E+03  0.29216792364E+03  0.17260371887E+03 0.  0.
        -24    2    5    5    0    0 -0.14688020918E+03  0.84894501438E+02  0.15503040603E+03  0.24307074892E+03  0.79171269793E+02 0.  0.
          5    1    3    3  501    0  0.58861060297E+02 -0.96595010284E+02  0.45836750925E+03  0.47214201674E+03  0.47000000000E+01 0. -1.
        -11    1    4    4    0    0  0.37745141832E+02  0.38409963640E+02  0.60390941579E+03  0.60630570137E+03  0.00000000000E+00 0.  1.
         12    1    4    4    0    0  0.28376171751E+02 -0.15381705377E+01  0.58731753461E+02  0.65245627872E+02  0.00000000000E+00 0. -1.
         -5    1    5    5    0  502  0.21897835300E+02 -0.25171284255E+02  0.35711816311E+02  0.49097174726E+02  0.47000000000E+01 0.  1.
         11    1    6    6    0    0 -0.13062429053E+03  0.48311995436E+02  0.87230623175E+02  0.16433482832E+03  0.00000000000E+00 0. -1.
        -12    1    6    6    0    0 -0.16255918651E+02  0.36582506002E+02  0.67799782859E+02  0.78735920598E+02  0.00000000000E+00 0.  1.
</event>
<event>
12    1  0.8219652E-002  0.2201676E+03  0.7818608E-02  0.1134465E+00
         21   -1    0    0  501  502  0.00000000000E+00  0.00000000000E+00  0.11674976233E+03  0.11674976233E+03  0.00000000000E+00 0.  1.
         21   -1    0    0  502  503 -0.00000000000E+00 -0.00000000000E+00 -0.48491944039E+03  0.48491944039E+03  0.00000000000E+00 0.  1.
         -6    2    1    2    0  503 -0.12605676841E+03  0.34285478627E+02 -0.30245940141E+03  0.37190497702E+03  0.17252773553E+03 0.  0.
        -24    2    3    3    0    0 -0.10536481640E+03  0.80254364679E+02 -0.27173443600E+03  0.31268159598E+03  0.79922895152E+02 0.  0.
          6    2    1    2  501    0  0.12605676841E+03 -0.34285478627E+02 -0.65710276660E+02  0.22976422569E+03  0.17722289932E+03 0.  0.
         24    2    5    5    0    0  0.83444308944E+02 -0.86344265049E+02 -0.17283670331E+02  0.14673913824E+03  0.82555221701E+02 0.  0.
          5    1    5    5  501    0  0.42612459470E+02  0.52058786423E+02 -0.48426606329E+02  0.83025087452E+02  0.47000000000E+01 0. -1.
        -11    1    6    6    0    0  0.37585666747E+01 -0.60147782330E+02  0.33471545054E+01  0.60357981957E+02  0.00000000000E+00 0.  1.
         12    1    6    6    0    0  0.79685742269E+02 -0.26196482719E+02 -0.20630824837E+02  0.86381156286E+02  0.00000000000E+00 0. -1.
         -5    1    3    3    0  503 -0.20691952013E+02 -0.45968886053E+02 -0.30724965402E+02  0.59223381041E+02  0.47000000000E+01 0.  1.
         13    1    4    4    0    0 -0.18179814255E+02  0.36436775380E+02 -0.26076751825E+02  0.48354330025E+02  0.00000000000E+00 0. -1.
        -14    1    4    4    0    0 -0.87185002146E+02  0.43817589299E+02 -0.24565768418E+03  0.26432726596E+03  0.00000000000E+00 0.  1.
</event>
<event>
12    1  0.8219652E-002  0.1979987E+03  0.7818608E-02  0.1151946E+00
         21   -1    0    0  503  502  0.00000000000E+00  0.00000000000E+00  0.80305147265E+03  0.80305147265E+03  0.00000000000E+00 0. -1.
         21   -1    0    0  501  503 -0.00000000000E+00 -0.00000000000E+00 -0.60573347042E+03  0.60573347042E+03  0.00000000000E+00 0. -1.
          6    2    1    2  501    0  0.97174824811E+02  0.28293890330E+01 -0.57714993113E+03  0.60940764443E+03  0.16977833215E+03 0.  0.
         24    2    3    3    0    0  0.87277938677E+02  0.54518479457E+02 -0.31614610599E+03  0.34310932081E+03  0.84769938735E+02 0.  0.
         -6    2    1    2    0  502 -0.97174824811E+02 -0.28293890330E+01  0.77446793335E+03  0.79937729864E+03  0.17248922802E+03 0.  0.
        -24    2    5    5    0    0 -0.70410280810E+02  0.20125753514E+02  0.74602702698E+03  0.75383331397E+03  0.79659818416E+02 0.  0.
          5    1    3    3  501    0  0.98968861338E+01 -0.51689090424E+02 -0.26100382514E+03  0.26629832362E+03  0.47000000000E+01 0. -1.
        -13    1    4    4    0    0  0.11937282202E+02  0.96898285953E+01 -0.35948500041E+00  0.15379229956E+02  0.00000000000E+00 0.  1.
         14    1    4    4    0    0  0.75340656475E+02  0.44828650862E+02 -0.31578662099E+03  0.32773009085E+03  0.00000000000E+00 0. -1.
         -5    1    5    5    0  502 -0.26764544001E+02 -0.22955142547E+02  0.28440906372E+02  0.45543984676E+02  0.47000000000E+01 0.  1.
         13    1    6    6    0    0  0.13628310714E+02 -0.30319609650E+01  0.23583426169E+03  0.23624716427E+03  0.00000000000E+00 0. -1.
        -14    1    6    6    0    0 -0.84038591524E+02  0.23157714479E+02  0.51019276529E+03  0.51758614970E+03  0.00000000000E+00 0.  1.
</event>
<event>
12    1  0.8219652E-002  0.3934714E+03  0.7818608E-02  0.1046094E+00
         21   -1    0    0  503  502  0.00000000000E+00  0.00000000000E+00  0.35165343679E+03  0.35165343679E+03  0.00000000000E+00 0.  1.
         21   -1    0    0  501  503 -0.00000000000E+00 -0.00000000000E+00 -0.12984424295E+04  0.12984424295E+04  0.00000000000E+00 0. -1.
          6    2    1    2  501    0  0.12863453578E+03 -0.32966912034E+03 -0.11442167200E+04  0.12098715210E+04  0.17125601388E+03 0.  0.
         24    2    3    3    0    0  0.90760711244E+02 -0.28284894825E+03 -0.74585896405E+03  0.80696018233E+03  0.81474581184E+02 0.  0.
         -6    2    1    2    0  502 -0.12863453578E+03  0.32966912034E+03  0.19742772732E+03  0.44022434527E+03  0.17202091139E+03 0.  0.
        -24    2    5    5    0    0 -0.34605097133E+01  0.10496121553E+03  0.35779135090E+02  0.13639127161E+03  0.79332216461E+02 0.  0.
          5    1    3    3  501    0  0.37873824534E+02 -0.46820172085E+02 -0.39835775597E+03  0.40291133869E+03  0.47000000000E+01 0. -1.
        -13    1    4    4    0    0 -0.12881267636E+01 -0.12092980561E+03 -0.32304542303E+03  0.34494060720E+03  0.00000000000E+00 0.  1.
         14    1    4    4    0    0  0.92048838007E+02 -0.16191914264E+03 -0.42281354102E+03  0.46201957513E+03  0.00000000000E+00 0. -1.
         -5    1    5    5    0  502 -0.12517402606E+03  0.22470790481E+03  0.16164859223E+03  0.30383307366E+03  0.47000000000E+01 0.  1.
         13    1    6    6    0    0  0.16008015321E+02  0.10253962944E+03  0.46848001667E+02  0.11386556732E+03  0.00000000000E+00 0. -1.
        -14    1    6    6    0    0 -0.19468525034E+02  0.24215860895E+01 -0.11068866578E+02  0.22525704285E+02  0.00000000000E+00 0.  1.
</event>
<event>
12    1  0.8219652E-002  0.2707886E+03  0.7818608E-02  0.1100904E+00
         21   -1    0    0  503  502  0.00000000000E+00  0.00000000000E+00  0.26163895872E+03  0.26163895872E+03  0.00000000000E+00 0.  1.
         21   -1    0    0  501  503 -0.00000000000E+00 -0.00000000000E+00 -0.52304161040E+03  0.52304161040E+03  0.00000000000E+00 0.  1.
          6    2    1    2  501    0 -0.16218528987E+03  0.13037335413E+03 -0.39823540371E+03  0.48128370876E+03  0.17245663755E+03 0.  0.
         24    2    3    3    0    0 -0.16388591552E+03  0.93989969444E+02 -0.39422700291E+03  0.44434050796E+03  0.79566635793E+02 0.  0.
         -6    2    1    2    0  502  0.16218528987E+03 -0.13037335413E+03  0.13683275203E+03  0.30339686036E+03  0.17327773409E+03 0.  0.
        -24    2    5    5    0    0  0.32691224059E+02 -0.48680322876E+02  0.27237668279E+01  0.99804683823E+02  0.80715959026E+02 0.  0.
          5    1    3    3  501    0  0.17006256538E+01  0.36383384682E+02 -0.40084008050E+01  0.36943200803E+02  0.47000000000E+01 0. -1.
        -11    1    4    4    0    0 -0.99877895888E+02  0.84044853702E+02 -0.19343480551E+03  0.23335842711E+03  0.00000000000E+00 0.  1.
         12    1    4    4    0    0 -0.64008019631E+02  0.99451157426E+01 -0.20079219739E+03  0.21098208085E+03  0.00000000000E+00 0. -1.
         -5    1    5    5    0  502  0.12949406581E+03 -0.81693031250E+02  0.13410898521E+03  0.20359217654E+03  0.47000000000E+01 0.  1.
         13    1    6    6    0    0 -0.17323248540E+02 -0.46234062927E+02  0.53480247007E+01  0.49661704390E+02  0.00000000000E+00 0. -1.
        -14    1    6    6    0    0  0.50014472599E+02 -0.24462599495E+01 -0.26242578729E+01  0.50142979433E+02  0.00000000000E+00 0.  1.
</event>
<event>
12    1  0.8219652E-002  0.2095206E+03  0.7818608E-02  0.1142129E+00
         21   -1    0    0  503  502  0.00000000000E+00  0.00000000000E+00  0.11413995519E+04  0.11413995519E+04  0.00000000000E+00 0. -1.
         21   -1    0    0  501  503 -0.00000000000E+00 -0.00000000000E+00 -0.72046652796E+02  0.72046652796E+02  0.00000000000E+00 0.  1.
          6    2    1    2  501    0  0.10922423815E+03  0.40523156933E+02  0.12001266894E+03  0.24145792743E+03  0.17414600071E+03 0.  0.
         24    2    3    3    0    0  0.10445908196E+03  0.87273404394E+02  0.11152692981E+03  0.19347469995E+03  0.80410549854E+02 0.  0.
         -6    2    1    2    0  502 -0.10922423815E+03 -0.40523156933E+02  0.94934023014E+03  0.97198827724E+03  0.17303837175E+03 0.  0.
        -24    2    5    5    0    0  0.84196669996E+01 -0.32695882532E+02  0.48370097079E+03  0.49163073907E+03  0.81204943949E+02 0.  0.
          5    1    3    3  501    0  0.47651561837E+01 -0.46750247461E+02  0.84857391381E+01  0.47983227484E+02  0.47000000000E+01 0. -1.
        -11    1    4    4    0    0  0.11529783370E+03  0.67708746338E+02  0.10547844281E+03  0.17030492267E+03  0.00000000000E+00 0.  1.
         12    1    4    4    0    0 -0.10838751741E+02  0.19564658057E+02  0.60484869987E+01  0.23169777279E+02  0.00000000000E+00 0. -1.
         -5    1    5    5    0  502 -0.11764390515E+03 -0.78272744013E+01  0.46563925934E+03  0.48035753818E+03  0.47000000000E+01 0.  1.
         11    1    6    6    0    0  0.24256839591E+02  0.20922605021E+02  0.17460336365E+03  0.17751756044E+03  0.00000000000E+00 0. -1.
        -12    1    6    6    0    0 -0.15837172592E+02 -0.53618487553E+02  0.30909760714E+03  0.31411317862E+03  0.00000000000E+00 0.  1.
</event>
<event>
12    1  0.8219652E-002  0.2256716E+03  0.7818608E-02  0.1129920E+00
         21   -1    0    0  501  502  0.00000000000E+00  0.00000000000E+00  0.18244107502E+03  0.18244107502E+03  0.00000000000E+00 0.  1.
         21   -1    0    0  502  503 -0.00000000000E+00 -0.00000000000E+00 -0.13252598032E+04  0.13252598032E+04  0.00000000000E+00 0.  1.
         -6    2    1    2    0  503 -0.14161180648E+03 -0.30961713006E+02 -0.12418947427E+04  0.12622322453E+04  0.17295998846E+03 0.  0.
        -24    2    3    3    0    0 -0.70232969599E+02 -0.82581033797E+02 -0.81268270962E+03  0.82404900508E+03  0.82772453687E+02 0.  0.
          6    2    1    2  501    0  0.14161180648E+03  0.30961713006E+02  0.99076014541E+02  0.24546863294E+03  0.17154084556E+03 0.  0.
         24    2    5    5    0    0  0.11670936613E+03 -0.22295172248E+02  0.11590136746E+03  0.18413666849E+03  0.79718472494E+02 0.  0.
          5    1    5    5  501    0  0.24902440353E+02  0.53256885254E+02 -0.16825352922E+02  0.61331964451E+02  0.47000000000E+01 0. -1.
        -13    1    6    6    0    0  0.16605229546E+02 -0.21059305384E+01  0.70357707858E+02  0.72321336041E+02  0.00000000000E+00 0.  1.
         14    1    6    6    0    0  0.10010413658E+03 -0.20189241709E+02  0.45543659605E+02  0.11181533245E+03  0.00000000000E+00 0. -1.
         -5    1    3    3    0  503 -0.71378836879E+02  0.51619320791E+02 -0.42921203310E+03  0.43818324020E+03  0.47000000000E+01 0.  1.
         13    1    4    4    0    0  0.18662795602E+02 -0.16064668942E+02 -0.11709174817E+03  0.11965304433E+03  0.00000000000E+00 0. -1.
        -14    1    4    4    0    0 -0.88895765201E+02 -0.66516364855E+02 -0.69559096145E+03  0.70439596075E+03  0.00000000000E+00 0.  1.
</event>
<event>
12    1  0.8219652E-002  0.1916971E+03  0.7818608E-02  0.1157166E+00
         21   -1    0    0  503  502  0.00000000000E+00  0.00000000000E+00  0.13896509296E+04  0.13896509296E+04  0.00000000000E+00 0.  1.
         21   -1    0    0  501  503 -0.00000000000E+00 -0.00000000000E+00 -0.28509938131E+02  0.28509938131E+02  0.00000000000E+00 0. -1.
          6    2    1    2  501    0  0.45179552804E+01 -0.86998627265E+02  0.48169644293E+03  0.51806615513E+03  0.16962283129E+03 0.  0.
         24    2    3    3    0    0 -0.15987392162E+02 -0.12172730519E+03  0.33384423948E+03  0.36473998513E+03  0.80685481835E+02 0.  0.
         -6    2    1    2    0  502 -0.45179552804E+01  0.86998627265E+02  0.87944454855E+03  0.90009471261E+03  0.17075890791E+03 0.  0.
        -24    2    5    5    0    0 -0.12903035229E+02  0.69171251657E+02  0.87205500186E+03  0.87853502135E+03  0.79954406412E+02 0.  0.
          5    1    3    3  501    0  0.20505347443E+02  0.34728677921E+02  0.14785220345E+03  0.15332617001E+03  0.47000000000E+01 0. -1.
        -13    1    4    4    0    0 -0.38854056954E+01  0.33976404048E+01  0.92277976892E+02  0.92422212465E+02  0.00000000000E+00 0.  1.
         14    1    4    4    0    0 -0.12101986467E+02 -0.12512494559E+03  0.24156626259E+03  0.27231777266E+03  0.00000000000E+00 0. -1.
         -5    1    5    5    0  502  0.83850799489E+01  0.17827375608E+02  0.73895466925E+01  0.21559691258E+02  0.47000000000E+01 0.  1.
         13    1    6    6    0    0  0.19073887719E+02  0.45418074373E+01  0.56634975588E+02  0.59932976460E+02  0.00000000000E+00 0. -1.
        -14    1    6    6    0    0 -0.31976922948E+02  0.64629444220E+02  0.81542002627E+03  0.81860204489E+03  0.00000000000E+00 0.  1.
</event>
<event>
12    1  0.8219652E-002  0.2484194E+03  0.7818608E-02  0.1114353E+00
         21   -1    0    0  501  502  0.00000000000E+00  0.00000000000E+00  0.12796860427E+03  0.12796860427E+03  0.00000000000E+00 0. -1.
         21   -1    0    0  502  503 -0.00000000000E+00 -0.00000000000E+00 -0.49459187576E+03  0.49459187576E+03  0.00000000000E+00 0.  1.
         -6    2    1    2    0  503  0.52403468150E+02  0.17151362651E+03 -0.23368043151E+03  0.34105534378E+03  0.17189867917E+03 0.  0.
        -24    2    3    3    0    0  0.23786683596E+02  0.22068940714E+02 -0.40141061010E+02  0.94819253003E+02  0.79539559341E+02 0.  0.
          6    2    1    2  501    0 -0.52403468150E+02 -0.17151362651E+03 -0.13294283998E+03  0.28150513624E+03  0.17148847039E+03 0.  0.
         24    2    5    5    0    0 -0.37752045893E+02 -0.16118101279E+03 -0.40614884589E+02  0.18733524494E+03  0.77719941419E+02 0.  0.
          5    1    5    5  501    0 -0.14651422258E+02 -0.10332613717E+02 -0.92327955394E+02  0.94169891300E+02  0.47000000000E+01 0. -1.
        -13    1    6    6    0    0 -0.10235703248E+02 -0.66365934349E+02 -0.55974383193E+02  0.87420469210E+02  0.00000000000E+00 0.  1.
         14    1    6    6    0    0 -0.27516342645E+02 -0.94815078443E+02  0.15359498604E+02  0.99914775734E+02  0.00000000000E+00 0. -1.
         -5    1    3    3    0  503  0.28616784554E+02  0.14944468580E+03 -0.19353937050E+03  0.24623609078E+03  0.47000000000E+01 0.  1.
         11    1    4    4    0    0  0.36322306238E+02  0.64431278293E+01  0.12136795390E+02  0.38834593200E+02  0.00000000000E+00 0. -1.
        -12    1    4    4    0    0 -0.12535622642E+02  0.15625812884E+02 -0.52277856401E+02  0.55984659802E+02  0.00000000000E+00 0.  1.
</event>
<event>
12    1  0.8219652E-002  0.1784411E+03  0.7818608E-02  0.1169335E+00
         21   -1    0    0  501  502  0.00000000000E+00  0.00000000000E+00  0.36236805444E+02  0.36236805444E+02  0.00000000000E+00 0.  1.
         21   -1    0    0  502  503 -0.00000000000E+00 -0.00000000000E+00 -0.10416501871E+04  0.10416501871E+04  0.00000000000E+00 0.  1.
         -6    2    1    2    0  503  0.36275548678E+02  0.31075932562E+02 -0.28941990741E+03  0.34000750962E+03  0.17192903994E+03 0.  0.
        -24    2    3    3    0    0 -0.28162537711E+01  0.82362102074E+01 -0.86568064635E+02  0.13211142487E+03  0.99416459012E+02 0.  0.
          6    2    1    2  501    0 -0.36275548678E+02 -0.31075932562E+02 -0.71599347422E+03  0.73787948290E+03  0.17186578236E+03 0.  0.
         24    2    5    5    0    0 -0.24947407251E+02 -0.86801456739E+02 -0.44178391433E+03  0.45779622105E+03  0.79041046479E+02 0.  0.
          5    1    5    5  501    0 -0.11328141427E+02  0.55725524177E+02 -0.27420955989E+03  0.28008326185E+03  0.47000000000E+01 0. -1.
        -13    1    6    6    0    0 -0.49438182164E+02 -0.80897754635E+02 -0.34579657869E+03  0.35855802096E+03  0.00000000000E+00 0.  1.
         14    1    6    6    0    0  0.24490774913E+02 -0.59037021041E+01 -0.95987335638E+02  0.99238200091E+02  0.00000000000E+00 0. -1.
         -5    1    3    3    0  503  0.39091802449E+02  0.22839722355E+02 -0.20285184277E+03  0.20789608475E+03  0.47000000000E+01 0.  1.
         11    1    4    4    0    0 -0.63092635171E+01  0.45574798881E+02 -0.10338598559E+02  0.47156714468E+02  0.00000000000E+00 0. -1.
        -12    1    4    4    0    0  0.34930097459E+01 -0.37338588674E+02 -0.76229466076E+02  0.84954710402E+02  0.00000000000E+00 0.  1.
</event>
<event>
12    1  0.8219652E-002  0.2917795E+03  0.7818608E-02  0.1089470E+00
         21   -1    0    0  503  502  0.00000000000E+00  0.00000000000E+00  0.70975521212E+02  0.70975521212E+02  0.00000000000E+00 0.  1.
         21   -1    0    0  501  503 -0.00000000000E+00 -0.00000000000E+00 -0.13286985332E+04  0.13286985332E+04  0.00000000000E+00 0. -1.
          6    2    1    2  501    0 -0.21208413113E+03 -0.10224627313E+03 -0.84798119406E+03  0.89665949819E+03  0.17173284828E+03 0.  0.
         24    2    3    3    0    0 -0.46734464866E+02 -0.56674936360E+02 -0.20630612228E+03  0.23244097496E+03  0.77912977937E+02 0.  0.
         -6    2    1    2    0  502  0.21208413113E+03  0.10224627313E+03 -0.40974181789E+03  0.50301455618E+03  0.17234067239E+03 0.  0.
        -24    2    5    5    0    0  0.19970438352E+03  0.93133603716E+02 -0.25124483189E+03  0.34370453306E+03  0.80331385882E+02 0.  0.
          5    1    3    3  501    0 -0.16534966626E+03 -0.45571336765E+02 -0.64167507177E+03  0.66421852323E+03  0.47000000000E+01 0. -1.
        -11    1    4    4    0    0  0.20087221560E+02 -0.40793332114E+01 -0.26171736299E+02  0.33243002427E+02  0.00000000000E+00 0.  1.
         12    1    4    4    0    0 -0.66821686426E+02 -0.52595603149E+02 -0.18013438598E+03  0.19919797253E+03  0.00000000000E+00 0. -1.
         -5    1    5    5    0  502  0.12379747605E+02  0.91126694097E+01 -0.15849698600E+03  0.15931002312E+03  0.47000000000E+01 0.  1.
         13    1    6    6    0    0  0.92648982549E+02  0.48199767101E-01 -0.96792462472E+02  0.13398737658E+03  0.00000000000E+00 0. -1.
        -14    1    6    6    0    0  0.10705540097E+03  0.93085403949E+02 -0.15445236941E+03  0.20971715648E+03  0.00000000000E+00 0.  1.
</event>
<event>
12    1  0.8219652E-002  0.2126955E+03  0.7818608E-02  0.1139522E+00
         21   -1    0    0  501  502  0.00000000000E+00  0.00000000000E+00  0.60797320750E+02  0.60797320750E+02  0.00000000000E+00 0. -1.
         21   -1    0    0  502  503 -0.00000000000E+00 -0.00000000000E+00 -0.12507636508E+04  0.12507636508E+04  0.00000000000E+00 0. -1.
         -6    2    1    2    0  503  0.78555180978E+02  0.96674103112E+02 -0.10132061527E+04  0.10352903423E+04  0.17240239632E+03 0.  0.
        -24    2    3    3    0    0  0.10629949493E+03  0.40320001957E+02 -0.82939034307E+03  0.84098163546E+03  0.80227706059E+02 0.  0.
          6    2    1    2  501    0 -0.78555180978E+02 -0.96674103112E+02 -0.17676017730E+03  0.27627062923E+03  0.17194330933E+03 0.  0.
         24    2    5    5    0    0 -0.40958056134E+02 -0.27533338129E+02 -0.16043488109E+02  0.97256849416E+02  0.82254812484E+02 0.  0.
          5    1    5    5  501    0 -0.37597124844E+02 -0.69140764983E+02 -0.16071668919E+03  0.17901377981E+03  0.47000000000E+01 0. -1.
        -11    1    6    6    0    0 -0.11427847810E+02 -0.10093328360E+02 -0.48010377019E+02  0.50373279469E+02  0.00000000000E+00 0.  1.
         12    1    6    6    0    0 -0.29530208324E+02 -0.17440009769E+02  0.31966888910E+02  0.46883569947E+02  0.00000000000E+00 0. -1.
         -5    1    3    3    0  503 -0.27744313949E+02  0.56354101155E+02 -0.18381580966E+03  0.19430870685E+03  0.47000000000E+01 0.  1.
         11    1    4    4    0    0  0.92113600107E+02  0.57634102434E+02 -0.54589050142E+03  0.55659953704E+03  0.00000000000E+00 0. -1.
        -12    1    4    4    0    0  0.14185894821E+02 -0.17314100477E+02 -0.28349984165E+03  0.28438209842E+03  0.00000000000E+00 0.  1.
</event>
<event>
12    1  0.8219652E-002  0.2018376E+03  0.7818608E-02  0.1148521E+00
         21   -1    0    0  503  502  0.00000000000E+00  0.00000000000E+00  0.56975047476E+03  0.56975047476E+03  0.00000000000E+00 0.  1.
         21   -1    0    0  501  503 -0.00000000000E+00 -0.00000000000E+00 -0.16994485536E+03  0.16994485536E+03  0.00000000000E+00 0.  1.
          6    2    1    2  501    0  0.56632208316E+02 -0.85818015177E+02 -0.82043630943E+02  0.21787509811E+03  0.17368495114E+03 0.  0.
         24    2    3    3    0    0  0.90524194555E+02 -0.46605258633E+02 -0.10050994350E+03  0.16265370999E+03  0.77377649855E+02 0.  0.
         -6    2    1    2    0  502 -0.56632208316E+02  0.85818015177E+02  0.48184925034E+03  0.52182023201E+03  0.17188867250E+03 0.  0.
        -24    2    5    5    0    0  0.23452144931E+02  0.37649948639E+02  0.33826430450E+03  0.35043647274E+03  0.80096566682E+02 0.  0.
          5    1    3    3  501    0 -0.33891986238E+02 -0.39212756544E+02  0.18466312560E+02  0.55221388125E+02  0.47000000000E+01 0. -1.
        -13    1    4    4    0    0  0.94665717283E+01 -0.12297928976E+02 -0.66509341358E+02  0.68296028620E+02  0.00000000000E+00 0.  1.
         14    1    4    4    0    0  0.81057622826E+02 -0.34307329657E+02 -0.34000602145E+02  0.94357681366E+02  0.00000000000E+00 0. -1.
         -5    1    5    5    0  502 -0.80084353247E+02  0.48168066538E+02  0.14358494584E+03  0.17138375927E+03  0.47000000000E+01 0.  1.
         13    1    6    6    0    0  0.41325003312E+02 -0.42833940356E+01  0.10825180758E+03  0.11595066712E+03  0.00000000000E+00 0. -1.
        -14    1    6    6    0    0 -0.17872858381E+02  0.41933342674E+02  0.23001249692E+03  0.23448580561E+03  0.00000000000E+00 0.  1.
</event>
<event>
12    1  0.8219652E-002  0.1839925E+03  0.7818608E-02  0.1164384E+00
         21   -1    0    0  503  502  0.00000000000E+00  0.00000000000E+00  0.94086559471E+02  0.94086559471E+02  0.00000000000E+00 0. -1.
         21   -1    0    0  501  503 -0.00000000000E+00 -0.00000000000E+00 -0.35715568609E+03  0.35715568609E+03  0.00000000000E+00 0.  1.
          6    2    1    2  501    0  0.49265639191E+02  0.38465484532E+02 -0.14112167125E+03  0.23188048976E+03  0.17305068254E+03 0.  0.
         24    2    3    3    0    0 -0.14739947797E+02  0.72656845104E+02 -0.69647376091E+02  0.12991760841E+03  0.80817973107E+02 0.  0.
         -6    2    1    2    0  502 -0.49265639191E+02 -0.38465484532E+02 -0.12194745536E+03  0.21936175580E+03  0.17129419527E+03 0.  0.
        -24    2    5    5    0    0  0.22653267113E+02 -0.22803313565E+02 -0.95899068148E+02  0.14114256915E+03  0.98445070649E+02 0.  0.
          5    1    3    3  501    0  0.64005586988E+02 -0.34191360572E+02 -0.71474295163E+02  0.10196288135E+03  0.47000000000E+01 0. -1.
        -11    1    4    4    0    0  0.21577334256E+02  0.69599883136E+02 -0.51296872501E+02  0.89112817341E+02  0.00000000000E+00 0.  1.
         12    1    4    4    0    0 -0.36317282053E+02  0.30569619684E+01 -0.18350503590E+02  0.40804791069E+02  0.00000000000E+00 0. -1.
         -5    1    5    5    0  502 -0.71918906304E+02 -0.15662170967E+02 -0.26048387214E+02  0.78219186648E+02  0.47000000000E+01 0.  1.
         11    1    6    6    0    0 -0.36635673515E+02  0.67967367716E+01 -0.36196816346E+02  0.51947836512E+02  0.00000000000E+00 0. -1.
        -12    1    6    6    0    0  0.59288940628E+02 -0.29600050337E+02 -0.59702251802E+02  0.89194732642E+02  0.00000000000E+00 0.  1.
</event>
<event>
12    1  0.8219652E-002  0.1851020E+03  0.7818608E-02  0.1166736E+00
         21   -1    0    0  501  502  0.00000000000E+00  0.00000000000E+00  0.15967778090E+03  0.15967778090E+03  0.00000000000E+00 0. -1.
         21   -1    0    0  502  503 -0.00000000000E+00 -0.00000000000E+00 -0.19708001386E+03  0.19708001386E+03  0.00000000000E+00 0. -1.
         -6    2    1    2    0  503 -0.20387579970E+02  0.65163521743E+02 -0.21081373784E+02  0.17093770047E+03  0.15528469061E+03 0.  0.
        -24    2    3    3    0    0 -0.52204201392E+02  0.16347436924E+02 -0.46343497469E+02  0.10725432408E+03  0.79770000242E+02 0.  0.
          6    2    1    2  501    0  0.20387579970E+02 -0.65163521743E+02 -0.16320859177E+02  0.18582009428E+03  0.17204882741E+03 0.  0.
         24    2    5    5    0    0 -0.33472527919E+02 -0.67520025118E+02 -0.50187601980E+02  0.12198036842E+03  0.81737696139E+02 0.  0.
          5    1    5    5  501    0  0.53860107889E+02  0.23565033750E+01  0.33866742803E+02  0.63839725862E+02  0.47000000000E+01 0. -1.
        -11    1    6    6    0    0 -0.25700673319E+02 -0.53291798560E+00 -0.48068716764E+02  0.54510642465E+02  0.00000000000E+00 0.  1.
         12    1    6    6    0    0 -0.77718546002E+01 -0.66987107132E+02 -0.21188852159E+01  0.67469725955E+02  0.00000000000E+00 0. -1.
         -5    1    3    3    0  503  0.31816621422E+02  0.48816084818E+02  0.25262123685E+02  0.63683376392E+02  0.47000000000E+01 0.  1.
         13    1    4    4    0    0 -0.45137957750E+02  0.46965114924E+02 -0.34154069621E+02  0.73550375399E+02  0.00000000000E+00 0. -1.
        -14    1    4    4    0    0 -0.70662436420E+01 -0.30617677999E+02 -0.12189427848E+02  0.33703948679E+02  0.00000000000E+00 0.  1.
</event>
<event>
12    1  0.8219652E-002  0.1730278E+03  0.7818608E-02  0.1175038E+00
         21   -1    0    0  503  502  0.00000000000E+00  0.00000000000E+00  0.41239170498E+03  0.41239170498E+03  0.00000000000E+00 0. -1.
         21   -1    0    0  501  503 -0.00000000000E+00 -0.00000000000E+00 -0.84647854879E+02  0.84647854879E+02  0.00000000000E+00 0. -1.
          6    2    1    2  501    0  0.70966354299E+00 -0.68013354621E+01  0.26009836187E+03  0.31239365089E+03  0.17289266463E+03 0.  0.
         24    2    3    3    0    0  0.29813624779E+01  0.28371126060E+02  0.44085323166E+02  0.93473607140E+02  0.77330396332E+02 0.  0.
         -6    2    1    2    0  502 -0.70966354299E+00  0.68013354621E+01  0.67645488229E+02  0.18464590897E+03  0.17167247256E+03 0.  0.
        -24    2    5    5    0    0  0.64397577194E+02  0.10094591162E+02  0.24446891732E+02  0.10630047471E+03  0.80331760153E+02 0.  0.
          5    1    3    3  501    0 -0.22716989349E+01 -0.35172461522E+02  0.21601303871E+03  0.21892004375E+03  0.47000000000E+01 0. -1.
        -11    1    4    4    0    0  0.19981757824E+02  0.80882293504E+01  0.59195637031E+02  0.62998520167E+02  0.00000000000E+00 0.  1.
         12    1    4    4    0    0 -0.17000395346E+02  0.20282896710E+02 -0.15110313865E+02  0.30475086972E+02  0.00000000000E+00 0. -1.
         -5    1    5    5    0  502 -0.65107240737E+02 -0.32932556995E+01  0.43198596497E+02  0.78345434256E+02  0.47000000000E+01 0.  1.
         11    1    6    6    0    0  0.45424715144E+02 -0.26606054107E+02 -0.86686324512E+01  0.53351963878E+02  0.00000000000E+00 0. -1.
        -12    1    6    6    0    0  0.18972862049E+02  0.36700645268E+02  0.33115524183E+02  0.52948510833E+02  0.00000000000E+00 0.  1.
</event>
<event>
12    1  0.8219652E-002  0.2664501E+03  0.7818608E-02  0.1103341E+00
         21   -1    0    0  501  502  0.00000000000E+00  0.00000000000E+00  0.43684677425E+03  0.43684677425E+03  0.00000000000E+00 0.  1.
         21   -1    0    0  502  503 -0.00000000000E+00 -0.00000000000E+00 -0.34405738492E+03  0.34405738492E+03  0.00000000000E+00 0.  1.
         -6    2    1    2    0  503  0.22163442212E+01  0.20212391348E+03 -0.23726139928E+03  0.35677528363E+03  0.17359908652E+03 0.  0.
        -24    2    3    3    0    0 -0.18588374121E+01  0.63347912758E+02 -0.32056913605E+02  0.10897222388E+03  0.82649177491E+02 0.  0.
          6    2    1    2  501    0 -0.22163442212E+01 -0.20212391348E+03  0.33005078862E+03  0.42412887554E+03  0.17347273969E+03 0.  0.
         24    2    5    5    0    0  0.59084965001E+02 -0.16242009018E+03  0.26442904283E+03  0.32583061707E+03  0.79822011674E+02 0.  0.
          5    1    5    5  501    0 -0.61301309222E+02 -0.39703823299E+02  0.65621745789E+02  0.98298258466E+02  0.47000000000E+01 0. -1.
        -11    1    6    6    0    0 -0.37016186259E+01 -0.68396909820E+02  0.15034838332E+03  0.16521645081E+03  0.00000000000E+00 0.  1.
         12    1    6    6    0    0  0.62786583627E+02 -0.94023180361E+02  0.11408065951E+03  0.16061416626E+03  0.00000000000E+00 0. -1.
         -5    1    3    3    0  503  0.40751816333E+01  0.13877600072E+03 -0.20520448568E+03  0.24780305976E+03  0.47000000000E+01 0.  1.
         13    1    4    4    0    0  0.42569974568E+00  0.80772008580E+02 -0.39468153093E+02  0.89900131807E+02  0.00000000000E+00 0. -1.
        -14    1    4    4    0    0 -0.22845371578E+01 -0.17424095822E+02  0.74112394883E+01  0.19072092072E+02  0.00000000000E+00 0.  1.
</event>
<event>
12    1  0.8219652E-002  0.1781103E+03  0.7818608E-02  0.1169916E+00
         21   -1    0    0  503  502  0.00000000000E+00  0.00000000000E+00  0.73308261644E+03  0.73308261644E+03  0.00000000000E+00 0.  1.
         21   -1    0    0  501  503 -0.00000000000E+00 -0.00000000000E+00 -0.43417724237E+02  0.43417724237E+02  0.00000000000E+00 0.  1.
          6    2    1    2  501    0  0.44520698626E+02  0.22717771150E+01  0.38370010981E+03  0.42302372138E+03  0.17244141325E+03 0.  0.
         24    2    3    3    0    0  0.54833005278E+02  0.62193163284E+02  0.22249759918E+03  0.25067159455E+03  0.80351842830E+02 0.  0.
         -6    2    1    2    0  502 -0.44520698626E+02 -0.22717771150E+01  0.30596478239E+03  0.35347661929E+03  0.17130095957E+03 0.  0.
        -24    2    5    5    0    0 -0.36790781705E+02 -0.32709977350E+01  0.32254227099E+03  0.33456489844E+03  0.80844873963E+02 0.  0.
          5    1    3    3  501    0 -0.10312306651E+02 -0.59921386169E+02  0.16120251063E+03  0.17235212683E+03  0.47000000000E+01 0. -1.
        -11    1    4    4    0    0  0.47358119779E+02  0.26164880361E+02  0.20078581525E+03  0.20794791675E+03  0.00000000000E+00 0.  1.
         12    1    4    4    0    0  0.74748854986E+01  0.36028282924E+02  0.21711783929E+02  0.42723677803E+02  0.00000000000E+00 0. -1.
         -5    1    5    5    0  502 -0.77299169209E+01  0.99922062000E+00 -0.16577488601E+02  0.18911720857E+02  0.47000000000E+01 0.  1.
         13    1    6    6    0    0  0.23683133724E+02 -0.82902120188E+01  0.58769048256E+02  0.63901639034E+02  0.00000000000E+00 0. -1.
        -14    1    6    6    0    0 -0.60473915429E+02  0.50192142838E+01  0.26377322273E+03  0.27066325940E+03  0.00000000000E+00 0.  1.
</event>
<event>
12    1  0.8219652E-002  0.1843506E+03  0.7818608E-02  0.1163677E+00
         21   -1    0    0  501  502  0.00000000000E+00  0.00000000000E+00  0.34432937240E+03  0.34432937240E+03  0.00000000000E+00 0.  1.
         21   -1    0    0  502  503 -0.00000000000E+00 -0.00000000000E+00 -0.19425382831E+03  0.19425382831E+03  0.00000000000E+00 0.  1.
         -6    2    1    2    0  503  0.46999653051E+02  0.47376496932E+02 -0.11386786914E+03  0.21668189661E+03  0.17184776067E+03 0.  0.
        -24    2    3    3    0    0 -0.67045981934E+01 -0.10972138430E+02 -0.10985141259E+03  0.13713988397E+03  0.81084372539E+02 0.  0.
          6    2    1    2  501    0 -0.46999653051E+02 -0.47376496932E+02  0.26394341323E+03  0.32190130411E+03  0.17175804014E+03 0.  0.
         24    2    5    5    0    0  0.10115354668E+02 -0.27263390729E+02  0.24346234730E+03  0.25780586582E+03  0.79651346651E+02 0.  0.
          5    1    5    5  501    0 -0.57115007719E+02 -0.20113106204E+02  0.20481065925E+02  0.64095438288E+02  0.47000000000E+01 0. -1.
        -11    1    6    6    0    0  0.24991967675E+02 -0.34958969411E+02  0.61229636069E+02  0.74805055470E+02  0.00000000000E+00 0.  1.
         12    1    6    6    0    0 -0.14876613008E+02  0.76955786827E+01  0.18223271123E+03  0.18300081035E+03  0.00000000000E+00 0. -1.
         -5    1    3    3    0  503  0.53704251244E+02  0.58348635363E+02 -0.40164565499E+01  0.79542012632E+02  0.47000000000E+01 0.  1.
         11    1    4    4    0    0  0.16814316244E+02 -0.18263755181E+02 -0.27052550114E+00  0.24826581886E+02  0.00000000000E+00 0. -1.
        -12    1    4    4    0    0 -0.23518914438E+02  0.72916167506E+01 -0.10958088709E+03  0.11231330209E+03  0.00000000000E+00 0.  1.
</event>
<event>
12    1  0.8219652E-002  0.1858779E+03  0.7818608E-02  0.1163384E+00
         21   -1    0    0  501  502  0.00000000000E+00  0.00000000000E+00  0.48230310868E+02  0.48230310868E+02  0.00000000000E+00 0. -1.
         21   -1    0    0  502  503 -0.00000000000E+00 -0.00000000000E+00 -0.82469845619E+03  0.82469845619E+03  0.00000000000E+00 0.  1.
         -6    2    1    2    0  503 -0.18269292888E+02  0.68498547332E+02 -0.56391355751E+03  0.59375844801E+03  0.17182775152E+03 0.  0.
        -24    2    3    3    0    0 -0.24467637123E+01 -0.15744074455E+02 -0.15176868243E+03  0.17276835334E+03  0.81001903788E+02 0.  0.
          6    2    1    2  501    0  0.18269292888E+02 -0.68498547332E+02 -0.21255458782E+03  0.27917031905E+03  0.16652566225E+03 0.  0.
         24    2    5    5    0    0 -0.42223741109E+02 -0.81841600857E+02 -0.14235429585E+03  0.18542803813E+03  0.75086082830E+02 0.  0.
          5    1    5    5  501    0  0.60493033996E+02  0.13343053525E+02 -0.70200291973E+02  0.93742280923E+02  0.47000000000E+01 0. -1.
        -13    1    6    6    0    0  0.60748647642E+01 -0.66872772554E+02 -0.68501649687E+02  0.95923655585E+02  0.00000000000E+00 0.  1.
         14    1    6    6    0    0 -0.48298605873E+02 -0.14968828303E+02 -0.73852646158E+02  0.89504382544E+02  0.00000000000E+00 0. -1.
         -5    1    3    3    0  503 -0.15822529175E+02  0.84242621787E+02 -0.41214487508E+03  0.42099009467E+03  0.47000000000E+01 0.  1.
         11    1    4    4    0    0  0.60829631435E+01  0.29962907630E+02 -0.31843196732E+02  0.44144846272E+02  0.00000000000E+00 0. -1.
        -12    1    4    4    0    0 -0.85297268559E+01 -0.45706982085E+02 -0.11992548570E+03  0.12862350707E+03  0.00000000000E+00 0.  1.
</event>
<event>
12    1  0.8219652E-002  0.2265366E+03  0.7818608E-02  0.1129299E+00
         21   -1    0    0  501  502  0.00000000000E+00  0.00000000000E+00  0.83392270565E+02  0.83392270565E+02  0.00000000000E+00 0.  1.
         21   -1    0    0  502  503 -0.00000000000E+00 -0.00000000000E+00 -0.61240688213E+03  0.61240688213E+03  0.00000000000E+00 0. -1.
         -6    2    1    2    0  503 -0.13187672847E+03  0.65152829821E+02 -0.26329518427E+03  0.34662062887E+03  0.17083659899E+03 0.  0.
        -24    2    3    3    0    0 -0.10578566357E+02 -0.62107987166E+01 -0.11690999620E+03  0.14350311388E+03  0.82308665369E+02 0.  0.
          6    2    1    2  501    0  0.13187672847E+03 -0.65152829821E+02 -0.26571942729E+03  0.34917852382E+03  0.17228599686E+03 0.  0.
         24    2    5    5    0    0  0.51420954887E+02 -0.61814293146E+02 -0.59764164682E+02  0.12799096195E+03  0.79654312647E+02 0.  0.
          5    1    5    5  501    0  0.80455773580E+02 -0.33385366754E+01 -0.20595526261E+03  0.22118756187E+03  0.47000000000E+01 0. -1.
        -13    1    6    6    0    0  0.72881111846E+02 -0.49714737325E+02 -0.50615171232E+02  0.10171089976E+03  0.00000000000E+00 0.  1.
         14    1    6    6    0    0 -0.21460156959E+02 -0.12099555820E+02 -0.91489934502E+01  0.26280062194E+02  0.00000000000E+00 0. -1.
         -5    1    3    3    0  503 -0.12129816211E+03  0.71363628538E+02 -0.14638518808E+03  0.20311751499E+03  0.47000000000E+01 0.  1.
         11    1    4    4    0    0 -0.26792613834E+02  0.73238195731E+01 -0.11907521372E+03  0.12227178338E+03  0.00000000000E+00 0. -1.
        -12    1    4    4    0    0  0.16214047477E+02 -0.13534618290E+02  0.21652175183E+01  0.21231330499E+02  0.00000000000E+00 0.  1.
</event>
<event>
12    1  0.8219652E-002  0.1883734E+03  0.7818608E-02  0.1160695E+00
         21   -1    0    0  503  502  0.00000000000E+00  0.00000000000E+00  0.45959951426E+03  0.45959951426E+03  0.00000000000E+00 0.  1.
         21   -1    0    0  501  503 -0.00000000000E+00 -0.00000000000E+00 -0.10476846243E+03  0.10476846243E+03  0.00000000000E+00 0.  1.
          6    2    1    2  501    0  0.64657592877E+02 -0.21743750620E+02  0.28068666505E+02  0.18719668324E+03  0.17205043787E+03 0.  0.
         24    2    3    3    0    0  0.74187094269E+02 -0.19295158461E+02  0.83346215551E+02  0.13085394255E+03  0.65575411078E+02 0.  0.
         -6    2    1    2    0  502 -0.64657592877E+02  0.21743750620E+02  0.32676238532E+03  0.37717129344E+03  0.17558796408E+03 0.  0.
        -24    2    5    5    0    0 -0.67834836724E+01 -0.31076188663E+02  0.90105068024E+02  0.12783590821E+03  0.84919673754E+02 0.  0.
          5    1    3    3  501    0 -0.95295013926E+01 -0.24485921599E+01 -0.55277549046E+02  0.56342740694E+02  0.47000000000E+01 0. -1.
        -13    1    4    4    0    0  0.24193670157E+02  0.36873626967E+01 -0.66585732204E+01  0.25362707203E+02  0.00000000000E+00 0.  1.
         14    1    4    4    0    0  0.49993424112E+02 -0.22982521157E+02  0.90004788772E+02  0.10549123535E+03  0.00000000000E+00 0. -1.
         -5    1    5    5    0  502 -0.57874109204E+02  0.52819939284E+02  0.23665731730E+03  0.24933538524E+03  0.47000000000E+01 0.  1.
         13    1    6    6    0    0  0.29596520762E+02  0.12995581556E+02  0.22875283519E+02  0.39599466881E+02  0.00000000000E+00 0. -1.
        -14    1    6    6    0    0 -0.36380004435E+02 -0.44071770219E+02  0.67229784505E+02  0.88236441324E+02  0.00000000000E+00 0.  1.
</event>
<event>
12    1  0.8219652E-002  0.1784697E+03  0.7818608E-02  0.1169336E+00
         21   -1    0    0  501  502  0.00000000000E+00  0.00000000000E+00  0.74298786287E+03  0.74298786287E+03  0.00000000000E+00 0. -1.
         21   -1    0    0  502  503 -0.00000000000E+00 -0.00000000000E+00 -0.15038133789E+03  0.15038133789E+03  0.00000000000E+00 0. -1.
         -6    2    1    2    0  503 -0.41621593270E+02 -0.20710164638E+02 -0.81417103895E+02  0.19616362542E+03  0.17230831433E+03 0.  0.
        -24    2    3    3    0    0  0.11629897916E+02  0.22951017023E+02  0.65025796037E+01  0.84387148274E+02  0.80105577486E+02 0.  0.
          6    2    1    2  501    0  0.41621593270E+02  0.20710164638E+02  0.67402362888E+03  0.69720557533E+03  0.17212348486E+03 0.  0.
         24    2    5    5    0    0 -0.10108107414E+02 -0.37757795168E+02  0.47932463818E+03  0.48738600705E+03  0.79152928975E+02 0.  0.
          5    1    5    5  501    0  0.51729700684E+02  0.58467959806E+02  0.19469899069E+03  0.20981956828E+03  0.47000000000E+01 0. -1.
        -13    1    6    6    0    0  0.42515104433E+01 -0.33849709987E+01 -0.10787444418E+01  0.55404926931E+01  0.00000000000E+00 0.  1.
         14    1    6    6    0    0 -0.14359617857E+02 -0.34372824170E+02  0.48040338263E+03  0.48184551435E+03  0.00000000000E+00 0. -1.
         -5    1    3    3    0  503 -0.53251491186E+02 -0.43661181661E+02 -0.87919683498E+02  0.11177647715E+03  0.47000000000E+01 0.  1.
         11    1    4    4    0    0  0.35051897532E+02  0.36073182033E+02  0.20253851500E+02  0.54222951628E+02  0.00000000000E+00 0. -1.
        -12    1    4    4    0    0 -0.23421999616E+02 -0.13122165010E+02 -0.13751271897E+02  0.30164196647E+02  0.00000000000E+00 0.  1.
</event>
<event>
12    1  0.8219652E-002  0.2462473E+03  0.7818608E-02  0.1115737E+00
         21   -1    0    0  503  502  0.00000000000E+00  0.00000000000E+00  0.61147169919E+02  0.61147169919E+02  0.00000000000E+00 0.  1.
         21   -1    0    0  501  503 -0.00000000000E+00 -0.00000000000E+00 -0.10968777653E+04  0.10968777653E+04  0.00000000000E+00 0. -1.
          6    2    1    2  501    0  0.87189476839E+02  0.15235374300E+03 -0.69776693977E+03  0.73986565338E+03  0.17236245220E+03 0.  0.
         24    2    3    3    0    0 -0.13013540515E+02  0.88624835142E+02 -0.27131197168E+03  0.29716039228E+03  0.81672511453E+02 0.  0.
         -6    2    1    2    0  502 -0.87189476839E+02 -0.15235374300E+03 -0.33796365562E+03  0.41815928185E+03  0.17269651011E+03 0.  0.
        -24    2    5    5    0    0 -0.47985714318E+02 -0.43828208978E+02 -0.25653412743E+03  0.27685257787E+03  0.81326813883E+02 0.  0.
          5    1    3    3  501    0  0.10020301735E+03  0.63728907854E+02 -0.42645496810E+03  0.44270526109E+03  0.47000000000E+01 0. -1.
        -11    1    4    4    0    0 -0.17030062151E+01 -0.64242306127E+01  0.24991143669E+01  0.71004606719E+01  0.00000000000E+00 0.  1.
         12    1    4    4    0    0 -0.11310534300E+02  0.95049065754E+02 -0.27381108604E+03  0.29005993161E+03  0.00000000000E+00 0. -1.
         -5    1    5    5    0  502 -0.39203762522E+02 -0.10852553402E+03 -0.81429528187E+02  0.14130670398E+03  0.47000000000E+01 0.  1.
         13    1    6    6    0    0 -0.42195493105E+02 -0.67233320467E+02 -0.18322042390E+03  0.19967599443E+03  0.00000000000E+00 0. -1.
        -14    1    6    6    0    0 -0.57902212126E+01  0.23405111489E+02 -0.73313703532E+02  0.77176583437E+02  0.00000000000E+00 0.  1.
</event>
<event>
12    1  0.8219652E-002  0.2620524E+03  0.7818608E-02  0.1105919E+00
         21   -1    0    0  501  502  0.00000000000E+00  0.00000000000E+00  0.17783299577E+03  0.17783299577E+03  0.00000000000E+00 0.  1.
         21   -1    0    0  502  503 -0.00000000000E+00 -0.00000000000E+00 -0.38665573653E+03  0.38665573653E+03  0.00000000000E+00 0.  1.
         -6    2    1    2    0  503  0.29739920151E+02 -0.19569007770E+03 -0.94017943348E+02  0.27839154589E+03  0.17170733762E+03 0.  0.
        -24    2    3    3    0    0 -0.12569024396E+02 -0.71793128117E+02 -0.10004284768E+03  0.14724700587E+03  0.79755098574E+02 0.  0.
          6    2    1    2  501    0 -0.29739920151E+02  0.19569007770E+03 -0.11480479741E+03  0.28609718641E+03  0.17173348307E+03 0.  0.
         24    2    5    5    0    0  0.76489298508E+01  0.20590467442E+03 -0.88166501219E+02  0.23883247532E+03  0.82537132590E+02 0.  0.
          5    1    5    5  501    0 -0.37388850002E+02 -0.10214596721E+02 -0.26638296192E+02  0.47264711092E+02  0.47000000000E+01 0. -1.
        -11    1    6    6    0    0  0.23629132252E+02  0.82757284537E+02  0.80676484192E+00  0.86068315334E+02  0.00000000000E+00 0.  1.
         12    1    6    6    0    0 -0.15980202401E+02  0.12314738988E+03 -0.88973266061E+02  0.15276415999E+03  0.00000000000E+00 0. -1.
         -5    1    3    3    0  503  0.42308944546E+02 -0.12389694958E+03  0.60249043294E+01  0.13114454002E+03  0.47000000000E+01 0.  1.
         11    1    4    4    0    0  0.12022115171E+02 -0.14012001850E+02  0.96640906430E+01  0.20838956235E+02  0.00000000000E+00 0. -1.
        -12    1    4    4    0    0 -0.24591139567E+02 -0.57781126268E+02 -0.10970693832E+03  0.12640804964E+03  0.00000000000E+00 0.  1.
</event>
<event>
12    1  0.8219652E-002  0.1760549E+03  0.7818608E-02  0.1171766E+00
         21   -1    0    0  501  502  0.00000000000E+00  0.00000000000E+00  0.27544821461E+03  0.27544821461E+03  0.00000000000E+00 0.  1.
         21   -1    0    0  502  503 -0.00000000000E+00 -0.00000000000E+00 -0.12934320159E+03  0.12934320159E+03  0.00000000000E+00 0.  1.
         -6    2    1    2    0  503  0.28652972557E+02  0.18490459491E+02 -0.48321473795E+00  0.17569879476E+03  0.17235702206E+03 0.  0.
        -24    2    3    3    0    0  0.47722560358E+02  0.12612153908E+02  0.59811003211E+02  0.11201452375E+03  0.80829377290E+02 0.  0.
          6    2    1    2  501    0 -0.28652972557E+02 -0.18490459491E+02  0.14658822776E+03  0.22909262144E+03  0.17272067262E+03 0.  0.
         24    2    5    5    0    0  0.36507273941E+01 -0.36787143496E+02  0.11476867021E+02  0.88894663258E+02  0.80024502135E+02 0.  0.
          5    1    5    5  501    0 -0.32303699951E+02  0.18296684005E+02  0.13511136074E+03  0.14019795818E+03  0.47000000000E+01 0. -1.
        -13    1    6    6    0    0 -0.17337091198E+01  0.23825625010E+02  0.14540886953E+02  0.27966114278E+02  0.00000000000E+00 0.  1.
         14    1    6    6    0    0  0.53844365139E+01 -0.60612768507E+02 -0.30640199324E+01  0.60928548980E+02  0.00000000000E+00 0. -1.
         -5    1    3    3    0  503 -0.19069587802E+02  0.58783055826E+01 -0.60294217949E+02  0.63684271005E+02  0.47000000000E+01 0.  1.
         11    1    4    4    0    0 -0.15680754083E+02  0.23212376801E+02  0.71385567473E+01  0.28907775386E+02  0.00000000000E+00 0. -1.
        -12    1    4    4    0    0  0.63403314442E+02 -0.10600222892E+02  0.52672446463E+02  0.83106748366E+02  0.00000000000E+00 0.  1.
</event>
<event>
12    1  0.8219652E-002  0.1938024E+03  0.7818608E-02  0.1155505E+00
         21   -1    0    0  503  502  0.00000000000E+00  0.00000000000E+00  0.83679125208E+02  0.83679125208E+02  0.00000000000E+00 0.  1.
         21   -1    0    0  501  503 -0.00000000000E+00 -0.00000000000E+00 -0.44977584669E+03  0.44977584669E+03  0.00000000000E+00 0. -1.
          6    2    1    2  501    0  0.84804178097E+02  0.20022792776E+02 -0.21322844505E+03  0.28814189515E+03  0.17310898621E+03 0.  0.
         24    2    3    3    0    0  0.67517208988E+02  0.80118668781E+02 -0.12529264545E+03  0.18013657831E+03  0.75982664102E+02 0.  0.
         -6    2    1    2    0  502 -0.84804178097E+02 -0.20022792776E+02 -0.15286827644E+03  0.24531307676E+03  0.17093020457E+03 0.  0.
        -24    2    5    5    0    0 -0.80279230744E+02 -0.29820770523E+01 -0.18004845749E+03  0.21257604294E+03  0.79482572416E+02 0.  0.
          5    1    3    3  501    0  0.17286969109E+02 -0.60095876005E+02 -0.87935799603E+02  0.10800531684E+03  0.47000000000E+01 0. -1.
        -13    1    4    4    0    0  0.54042734220E+02  0.12615838160E+02 -0.81333773114E+02  0.98462983620E+02  0.00000000000E+00 0.  1.
         14    1    4    4    0    0  0.13474474768E+02  0.67502830621E+02 -0.43958872334E+02  0.81673594686E+02  0.00000000000E+00 0. -1.
         -5    1    5    5    0  502 -0.45249473530E+01 -0.17040715723E+02  0.27180181050E+02  0.32737033812E+02  0.47000000000E+01 0.  1.
         11    1    6    6    0    0 -0.59966284218E+02 -0.38976289765E+02 -0.11947229431E+03  0.13924343976E+03  0.00000000000E+00 0. -1.
        -12    1    6    6    0    0 -0.20312946525E+02  0.35994212713E+02 -0.60576163175E+02  0.73332603188E+02  0.00000000000E+00 0.  1.
</event>
<event>
12    1  0.8219652E-002  0.2285453E+03  0.7818608E-02  0.1127932E+00
         21   -1    0    0  503  502  0.00000000000E+00  0.00000000000E+00  0.49419492015E+02  0.49419492015E+02  0.00000000000E+00 0.  1.
         21   -1    0    0  501  503 -0.00000000000E+00 -0.00000000000E+00 -0.23376325943E+04  0.23376325943E+04  0.00000000000E+00 0.  1.
          6    2    1    2  501    0  0.14099355391E+03  0.47870778689E+02 -0.20315662698E+04  0.20443811966E+04  0.17338447096E+03 0.  0.
         24    2    3    3    0    0  0.53289654243E+02  0.24384277614E+02 -0.16165143134E+04  0.16194884969E+04  0.78677099248E+02 0.  0.
         -6    2    1    2    0  502 -0.14099355391E+03 -0.47870778689E+02 -0.25664683251E+03  0.34267088973E+03  0.17142038482E+03 0.  0.
        -24    2    5    5    0    0 -0.57083156413E+01 -0.47025707560E+02 -0.10015443779E+03  0.13575358875E+03  0.78448221205E+02 0.  0.
          5    1    3    3  501    0  0.87703899670E+02  0.23486501075E+02 -0.41505195644E+03  0.42489269974E+03  0.47000000000E+01 0. -1.
        -13    1    4    4    0    0  0.42571922823E+02 -0.18914910034E+02 -0.52487717205E+03  0.52694040286E+03  0.00000000000E+00 0.  1.
         14    1    4    4    0    0  0.10717731419E+02  0.43299187648E+02 -0.10916371413E+04  0.10925480940E+04  0.00000000000E+00 0. -1.
         -5    1    5    5    0  502 -0.13528523827E+03 -0.84507112931E+00 -0.15649239472E+03  0.20691730098E+03  0.47000000000E+01 0.  1.
         13    1    6    6    0    0  0.24390592963E+02 -0.53288943744E+01 -0.73921728017E+02  0.78023842595E+02  0.00000000000E+00 0. -1.
        -14    1    6    6    0    0 -0.30098908604E+02 -0.41696813185E+02 -0.26232709774E+02  0.57729746154E+02  0.00000000000E+00 0.  1.
</event>
<event>
12    1  0.8219652E-002  0.1732854E+03  0.7818608E-02  0.1174808E+00
         21   -1    0    0  501  502  0.00000000000E+00  0.00000000000E+00  0.17641278416E+03  0.17641278416E+03  0.00000000000E+00 0.  1.
         21   -1    0    0  502  503 -0.00000000000E+00 -0.00000000000E+00 -0.19226315811E+03  0.19226315811E+03  0.00000000000E+00 0.  1.
         -6    2    1    2    0  503  0.65739308996E+01 -0.16219733462E+02 -0.72164738239E+02  0.18646967078E+03  0.17104646256E+03 0.  0.
        -24    2    3    3    0    0 -0.44198161211E+02  0.18065241805E+02 -0.76491246481E+02  0.12487361945E+03  0.86386802406E+02 0.  0.
          6    2    1    2  501    0 -0.65739308996E+01  0.16219733462E+02  0.56314364293E+02  0.18220627149E+03  0.17239930808E+03 0.  0.
         24    2    5    5    0    0 -0.17815512535E+02  0.46041548541E+02  0.93854929279E+02  0.13273812182E+03  0.79833855954E+02 0.  0.
          5    1    5    5  501    0  0.11241581636E+02 -0.29821815079E+02 -0.37540564986E+02  0.49468149670E+02  0.47000000000E+01 0. -1.
        -13    1    6    6    0    0 -0.39812215889E+01 -0.17230917020E+02 -0.11886322212E+01  0.17724770048E+02  0.00000000000E+00 0.  1.
         14    1    6    6    0    0 -0.13834290946E+02  0.63272465561E+02  0.95043561501E+02  0.11501335178E+03  0.00000000000E+00 0. -1.
         -5    1    3    3    0  503  0.50772092110E+02 -0.34284975266E+02  0.43265082426E+01  0.61596051333E+02  0.47000000000E+01 0.  1.
         11    1    4    4    0    0 -0.26512410948E+02 -0.34337145354E+02 -0.34753909085E+02  0.55585804681E+02  0.00000000000E+00 0. -1.
        -12    1    4    4    0    0 -0.17685750262E+02  0.52402387158E+02 -0.41737337396E+02  0.69287814767E+02  0.00000000000E+00 0.  1.
</event>
<event>
12    1  0.8219652E-002  0.1777153E+03  0.7818608E-02  0.1171189E+00
         21   -1    0    0  503  502  0.00000000000E+00  0.00000000000E+00  0.52394954345E+02  0.52394954345E+02  0.00000000000E+00 0.  1.
         21   -1    0    0  501  503 -0.00000000000E+00 -0.00000000000E+00 -0.58829872047E+03  0.58829872047E+03  0.00000000000E+00 0.  1.
          6    2    1    2  501    0 -0.22391324760E+00  0.41350584711E+02 -0.27848965211E+03  0.32789220435E+03  0.16806811223E+03 0.  0.
         24    2    3    3    0    0 -0.59486438947E+02  0.39903628518E+02 -0.21603225729E+03  0.24165325258E+03  0.81212205406E+02 0.  0.
         -6    2    1    2    0  502  0.22391324760E+00 -0.41350584711E+02 -0.25741411402E+03  0.31280147047E+03  0.17283753307E+03 0.  0.
        -24    2    5    5    0    0 -0.34985477305E+02  0.89944198777E+01 -0.29391042453E+02  0.76600429324E+02  0.60818658198E+02 0.  0.
          5    1    3    3  501    0  0.59262525699E+02  0.14469561930E+01 -0.62457394821E+02  0.86238951770E+02  0.47000000000E+01 0. -1.
        -13    1    4    4    0    0 -0.15313050109E+02  0.47170755820E+01  0.22530381312E+01  0.16180744313E+02  0.00000000000E+00 0.  1.
         14    1    4    4    0    0 -0.44173388838E+02  0.35186552936E+02 -0.21828529542E+03  0.22547250827E+03  0.00000000000E+00 0. -1.
         -5    1    5    5    0  502  0.35209390552E+02 -0.50345004589E+02 -0.22802307157E+03  0.23620104114E+03  0.47000000000E+01 0.  1.
         13    1    6    6    0    0 -0.19326672678E+02  0.27115673116E+02 -0.38567382305E+02  0.50953144978E+02  0.00000000000E+00 0. -1.
        -14    1    6    6    0    0 -0.15658804627E+02 -0.18121253238E+02  0.91763398515E+01  0.25647284346E+02  0.00000000000E+00 0.  1.
</event>
<event>
12    1  0.8219652E-002  0.2519476E+03  0.7818608E-02  0.1113042E+00
         21   -1    0    0  503  502  0.00000000000E+00  0.00000000000E+00  0.14169478475E+03  0.14169478475E+03  0.00000000000E+00 0. -1.
         21   -1    0    0  501  503 -0.00000000000E+00 -0.00000000000E+00 -0.63631176362E+03  0.63631176362E+03  0.00000000000E+00 0.  1.
          6    2    1    2  501    0 -0.11729101508E+03  0.13176689891E+03 -0.46694140304E+03  0.53057692534E+03  0.17988302301E+03 0.  0.
         24    2    3    3    0    0  0.67328206496E-02  0.66235904312E+02 -0.63019422566E+02  0.10486795289E+03  0.51367741412E+02 0.  0.
         -6    2    1    2    0  502  0.11729101508E+03 -0.13176689891E+03 -0.27675575835E+02  0.24742962303E+03  0.17127691902E+03 0.  0.
        -24    2    5    5    0    0  0.12865026463E+03 -0.58026532534E+02 -0.50352137905E+02  0.16930798294E+03  0.78815520228E+02 0.  0.
          5    1    3    3  501    0 -0.11729774790E+03  0.65530994595E+02 -0.40392198048E+03  0.42570897245E+03  0.47000000000E+01 0. -1.
        -13    1    4    4    0    0  0.41281809167E+01  0.14129358523E+02 -0.48405433864E+02  0.50594136790E+02  0.00000000000E+00 0.  1.
         14    1    4    4    0    0 -0.41214480961E+01  0.52106545789E+02 -0.14613988702E+02  0.54273816102E+02  0.00000000000E+00 0. -1.
         -5    1    5    5    0  502 -0.11359249549E+02 -0.73740366372E+02  0.22676562070E+02  0.78121640090E+02  0.47000000000E+01 0.  1.
         13    1    6    6    0    0  0.41489251971E+02 -0.16146633344E+02  0.20909751920E+02  0.49186273724E+02  0.00000000000E+00 0. -1.
        -14    1    6    6    0    0  0.87161012654E+02 -0.41879899190E+02 -0.71261889825E+02  0.12012170921E+03  0.00000000000E+00 0.  1.
</event>
<event>
12    1  0.8219652E-002  0.1768143E+03  0.7818608E-02  0.1171071E+00
         21   -1    0    0  501  502  0.00000000000E+00  0.00000000000E+00  0.21389538817E+03  0.21389538817E+03  0.00000000000E+00 0.  1.
         21   -1    0    0  502  503 -0.00000000000E+00 -0.00000000000E+00 -0.20283046626E+03  0.20283046626E+03  0.00000000000E+00 0.  1.
         -6    2    1    2    0  503 -0.42124470748E+02 -0.18541177361E+01 -0.10507596336E+03  0.20567998094E+03  0.17171309705E+03 0.  0.
        -24    2    3    3    0    0 -0.21029344951E+01 -0.53540918415E+02 -0.17900008460E+02  0.96615844581E+02  0.78378305947E+02 0.  0.
          6    2    1    2  501    0  0.42124470748E+02  0.18541177361E+01  0.11614088526E+03  0.21104587349E+03  0.17109572379E+03 0.  0.
         24    2    5    5    0    0  0.12030190821E+02 -0.45741950485E+02  0.12474859094E+03  0.15388614998E+03  0.76692142290E+02 0.  0.
          5    1    5    5  501    0  0.30094279927E+02  0.47596068222E+02 -0.86077056768E+01  0.57159723508E+02  0.47000000000E+01 0. -1.
        -13    1    6    6    0    0  0.35780535066E+02 -0.10995962847E+02  0.95664576732E+02  0.10272715868E+03  0.00000000000E+00 0.  1.
         14    1    6    6    0    0 -0.23750344246E+02 -0.34745987638E+02  0.29084014208E+02  0.51158991304E+02  0.00000000000E+00 0. -1.
         -5    1    3    3    0  503 -0.40021536252E+02  0.51686800679E+02 -0.87175954895E+02  0.10906413636E+03  0.47000000000E+01 0.  1.
         13    1    4    4    0    0  0.74262359004E+01  0.46894503523E+01  0.23134127533E+02  0.24745257747E+02  0.00000000000E+00 0. -1.
        -14    1    4    4    0    0 -0.95291703955E+01 -0.58230368768E+02 -0.41034135993E+02  0.71870586834E+02  0.00000000000E+00 0.  1.
</event>
<event>
12    1  0.8219652E-002  0.2346255E+03  0.7818608E-02  0.1124115E+00
         21   -1    0    0  501  502  0.00000000000E+00  0.00000000000E+00  0.26532706125E+04  0.26532706125E+04  0.00000000000E+00 0.  1.
         21   -1    0    0  502  503 -0.00000000000E+00 -0.00000000000E+00 -0.37345850496E+02  0.37345850496E+02  0.00000000000E+00 0. -1.
         -6    2    1    2    0  503 -0.12052612941E+03  0.97514397668E+02  0.39556546647E+03  0.45789513886E+03  0.17076391395E+03 0.  0.
        -24    2    3    3    0    0 -0.10963925083E+03  0.13011907534E+03  0.28047408003E+03  0.33768820743E+03  0.80099168410E+02 0.  0.
          6    2    1    2  501    0  0.12052612941E+03 -0.97514397668E+02  0.22203592955E+04  0.22327213241E+04  0.17610651422E+03 0.  0.
         24    2    5    5    0    0  0.13653788247E+03 -0.24960916586E+02  0.15251286523E+04  0.15335159743E+04  0.79926196318E+02 0.  0.
          5    1    5    5  501    0 -0.16011753064E+02 -0.72553481083E+02  0.69523064322E+03  0.69920534976E+03  0.47000000000E+01 0. -1.
        -13    1    6    6    0    0  0.40433419163E+02 -0.32167125754E+02  0.28480320476E+03  0.28945198359E+03  0.00000000000E+00 0.  1.
         14    1    6    6    0    0  0.96104463308E+02  0.72062091677E+01  0.12403254475E+04  0.12440639908E+04  0.00000000000E+00 0. -1.
         -5    1    3    3    0  503 -0.10886878580E+02 -0.32604677674E+02  0.11509138644E+03  0.12020693143E+03  0.47000000000E+01 0.  1.
         13    1    4    4    0    0 -0.98028882160E+02  0.92022480706E+02  0.15079868519E+03  0.20203475480E+03  0.00000000000E+00 0. -1.
        -14    1    4    4    0    0 -0.11610368666E+02  0.38096594636E+02  0.12967539484E+03  0.13565345263E+03  0.00000000000E+00 0.  1.
</event>
<event>
12    1  0.8219652E-002  0.1812324E+03  0.7818608E-02  0.1167141E+00
         21   -1    0    0  503  502  0.00000000000E+00  0.00000000000E+00  0.44122551399E+03  0.44122551399E+03  0.00000000000E+00 0. -1.
         21   -1    0    0  501  503 -0.00000000000E+00 -0.00000000000E+00 -0.14860521957E+03  0.14860521957E+03  0.00000000000E+00 0. -1.
          6    2    1    2  501    0 -0.22101116903E+02 -0.43463813435E+02 -0.62841546978E+02  0.19181829198E+03  0.17454980569E+03 0.  0.
         24    2    3    3    0    0 -0.79991068880E+02 -0.46654309155E+02 -0.49401151105E+02  0.13211770535E+03  0.80245988517E+02 0.  0.
         -6    2    1    2    0  502  0.22101116903E+02  0.43463813435E+02  0.35546184140E+03  0.39801244158E+03  0.17228819029E+03 0.  0.
        -24    2    5    5    0    0  0.71491148741E+02 -0.24781765199E+01  0.18095573189E+03  0.21086406744E+03  0.81249937391E+02 0.  0.
          5    1    3    3  501    0  0.57889951977E+02  0.31904957197E+01 -0.13440395874E+02  0.59700586631E+02  0.47000000000E+01 0. -1.
        -11    1    4    4    0    0 -0.11264667479E+02 -0.46511142348E+02 -0.65726197065E+00  0.47860328972E+02  0.00000000000E+00 0.  1.
         12    1    4    4    0    0 -0.68726401400E+02 -0.14316680623E+00 -0.48743889134E+02  0.84257376378E+02  0.00000000000E+00 0. -1.
         -5    1    5    5    0  502 -0.49390031839E+02  0.45941989955E+02  0.17450610951E+03  0.18714837414E+03  0.47000000000E+01 0.  1.
         11    1    6    6    0    0 -0.14485727350E+02  0.56903021255E-01  0.64385402785E+02  0.65994845455E+02  0.00000000000E+00 0. -1.
        -12    1    6    6    0    0  0.85976876092E+02 -0.25350795412E+01  0.11657032910E+03  0.14486922198E+03  0.00000000000E+00 0.  1.
</event>
<event>
12    1  0.8219652E-002  0.2495701E+03  0.7818608E-02  0.1113747E+00
         21   -1    0    0  503  502  0.00000000000E+00  0.00000000000E+00  0.34327518730E+03  0.34327518730E+03  0.00000000000E+00 0.  1.
         21   -1    0    0  501  503 -0.00000000000E+00 -0.00000000000E+00 -0.50328446497E+03  0.50328446497E+03  0.00000000000E+00 0. -1.
          6    2    1    2  501    0  0.89179702920E+02  0.15760930869E+03 -0.41896152453E+03  0.48766176671E+03  0.17173097005E+03 0.  0.
         24    2    3    3    0    0 -0.13077844962E+02  0.10548486344E+03 -0.23699471051E+03  0.27246981682E+03  0.82311735650E+02 0.  0.
         -6    2    1    2    0  502 -0.89179702920E+02 -0.15760930869E+03  0.25895224686E+03  0.35889788556E+03  0.17016965801E+03 0.  0.
        -24    2    5    5    0    0 -0.12697640529E+03 -0.11716718862E+03  0.18297490304E+03  0.26477667350E+03  0.82314725890E+02 0.  0.
          5    1    3    3  501    0  0.10225754788E+03  0.52124445250E+02 -0.18196681403E+03  0.21519194989E+03  0.47000000000E+01 0. -1.
        -11    1    4    4    0    0 -0.26201822421E+02  0.22579763261E+02 -0.13994984204E+03  0.14416081123E+03  0.00000000000E+00 0.  1.
         12    1    4    4    0    0  0.13123977459E+02  0.82905100175E+02 -0.97044868464E+02  0.12830900559E+03  0.00000000000E+00 0. -1.
         -5    1    5    5    0  502  0.37796702370E+02 -0.40442120071E+02  0.75977343818E+02  0.94121212059E+02  0.47000000000E+01 0.  1.
         11    1    6    6    0    0  0.63184429301E+01 -0.33136001048E+02  0.29448641579E+02  0.44778787136E+02  0.00000000000E+00 0. -1.
        -12    1    6    6    0    0 -0.13329484822E+03 -0.84031187567E+02  0.15352626146E+03  0.21999788637E+03  0.00000000000E+00 0.  1.
</event>
<event>
12    1  0.8219652E-002  0.1814651E+03  0.7818608E-02  0.1168163E+00
         21   -1    0    0  503  502  0.00000000000E+00  0.00000000000E+00  0.12693360481E+03  0.12693360481E+03  0.00000000000E+00 0.  1.
         21   -1    0    0  501  503 -0.00000000000E+00 -0.00000000000E+00 -0.25433560201E+03  0.25433560201E+03  0.00000000000E+00 0.  1.
          6    2    1    2  501    0  0.16544038754E+02 -0.55883875973E+02 -0.92094829885E+02  0.20349705254E+03  0.17185133078E+03 0.  0.
         24    2    3    3    0    0 -0.50703498377E+02 -0.60346721937E+02 -0.45265951005E+02  0.12129497142E+03  0.80317446262E+02 0.  0.
         -6    2    1    2    0  502 -0.16544038754E+02  0.55883875973E+02 -0.35307167324E+02  0.17777215428E+03  0.16419387918E+03 0.  0.
        -24    2    5    5    0    0 -0.56719985722E+02  0.71076963008E+02  0.97824416594E+00  0.12134824361E+03  0.80345179159E+02 0.  0.
          5    1    3    3  501    0  0.67247537131E+02  0.44628459647E+01 -0.46828878880E+02  0.82202081126E+02  0.47000000000E+01 0. -1.
        -11    1    4    4    0    0 -0.52357177920E+02 -0.19615956464E+02  0.55079765863E+01  0.56181826544E+02  0.00000000000E+00 0.  1.
         12    1    4    4    0    0  0.16536795428E+01 -0.40730765473E+02 -0.50773927591E+02  0.65113144872E+02  0.00000000000E+00 0. -1.
         -5    1    5    5    0  502  0.40175946968E+02 -0.15193087035E+02 -0.36285411489E+02  0.56423910671E+02  0.47000000000E+01 0.  1.
         13    1    6    6    0    0 -0.31080817897E+01  0.62695351407E+02  0.16507756794E+02  0.64906650621E+02  0.00000000000E+00 0. -1.
        -14    1    6    6    0    0 -0.53611903932E+02  0.83816116005E+01 -0.15529512628E+02  0.56441592985E+02  0.00000000000E+00 0.  1.
</event>
<event>
12    1  0.8219652E-002  0.1875728E+03  0.7818608E-02  0.1161377E+00
         21   -1    0    0  503  502  0.00000000000E+00  0.00000000000E+00  0.71395459790E+03  0.71395459790E+03  0.00000000000E+00 0. -1.
         21   -1    0    0  501  503 -0.00000000000E+00 -0.00000000000E+00 -0.48754851795E+02  0.48754851795E+02  0.00000000000E+00 0. -1.
          6    2    1    2  501    0  0.54199269287E+02  0.53330695974E+02  0.36401461477E+03  0.40949993218E+03  0.17146962054E+03 0.  0.
         24    2    3    3    0    0  0.70567067787E+02  0.87219876615E+02  0.33262656609E+03  0.36026903749E+03  0.81032888212E+02 0.  0.
         -6    2    1    2    0  502 -0.54199269287E+02 -0.53330695974E+02  0.30118513134E+03  0.35320951752E+03  0.16811530567E+03 0.  0.
        -24    2    5    5    0    0 -0.18108012879E+02 -0.24528430143E+02  0.29391394208E+03  0.30622963353E+03  0.80384321159E+02 0.  0.
          5    1    3    3  501    0 -0.16367798500E+02 -0.33889180642E+02  0.31388048679E+02  0.49230894692E+02  0.47000000000E+01 0. -1.
        -11    1    4    4    0    0  0.34211671257E+02  0.15750010785E+02  0.21267706554E+03  0.21598619283E+03  0.00000000000E+00 0.  1.
         12    1    4    4    0    0  0.36355396530E+02  0.71469865831E+02  0.11994950055E+03  0.14428284465E+03  0.00000000000E+00 0. -1.
         -5    1    5    5    0  502 -0.36091256408E+02 -0.28802265830E+02  0.72711892614E+01  0.46979883986E+02  0.47000000000E+01 0.  1.
         11    1    6    6    0    0 -0.45018255274E+02 -0.16183083741E+02  0.10704042964E+03  0.11724414307E+03  0.00000000000E+00 0. -1.
        -12    1    6    6    0    0  0.26910242395E+02 -0.83453464025E+01  0.18687351244E+03  0.18898549046E+03  0.00000000000E+00 0.  1.
</event>
<event>
12    1  0.8219652E-002  0.1804130E+03  0.7818608E-02  0.1167562E+00
         21   -1    0    0  503  502  0.00000000000E+00  0.00000000000E+00  0.83668145631E+02  0.83668145631E+02  0.00000000000E+00 0.  1.
         21   -1    0    0  501  503 -0.00000000000E+00 -0.00000000000E+00 -0.41502474820E+03  0.41502474820E+03  0.00000000000E+00 0.  1.
          6    2    1    2  501    0  0.42464513570E+02  0.30383410549E+02 -0.10131773706E+03  0.20634593870E+03  0.17200865102E+03 0.  0.
         24    2    3    3    0    0  0.90976723633E+02  0.41962571390E+02 -0.61373106868E+02  0.14227429932E+03  0.80235256341E+02 0.  0.
         -6    2    1    2    0  502 -0.42464513570E+02 -0.30383410549E+02 -0.23003886551E+03  0.29234695513E+03  0.17269185268E+03 0.  0.
        -24    2    5    5    0    0 -0.53840425243E+02 -0.19369137019E+02 -0.47112209590E+02  0.10867611631E+03  0.79479450839E+02 0.  0.
          5    1    3    3  501    0 -0.48512210063E+02 -0.11579160841E+02 -0.39944630195E+02  0.64071639376E+02  0.47000000000E+01 0. -1.
        -11    1    4    4    0    0  0.16555572937E+02  0.45158124642E+02 -0.45297429510E+02  0.66069662756E+02  0.00000000000E+00 0.  1.
         12    1    4    4    0    0  0.74421150696E+02 -0.31955532517E+01 -0.16075677357E+02  0.76204636565E+02  0.00000000000E+00 0. -1.
         -5    1    5    5    0  502  0.11375911673E+02 -0.11014273531E+02 -0.18292665592E+03  0.18367083882E+03  0.47000000000E+01 0.  1.
         11    1    6    6    0    0 -0.18103593686E+02  0.25042475874E+02 -0.41006053186E+02  0.51345516846E+02  0.00000000000E+00 0. -1.
        -12    1    6    6    0    0 -0.35736831557E+02 -0.44411612893E+02 -0.61061564040E+01  0.57330599469E+02  0.00000000000E+00 0.  1.
</event>
<event>
12    1  0.8219652E-002  0.1920561E+03  0.7818608E-02  0.1157148E+00
         21   -1    0    0  501  502  0.00000000000E+00  0.00000000000E+00  0.51771872522E+03  0.51771872522E+03  0.00000000000E+00 0.  1.
         21   -1    0    0  502  503 -0.00000000000E+00 -0.00000000000E+00 -0.25556868807E+03  0.25556868807E+03  0.00000000000E+00 0. -1.
         -6    2    1    2    0  503  0.57498761112E+02 -0.64111328486E+02 -0.19827892795E+03  0.27440828805E+03  0.16902368270E+03 0.  0.
        -24    2    3    3    0    0  0.98474327572E+02 -0.73662800668E+02 -0.14015062322E+03  0.20249711035E+03  0.78990386236E+02 0.  0.
          6    2    1    2  501    0 -0.57498761112E+02  0.64111328486E+02  0.46042896510E+03  0.49887912524E+03  0.17166589565E+03 0.  0.
         24    2    5    5    0    0 -0.42654686217E+02  0.10997050530E+03  0.31122393556E+03  0.34201089552E+03  0.78728522747E+02 0.  0.
          5    1    5    5  501    0 -0.14844074895E+02 -0.45859176811E+02  0.14920502954E+03  0.15686822973E+03  0.47000000000E+01 0. -1.
        -13    1    6    6    0    0 -0.33233265731E+02  0.26327880734E+02  0.18840823717E+03  0.19311983609E+03  0.00000000000E+00 0.  1.
         14    1    6    6    0    0 -0.94214204858E+01  0.83642624562E+02  0.12281569839E+03  0.14889105943E+03  0.00000000000E+00 0. -1.
         -5    1    3    3    0  503 -0.40975566460E+02  0.95514721822E+01 -0.58128304738E+02  0.71911177708E+02  0.47000000000E+01 0.  1.
         13    1    4    4    0    0  0.77718294185E+01 -0.39053447978E+02 -0.76991362945E+02  0.86678965728E+02  0.00000000000E+00 0. -1.
        -14    1    4    4    0    0  0.90702498153E+02 -0.34609352690E+02 -0.63159260271E+02  0.11581814462E+03  0.00000000000E+00 0.  1.
</event>
<event>
12    1  0.8219652E-002  0.2657564E+03  0.7818608E-02  0.1104326E+00
         21   -1    0    0  501  502  0.00000000000E+00  0.00000000000E+00  0.79688588479E+02  0.79688588479E+02  0.00000000000E+00 0.  1.
         21   -1    0    0  502  503 -0.00000000000E+00 -0.00000000000E+00 -0.88325380499E+03  0.88325380499E+03  0.00000000000E+00 0. -1.
         -6    2    1    2    0  503  0.15600944685E+03 -0.12027444025E+03 -0.35268569275E+03  0.44160350338E+03  0.17838600797E+03 0.  0.
        -24    2    3    3    0    0  0.18725901730E+03 -0.92502814158E+02 -0.30396088968E+03  0.37722963210E+03  0.79292261215E+02 0.  0.
          6    2    1    2  501    0 -0.15600944685E+03  0.12027444025E+03 -0.45087952375E+03  0.52133889008E+03  0.17232818949E+03 0.  0.
         24    2    5    5    0    0 -0.71367404869E+02  0.25888233763E+01 -0.12710162659E+03  0.16655952713E+03  0.80543429967E+02 0.  0.
          5    1    5    5  501    0 -0.84642041983E+02  0.11768561687E+03 -0.32377789716E+03  0.35477936295E+03  0.47000000000E+01 0. -1.
        -13    1    6    6    0    0 -0.52377510679E+02  0.34002944588E+02 -0.46072146876E+02  0.77603135139E+02  0.00000000000E+00 0.  1.
         14    1    6    6    0    0 -0.18989894190E+02 -0.31414121212E+02 -0.81029479717E+02  0.88956391991E+02  0.00000000000E+00 0. -1.
         -5    1    3    3    0  503 -0.31249570451E+02 -0.27771626093E+02 -0.48724803077E+02  0.64373871284E+02  0.47000000000E+01 0.  1.
         11    1    4    4    0    0  0.15698671964E+03 -0.99354373868E+02 -0.22137271483E+03  0.28900173117E+03  0.00000000000E+00 0. -1.
        -12    1    4    4    0    0  0.30272297663E+02  0.68515597102E+01 -0.82588174853E+02  0.88227900926E+02  0.00000000000E+00 0.  1.
</event>
<event>
12    1  0.8219652E-002  0.1741150E+03  0.7818608E-02  0.1173873E+00
         21   -1    0    0  503  502  0.00000000000E+00  0.00000000000E+00  0.11760736898E+04  0.11760736898E+04  0.00000000000E+00 0.  1.
         21   -1    0    0  501  503 -0.00000000000E+00 -0.00000000000E+00 -0.28065578108E+02  0.28065578108E+02  0.00000000000E+00 0.  1.
          6    2    1    2  501    0 -0.30379364160E+02 -0.22266759927E+02  0.39520211224E+03  0.43146021850E+03  0.16898075709E+03 0.  0.
         24    2    3    3    0    0 -0.17406700578E+02 -0.55894788981E+02  0.12632594089E+03  0.16013823293E+03  0.79112512555E+02 0.  0.
         -6    2    1    2    0  502  0.30379364160E+02  0.22266759927E+02  0.75280599942E+03  0.77267904937E+03  0.16999213574E+03 0.  0.
        -24    2    5    5    0    0  0.51622298267E+02  0.15745930839E+00  0.72383147359E+03  0.73023265294E+03  0.81503612076E+02 0.  0.
          5    1    3    3  501    0 -0.12972663582E+02  0.33628029054E+02  0.26887617134E+03  0.27132198557E+03  0.47000000000E+01 0. -1.
        -13    1    4    4    0    0  0.23035635568E+02 -0.37274929280E+01  0.68562945843E+02  0.72425218344E+02  0.00000000000E+00 0.  1.
         14    1    4    4    0    0 -0.40442336146E+02 -0.52167296053E+02  0.57762995051E+02  0.87713014585E+02  0.00000000000E+00 0. -1.
         -5    1    5    5    0  502 -0.21242934107E+02  0.22109300618E+02  0.28974525825E+02  0.42446396433E+02  0.47000000000E+01 0.  1.
         13    1    6    6    0    0  0.14648130290E+02  0.13631866978E+02  0.35295446173E+02  0.40572947130E+02  0.00000000000E+00 0. -1.
        -14    1    6    6    0    0  0.36974167978E+02 -0.13474407669E+02  0.68853602742E+03  0.68965970581E+03  0.00000000000E+00 0.  1.
</event>
<event>
12    1  0.8219652E-002  0.1971267E+03  0.7818608E-02  0.1155196E+00
         21   -1    0    0  501  502  0.00000000000E+00  0.00000000000E+00  0.27760352759E+03  0.27760352759E+03  0.00000000000E+00 0. -1.
         21   -1    0    0  502  503 -0.00000000000E+00 -0.00000000000E+00 -0.13209060919E+03  0.13209060919E+03  0.00000000000E+00 0. -1.
         -6    2    1    2    0  503  0.90416294728E+02  0.43641206130E+02  0.48244941307E+02  0.18987602056E+03  0.15377147849E+03 0.  0.
        -24    2    3    3    0    0  0.10532458737E+03  0.36917943817E+02 -0.14432237498E+01  0.13735494677E+03  0.80050579187E+02 0.  0.
          6    2    1    2  501    0 -0.90416294728E+02 -0.43641206130E+02  0.97267977096E+02  0.21981811622E+03  0.16964458029E+03 0.  0.
         24    2    5    5    0    0  0.14233300142E+01  0.21589652168E+02  0.57184120306E+02  0.10015865306E+03  0.79332170137E+02 0.  0.
          5    1    5    5  501    0 -0.91839624743E+02 -0.65230858298E+02  0.40083856789E+02  0.11965946315E+03  0.47000000000E+01 0. -1.
        -11    1    6    6    0    0  0.38886584438E+02  0.14657705494E+01  0.20432033020E+02  0.43952052352E+02  0.00000000000E+00 0.  1.
         12    1    6    6    0    0 -0.37463254424E+02  0.20123881619E+02  0.36752087286E+02  0.56206600710E+02  0.00000000000E+00 0. -1.
         -5    1    3    3    0  503 -0.14908292637E+02  0.67232623125E+01  0.49688165057E+02  0.52521073791E+02  0.47000000000E+01 0.  1.
         11    1    4    4    0    0  0.13799276823E+02 -0.19259099739E+02 -0.16559209932E+02  0.28905715649E+02  0.00000000000E+00 0. -1.
        -12    1    4    4    0    0  0.91525310542E+02  0.56177043557E+02  0.15115986183E+02  0.10844923112E+03  0.00000000000E+00 0.  1.
</event>
<event>
12    1  0.8219652E-002  0.1761903E+03  0.7818608E-02  0.1172087E+00
         21   -1    0    0  501  502  0.00000000000E+00  0.00000000000E+00  0.97724815941E+02  0.97724815941E+02  0.00000000000E+00 0. -1.
         21   -1    0    0  502  503 -0.00000000000E+00 -0.00000000000E+00 -0.31486483845E+03  0.31486483845E+03  0.00000000000E+00 0. -1.
         -6    2    1    2    0  503 -0.18652863919E+02  0.28217390449E+02 -0.12156215189E+03  0.21405699043E+03  0.17291294898E+03 0.  0.
        -24    2    3    3    0    0 -0.38983700653E+02  0.50401134871E+02 -0.14374475802E+03  0.17637915274E+03  0.79919001179E+02 0.  0.
          6    2    1    2  501    0  0.18652863919E+02 -0.28217390449E+02 -0.95577870619E+02  0.19853266395E+03  0.17069252722E+03 0.  0.
         24    2    5    5    0    0  0.11257408291E+02  0.24942763832E+02  0.67585250338E+01  0.82880069333E+02  0.77939447797E+02 0.  0.
          5    1    5    5  501    0  0.73954556283E+01 -0.53160154281E+02 -0.10233639565E+03  0.11565259462E+03  0.47000000000E+01 0. -1.
        -13    1    6    6    0    0  0.78352263015E+01  0.51966447880E+02 -0.58227958382E+01  0.52875395297E+02  0.00000000000E+00 0.  1.
         14    1    6    6    0    0  0.34221819898E+01 -0.27023684048E+02  0.12581320872E+02  0.30004674035E+02  0.00000000000E+00 0. -1.
         -5    1    3    3    0  503  0.20330836734E+02 -0.22183744422E+02  0.22182606130E+02  0.37677837699E+02  0.47000000000E+01 0.  1.
         13    1    4    4    0    0 -0.54189566939E+02  0.80825787485E+01 -0.97733644177E+02  0.11204330613E+03  0.00000000000E+00 0. -1.
        -14    1    4    4    0    0  0.15205866285E+02  0.42318556122E+02 -0.46011113841E+02  0.64335846607E+02  0.00000000000E+00 0.  1.
</event>
<event>
12    1  0.8219652E-002  0.1745194E+03  0.7818608E-02  0.1174052E+00
         21   -1    0    0  503  502  0.00000000000E+00  0.00000000000E+00  0.26845331050E+04  0.26845331050E+04  0.00000000000E+00 0.  1.
         21   -1    0    0  501  503 -0.00000000000E+00 -0.00000000000E+00 -0.22751978847E+02  0.22751978847E+02  0.00000000000E+00 0.  1.
          6    2    1    2  501    0  0.76808496335E+01 -0.84129478578E+01  0.35735910491E+03  0.39626412827E+03  0.17085068437E+03 0.  0.
         24    2    3    3    0    0 -0.44160961545E+02 -0.39830965491E+02  0.29093477779E+03  0.30621443948E+03  0.74749860737E+02 0.  0.
         -6    2    1    2    0  502 -0.76808496335E+01  0.84129478578E+01  0.23044220213E+04  0.23110209556E+04  0.17414715610E+03 0.  0.
        -24    2    5    5    0    0  0.20155729717E+01 -0.36668011931E+02  0.71769110520E+03  0.72361319338E+03  0.84775736621E+02 0.  0.
          5    1    3    3  501    0  0.51841811179E+02  0.31418017633E+02  0.66424327119E+02  0.90049688792E+02  0.47000000000E+01 0. -1.
        -11    1    4    4    0    0 -0.24792056175E+02  0.19891509086E+02  0.78348543778E+02  0.84550650472E+02  0.00000000000E+00 0.  1.
         12    1    4    4    0    0 -0.19368905371E+02 -0.59722474577E+02  0.21258623401E+03  0.22166378900E+03  0.00000000000E+00 0. -1.
         -5    1    5    5    0  502 -0.96964226052E+01  0.45080959789E+02  0.15867309161E+04  0.15874077622E+04  0.47000000000E+01 0.  1.
         13    1    6    6    0    0 -0.74252810757E+01  0.25054103783E+02  0.31828236811E+03  0.31935326641E+03  0.00000000000E+00 0. -1.
        -14    1    6    6    0    0  0.94408540475E+01 -0.61722115714E+02  0.39940873709E+03  0.40425992697E+03  0.00000000000E+00 0.  1.
</event>
<event>
12    1  0.8219652E-002  0.1846916E+03  0.7818608E-02  0.1163723E+00
         21   -1    0    0  501  502  0.00000000000E+00  0.00000000000E+00  0.47890618398E+03  0.47890618398E+03  0.00000000000E+00 0.  1.
         21   -1    0    0  502  503 -0.00000000000E+00 -0.00000000000E+00 -0.84725272718E+02  0.84725272718E+02  0.00000000000E+00 0.  1.
         -6    2    1    2    0  503  0.63757019195E+02 -0.12718567206E+01  0.82741058625E+02  0.20237853631E+03  0.17333324568E+03 0.  0.
        -24    2    3    3    0    0  0.10755064676E+03  0.19466584013E+02  0.69453859117E+02  0.15191464416E+03  0.79423743633E+02 0.  0.
          6    2    1    2  501    0 -0.63757019195E+02  0.12718567206E+01  0.31143985264E+03  0.36125292039E+03  0.17158763232E+03 0.  0.
         24    2    5    5    0    0  0.53373909770E+01 -0.41280617832E+02  0.98820864033E+02  0.13362674676E+03  0.79736861802E+02 0.  0.
          5    1    5    5  501    0 -0.69094410172E+02  0.42552474552E+02  0.21261898861E+03  0.22762617363E+03  0.47000000000E+01 0. -1.
        -11    1    6    6    0    0 -0.15375158812E+02  0.19698799717E+02  0.34571481373E+02  0.42657069088E+02  0.00000000000E+00 0.  1.
         12    1    6    6    0    0  0.20712549789E+02 -0.60979417549E+02  0.64249382659E+02  0.90969677671E+02  0.00000000000E+00 0. -1.
         -5    1    3    3    0  503 -0.43793627568E+02 -0.20738440733E+02  0.13287199508E+02  0.50463892144E+02  0.47000000000E+01 0.  1.
         11    1    4    4    0    0  0.56297632690E+02  0.31969859171E+02  0.57143114069E-01  0.64741784090E+02  0.00000000000E+00 0. -1.
        -12    1    4    4    0    0  0.51253014073E+02 -0.12503275158E+02  0.69396716003E+02  0.87172860072E+02  0.00000000000E+00 0.  1.
</event>
<event>
12    1  0.8219652E-002  0.2373242E+03  0.7818608E-02  0.1121744E+00
         21   -1    0    0  503  502  0.00000000000E+00  0.00000000000E+00  0.34385142348E+03  0.34385142348E+03  0.00000000000E+00 0.  1.
         21   -1    0    0  501  503 -0.00000000000E+00 -0.00000000000E+00 -0.17768463141E+03  0.17768463141E+03  0.00000000000E+00 0.  1.
          6    2    1    2  501    0  0.13235821035E+03 -0.94275647785E+02  0.86902017390E+01  0.23748324650E+03  0.17296294156E+03 0.  0.
         24    2    3    3    0    0  0.12332631592E+03 -0.72261121249E+02 -0.52608625731E+02  0.17156017964E+03  0.78956810316E+02 0.  0.
         -6    2    1    2    0  502 -0.13235821035E+03  0.94275647785E+02  0.15747659034E+03  0.28405280839E+03  0.17169894535E+03 0.  0.
        -24    2    5    5    0    0 -0.69386873904E+02  0.71445757805E+01  0.40317318023E+02  0.12497547495E+03  0.95539520485E+02 0.  0.
          5    1    3    3  501    0  0.90318944311E+01 -0.22014526536E+02  0.61298827470E+02  0.65923066864E+02  0.47000000000E+01 0. -1.
        -11    1    4    4    0    0  0.33418602275E+02  0.35326396325E+01  0.14009596971E+02  0.36408121732E+02  0.00000000000E+00 0.  1.
         12    1    4    4    0    0  0.89907713641E+02 -0.75793760882E+02 -0.66618222702E+02  0.13515205791E+03  0.00000000000E+00 0. -1.
         -5    1    5    5    0  502 -0.62971336443E+02  0.87131072005E+02  0.11715927231E+03  0.15907733343E+03  0.47000000000E+01 0.  1.
         13    1    6    6    0    0 -0.18250562621E+02  0.45144177433E+02  0.37042527318E+02  0.61181930521E+02  0.00000000000E+00 0. -1.
        -14    1    6    6    0    0 -0.51136311282E+02 -0.37999601653E+02  0.32747907046E+01  0.63793544434E+02  0.00000000000E+00 0.  1.
</event>
<event>
12    1  0.8219652E-002  0.1770831E+03  0.7818608E-02  0.1170897E+00
         21   -1    0    0  503  502  0.00000000000E+00  0.00000000000E+00  0.52450335454E+02  0.52450335454E+02  0.00000000000E+00 0. -1.
         21   -1    0    0  501  503 -0.00000000000E+00 -0.00000000000E+00 -0.92058647845E+03  0.92058647845E+03  0.00000000000E+00 0. -1.
          6    2    1    2  501    0 -0.36162195844E+02  0.12545937683E+02 -0.72281181878E+03  0.74395693536E+03  0.17190081835E+03 0.  0.
         24    2    3    3    0    0  0.41926585611E+02 -0.23939920273E+02 -0.34641425222E+03  0.35778819798E+03  0.75356500120E+02 0.  0.
         -6    2    1    2    0  502  0.36162195844E+02 -0.12545937683E+02 -0.14532432421E+03  0.22907987854E+03  0.17289686689E+03 0.  0.
        -24    2    5    5    0    0 -0.11991200536E+02  0.38594210473E+02 -0.28666344834E+02  0.92825563048E+02  0.78495374747E+02 0.  0.
          5    1    3    3  501    0 -0.78088781455E+02  0.36485857956E+02 -0.37639756656E+03  0.38616873738E+03  0.47000000000E+01 0. -1.
        -11    1    4    4    0    0  0.14333942009E+01  0.52185186999E+01  0.20368373483E+01  0.57824097693E+01  0.00000000000E+00 0.  1.
         12    1    4    4    0    0  0.40493191410E+02 -0.29158438973E+02 -0.34845108957E+03  0.35200578821E+03  0.00000000000E+00 0. -1.
         -5    1    5    5    0  502  0.48153396380E+02 -0.51140148156E+02 -0.11665797938E+03  0.13625431549E+03  0.47000000000E+01 0.  1.
         11    1    6    6    0    0 -0.24871890336E+02 -0.10799023534E+02  0.98824113571E+01  0.28859866465E+02  0.00000000000E+00 0. -1.
        -12    1    6    6    0    0  0.12880689800E+02  0.49393234007E+02 -0.38548756191E+02  0.63965696582E+02  0.00000000000E+00 0.  1.
</event>
<event>
12    1  0.8219652E-002  0.2779659E+03  0.7818608E-02  0.1096816E+00
         21   -1    0    0  503  502  0.00000000000E+00  0.00000000000E+00  0.14172370388E+04  0.14172370388E+04  0.00000000000E+00 0.  1.
         21   -1    0    0  501  503 -0.00000000000E+00 -0.00000000000E+00 -0.54855674612E+02  0.54855674612E+02  0.00000000000E+00 0.  1.
          6    2    1    2  501    0  0.20891720470E+03 -0.64282425761E+02  0.62218563775E+03  0.68145433292E+03  0.17171607772E+03 0.  0.
         24    2    3    3    0    0  0.96509385412E+02 -0.33358660952E+02  0.16550935138E+03  0.21010826303E+03  0.79531597903E+02 0.  0.
         -6    2    1    2    0  502 -0.20891720470E+03  0.64282425761E+02  0.74019572643E+03  0.79063838049E+03  0.17158294379E+03 0.  0.
        -24    2    5    5    0    0 -0.10411973517E+03 -0.18616535546E+02  0.31239506337E+03  0.34243056628E+03  0.92089752181E+02 0.  0.
          5    1    3    3  501    0  0.11240781929E+03 -0.30923764809E+02  0.45667628637E+03  0.47134606989E+03  0.47000000000E+01 0. -1.
        -11    1    4    4    0    0  0.66961834189E+02 -0.59748981314E+02  0.11160362074E+03  0.14321032144E+03  0.00000000000E+00 0.  1.
         12    1    4    4    0    0  0.29547551223E+02  0.26390320363E+02  0.53905730645E+02  0.66897941586E+02  0.00000000000E+00 0. -1.
         -5    1    5    5    0  502 -0.10479746953E+03  0.82898961307E+02  0.42780066306E+03  0.44820781421E+03  0.47000000000E+01 0.  1.
         13    1    6    6    0    0 -0.38466635171E+02 -0.23954706222E+02  0.24127241985E+03  0.24549112113E+03  0.00000000000E+00 0. -1.
        -14    1    6    6    0    0 -0.65653099995E+02  0.53381706757E+01  0.71122643521E+02  0.96939445153E+02  0.00000000000E+00 0.  1.
</event>
<event>
12    1  0.8219652E-002  0.3116583E+03  0.7818608E-02  0.1079623E+00
         21   -1    0    0  503  502  0.00000000000E+00  0.00000000000E+00  0.91483192834E+02  0.91483192834E+02  0.00000000000E+00 0.  1.
         21   -1    0    0  501  503 -0.00000000000E+00 -0.00000000000E+00 -0.19242625189E+04  0.19242625189E+04  0.00000000000E+00 0. -1.
          6    2    1    2  501    0  0.11889107409E+02  0.25947556446E+03 -0.15914690989E+04  0.16215864780E+04  0.17117211648E+03 0.  0.
         24    2    3    3    0    0  0.16304853076E+02  0.20722111141E+03 -0.86590149320E+03  0.89411107147E+03  0.80266898193E+02 0.  0.
         -6    2    1    2    0  502 -0.11889107409E+02 -0.25947556446E+03 -0.24131022719E+03  0.39415923375E+03  0.17222646829E+03 0.  0.
        -24    2    5    5    0    0  0.54539928869E+02 -0.18659815794E+03 -0.17638824989E+03  0.27600303891E+03  0.85272424637E+02 0.  0.
          5    1    3    3  501    0 -0.44157456661E+01  0.52254453049E+02 -0.72556760568E+03  0.72747540652E+03  0.47000000000E+01 0. -1.
        -13    1    4    4    0    0 -0.11647702782E+02  0.53502703740E+02 -0.11829347607E+03  0.13035165809E+03  0.00000000000E+00 0.  1.
         14    1    4    4    0    0  0.27952555857E+02  0.15371840767E+03 -0.74760801713E+03  0.76375941338E+03  0.00000000000E+00 0. -1.
         -5    1    5    5    0  502 -0.66429036278E+02 -0.72877406525E+02 -0.64921977306E+02  0.11815619484E+03  0.47000000000E+01 0.  1.
         13    1    6    6    0    0  0.68116897085E+01 -0.13077259901E+03 -0.14707170385E+03  0.19692119703E+03  0.00000000000E+00 0. -1.
        -14    1    6    6    0    0  0.47728239160E+02 -0.55825558929E+02 -0.29316546036E+02  0.79081841877E+02  0.00000000000E+00 0.  1.
</event>
<event>
12    1  0.8219652E-002  0.1773980E+03  0.7818608E-02  0.1171135E+00
         21   -1    0    0  503  502  0.00000000000E+00  0.00000000000E+00  0.18119141321E+03  0.18119141321E+03  0.00000000000E+00 0. -1.
         21   -1    0    0  501  503 -0.00000000000E+00 -0.00000000000E+00 -0.17895110149E+03  0.17895110149E+03  0.00000000000E+00 0. -1.
          6    2    1    2  501    0  0.44068827114E+02 -0.32782169727E+01  0.40025701717E+02  0.17876507267E+03  0.16852918495E+03 0.  0.
         24    2    3    3    0    0  0.10653916518E+02 -0.90743082783E+01 -0.40352828124E+02  0.91398322798E+02  0.80805034897E+02 0.  0.
         -6    2    1    2    0  502 -0.44068827114E+02  0.32782169727E+01 -0.37785389999E+02  0.18137744203E+03  0.17180579894E+03 0.  0.
        -24    2    5    5    0    0  0.80346153766E+01  0.20292808879E+02 -0.79417911021E+02  0.11238742924E+03  0.76468140586E+02 0.  0.
          5    1    3    3  501    0  0.33414910596E+02  0.57960913056E+01  0.80378529841E+02  0.87366749877E+02  0.47000000000E+01 0. -1.
        -11    1    4    4    0    0  0.26948175446E+02 -0.27119164150E+02  0.63410578405E+01  0.38753867402E+02  0.00000000000E+00 0.  1.
         12    1    4    4    0    0 -0.16294258928E+02  0.18044855871E+02 -0.46693885965E+02  0.52644455396E+02  0.00000000000E+00 0. -1.
         -5    1    5    5    0  502 -0.52103442491E+02 -0.17014591906E+02  0.41632521022E+02  0.68990012783E+02  0.47000000000E+01 0.  1.
         13    1    6    6    0    0 -0.51503832459E+01  0.68951342167E+01 -0.90272026097E+02  0.90681354308E+02  0.00000000000E+00 0. -1.
        -14    1    6    6    0    0  0.13184998623E+02  0.13397674662E+02  0.10854115076E+02  0.21706074936E+02  0.00000000000E+00 0.  1.
</event>
<event>
12    1  0.8219652E-002  0.1882203E+03  0.7818608E-02  0.1161541E+00
         21   -1    0    0  503  502  0.00000000000E+00  0.00000000000E+00  0.49680109959E+03  0.49680109959E+03  0.00000000000E+00 0.  1.
         21   -1    0    0  501  503 -0.00000000000E+00 -0.00000000000E+00 -0.79966411242E+02  0.79966411242E+02  0.00000000000E+00 0. -1.
          6    2    1    2  501    0  0.34325155286E+02  0.66952166975E+02  0.10441712171E+03  0.21524357848E+03  0.17252841453E+03 0.  0.
         24    2    3    3    0    0 -0.21030758706E+02  0.55275785297E+02  0.12037271441E+03  0.15627506111E+03  0.80215952884E+02 0.  0.
         -6    2    1    2    0  502 -0.34325155286E+02 -0.66952166975E+02  0.31241756663E+03  0.36152393235E+03  0.16563214897E+03 0.  0.
        -24    2    5    5    0    0  0.35459529088E+01 -0.13703598624E+01  0.64647856340E+02  0.10239633135E+03  0.79317158781E+02 0.  0.
          5    1    3    3  501    0  0.55355913992E+02  0.11676381677E+02 -0.15955592697E+02  0.58968517374E+02  0.47000000000E+01 0. -1.
        -13    1    4    4    0    0  0.26058937061E+01  0.27349132768E+02  0.11625531352E+03  0.11945737176E+03  0.00000000000E+00 0.  1.
         14    1    4    4    0    0 -0.23636652412E+02  0.27926652529E+02  0.41174008871E+01  0.36817689346E+02  0.00000000000E+00 0. -1.
         -5    1    5    5    0  502 -0.37871108194E+02 -0.65581807112E+02  0.24776971029E+03  0.25912760100E+03  0.47000000000E+01 0.  1.
         11    1    6    6    0    0 -0.20418752096E+02  0.11819958777E+02 -0.78855736652E+01  0.24876075548E+02  0.00000000000E+00 0. -1.
        -12    1    6    6    0    0  0.23964705005E+02 -0.13190318640E+02  0.72533430005E+02  0.77520255805E+02  0.00000000000E+00 0.  1.
</event>
<event>
12    1  0.8219652E-002  0.1976812E+03  0.7818608E-02  0.1151875E+00
         21   -1    0    0  501  502  0.00000000000E+00  0.00000000000E+00  0.12669060388E+04  0.12669060388E+04  0.00000000000E+00 0. -1.
         21   -1    0    0  502  503 -0.00000000000E+00 -0.00000000000E+00 -0.31727845998E+02  0.31727845998E+02  0.00000000000E+00 0.  1.
         -6    2    1    2    0  503  0.45663918370E+00  0.93562435047E+02  0.50333088476E+03  0.54075859180E+03  0.17413712206E+03 0.  0.
        -24    2    3    3    0    0  0.33474686562E+02  0.14165150578E+01  0.33692851612E+03  0.34764489391E+03  0.78826303554E+02 0.  0.
          6    2    1    2  501    0 -0.45663918370E+00 -0.93562435047E+02  0.73184730803E+03  0.75787529299E+03  0.17326378640E+03 0.  0.
         24    2    5    5    0    0 -0.15454524448E+02 -0.29180669254E+02  0.63265619947E+03  0.63858189691E+03  0.80265924001E+02 0.  0.
          5    1    5    5  501    0  0.14997885264E+02 -0.64381765793E+02  0.99191108564E+02  0.11929339608E+03  0.47000000000E+01 0. -1.
        -13    1    6    6    0    0 -0.73925469361E-01  0.20607112235E+02  0.57706148425E+02  0.61275265040E+02  0.00000000000E+00 0.  1.
         14    1    6    6    0    0 -0.15380598978E+02 -0.49787781489E+02  0.57495005104E+03  0.57730663187E+03  0.00000000000E+00 0. -1.
         -5    1    3    3    0  503 -0.33018047378E+02  0.92145919989E+02  0.16640236864E+03  0.19311369789E+03  0.47000000000E+01 0.  1.
         13    1    4    4    0    0 -0.16511807432E+02  0.24886464207E+02  0.13792838198E+03  0.14112481866E+03  0.00000000000E+00 0. -1.
        -14    1    4    4    0    0  0.49986493994E+02 -0.23469949149E+02  0.19900013413E+03  0.20652007525E+03  0.00000000000E+00 0.  1.
</event>
<event>
12    1  0.8219652E-002  0.2182791E+03  0.7818608E-02  0.1135322E+00
         21   -1    0    0  501  502  0.00000000000E+00  0.00000000000E+00  0.67290673017E+02  0.67290673017E+02  0.00000000000E+00 0. -1.
         21   -1    0    0  502  503 -0.00000000000E+00 -0.00000000000E+00 -0.11629421727E+04  0.11629421727E+04  0.00000000000E+00 0. -1.
         -6    2    1    2    0  503  0.13311647789E+03  0.17413755530E+01 -0.16142763391E+03  0.27084761827E+03  0.17197826100E+03 0.  0.
        -24    2    3    3    0    0  0.15262009744E+03  0.33639472759E+02 -0.10899864441E+03  0.20628161544E+03  0.79037283087E+02 0.  0.
          6    2    1    2  501    0 -0.13311647789E+03 -0.17413755530E+01 -0.93422386578E+03  0.95938522745E+03  0.17298194760E+03 0.  0.
         24    2    5    5    0    0 -0.83801751083E+02 -0.66368019203E+02 -0.48431145226E+03  0.50216338284E+03  0.78632263258E+02 0.  0.
          5    1    5    5  501    0 -0.49314726804E+02  0.64626643650E+02 -0.44991241352E+03  0.45722184461E+03  0.47000000000E+01 0. -1.
        -13    1    6    6    0    0 -0.43111384269E+02 -0.24937178217E+02 -0.37584145197E+03  0.37912695938E+03  0.00000000000E+00 0.  1.
         14    1    6    6    0    0 -0.40690366814E+02 -0.41430840986E+02 -0.10847000029E+03  0.12303642346E+03  0.00000000000E+00 0. -1.
         -5    1    3    3    0  503 -0.19503619548E+02 -0.31898097206E+02 -0.52428989498E+02  0.64566002824E+02  0.47000000000E+01 0.  1.
         13    1    4    4    0    0  0.10218662913E+03 -0.48646672454E+01 -0.33472057938E+02  0.10763898375E+03  0.00000000000E+00 0. -1.
        -14    1    4    4    0    0  0.50433468306E+02  0.38504140004E+02 -0.75526586476E+02  0.98642631694E+02  0.00000000000E+00 0.  1.
</event>
<event>
12    1  0.8219652E-002  0.1826588E+03  0.7818608E-02  0.1166822E+00
         21   -1    0    0  503  502  0.00000000000E+00  0.00000000000E+00  0.14778542838E+03  0.14778542838E+03  0.00000000000E+00 0. -1.
         21   -1    0    0  501  503 -0.00000000000E+00 -0.00000000000E+00 -0.35793661688E+03  0.35793661688E+03  0.00000000000E+00 0. -1.
          6    2    1    2  501    0 -0.44573129387E+02  0.41554002104E+02 -0.26441634426E+03  0.32137245600E+03  0.17219394127E+03 0.  0.
         24    2    3    3    0    0 -0.28125247985E+02 -0.43636665068E+02 -0.17347023229E+03  0.19558983455E+03  0.73947777370E+02 0.  0.
         -6    2    1    2    0  502  0.44573129387E+02 -0.41554002104E+02  0.54265155753E+02  0.18434958926E+03  0.16530748615E+03 0.  0.
        -24    2    5    5    0    0  0.25588156641E+02  0.41147014038E+01  0.88315672499E+02  0.12412013333E+03  0.83273434911E+02 0.  0.
          5    1    3    3  501    0 -0.16447881402E+02  0.85190667172E+02 -0.90946111970E+02  0.12578262145E+03  0.47000000000E+01 0. -1.
        -11    1    4    4    0    0 -0.68237951970E+01 -0.34988862211E+02 -0.20953538206E+02  0.41350156264E+02  0.00000000000E+00 0.  1.
         12    1    4    4    0    0 -0.21301452788E+02 -0.86478028579E+01 -0.15251669408E+03  0.15423967829E+03  0.00000000000E+00 0. -1.
         -5    1    5    5    0  502  0.18984972746E+02 -0.45668703507E+02 -0.34050516746E+02  0.60229455924E+02  0.47000000000E+01 0.  1.
         13    1    6    6    0    0  0.18523779134E+02 -0.37404512293E+02  0.26921547880E+02  0.49668880333E+02  0.00000000000E+00 0. -1.
        -14    1    6    6    0    0  0.70643775064E+01  0.41519213697E+02  0.61394124619E+02  0.74451253000E+02  0.00000000000E+00 0.  1.
</event>
<event>
12    1  0.8219652E-002  0.2005030E+03  0.7818608E-02  0.1149321E+00
         21   -1    0    0  501  502  0.00000000000E+00  0.00000000000E+00  0.36615163904E+03  0.36615163904E+03  0.00000000000E+00 0. -1.
         21   -1    0    0  502  503 -0.00000000000E+00 -0.00000000000E+00 -0.11414953530E+03  0.11414953530E+03  0.00000000000E+00 0. -1.
         -6    2    1    2    0  503  0.10112351462E+03 -0.13657390057E+02  0.78998279655E+02  0.21547709349E+03  0.17256059839E+03 0.  0.
        -24    2    3    3    0    0  0.11871254279E+03  0.29885809991E+02  0.71192835459E+02  0.16763987846E+03  0.89715548117E+02 0.  0.
          6    2    1    2  501    0 -0.10112351462E+03  0.13657390057E+02  0.17300382409E+03  0.26482408085E+03  0.17259484678E+03 0.  0.
         24    2    5    5    0    0 -0.21218338489E+02 -0.48169969368E+02  0.57537048766E+02  0.11132448557E+03  0.79448507036E+02 0.  0.
          5    1    5    5  501    0 -0.79905176131E+02  0.61827359425E+02  0.11546677533E+03  0.15349959528E+03  0.47000000000E+01 0. -1.
        -13    1    6    6    0    0  0.24219764574E+02 -0.57525072066E+01 -0.23563807805E+01  0.25004816847E+02  0.00000000000E+00 0.  1.
         14    1    6    6    0    0 -0.45438103063E+02 -0.42417462161E+02  0.59893429546E+02  0.86319668726E+02  0.00000000000E+00 0. -1.
         -5    1    3    3    0  503 -0.17589028173E+02 -0.43543200048E+02  0.78054441957E+01  0.47837215027E+02  0.47000000000E+01 0.  1.
         13    1    4    4    0    0  0.85090493231E+02  0.60278401473E+02  0.62243918206E+02  0.12144209763E+03  0.00000000000E+00 0. -1.
        -14    1    4    4    0    0  0.33622049563E+02 -0.30392591483E+02  0.89489172528E+01  0.46197780832E+02  0.00000000000E+00 0.  1.
</event>
<event>
12    1  0.8219652E-002  0.2114701E+03  0.7818608E-02  0.1143331E+00
         21   -1    0    0  501  502  0.00000000000E+00  0.00000000000E+00  0.10033883938E+03  0.10033883938E+03  0.00000000000E+00 0. -1.
         21   -1    0    0  502  503 -0.00000000000E+00 -0.00000000000E+00 -0.42816537157E+03  0.42816537157E+03  0.00000000000E+00 0. -1.
         -6    2    1    2    0  503  0.10475030678E+03 -0.65542763448E+02 -0.21412217054E+03  0.30094504817E+03  0.17161333716E+03 0.  0.
        -24    2    3    3    0    0  0.44183838635E+02 -0.92438154033E+02 -0.82549322953E+02  0.15355046442E+03  0.79160157183E+02 0.  0.
          6    2    1    2  501    0 -0.10475030678E+03  0.65542763448E+02 -0.11370436164E+03  0.22755916278E+03  0.15357737495E+03 0.  0.
         24    2    5    5    0    0 -0.82773325819E+02  0.38810128559E+02 -0.14814411793E+02  0.12268336175E+03  0.80461735674E+02 0.  0.
          5    1    5    5  501    0 -0.21976980956E+02  0.26732634889E+02 -0.98889949847E+02  0.10487580103E+03  0.47000000000E+01 0. -1.
        -13    1    6    6    0    0 -0.67959111854E+02 -0.47142614530E+01  0.12420979091E+02  0.69245547631E+02  0.00000000000E+00 0.  1.
         14    1    6    6    0    0 -0.14814213965E+02  0.43524390012E+02 -0.27235390884E+02  0.53437814120E+02  0.00000000000E+00 0. -1.
         -5    1    3    3    0  503  0.60566468141E+02  0.26895390586E+02 -0.13157284759E+03  0.14739458376E+03  0.47000000000E+01 0.  1.
         11    1    4    4    0    0  0.24881909307E+02 -0.89019579728E+02 -0.93182373410E+02  0.13124995124E+03  0.00000000000E+00 0. -1.
        -12    1    4    4    0    0  0.19301929327E+02 -0.34185743054E+01  0.10633050457E+02  0.22300513179E+02  0.00000000000E+00 0.  1.
</event>
<event>
12    1  0.8219652E-002  0.1803378E+03  0.7818608E-02  0.1167549E+00
         21   -1    0    0  503  502  0.00000000000E+00  0.00000000000E+00  0.44286333812E+03  0.44286333812E+03  0.00000000000E+00 0. -1.
         21   -1    0    0  501  503 -0.00000000000E+00 -0.00000000000E+00 -0.15484950737E+03  0.15484950737E+03  0.00000000000E+00 0. -1.
          6    2    1    2  501    0 -0.30328464791E+02  0.35037775506E+02 -0.72911385067E+02  0.19424196920E+03  0.17397244333E+03 0.  0.
         24    2    3    3    0    0 -0.29372503754E+01 -0.29484677633E+02 -0.88724362512E+02  0.12223109612E+03  0.78679442682E+02 0.  0.
         -6    2    1    2    0  502  0.30328464791E+02 -0.35037775506E+02  0.36092521581E+03  0.40347087629E+03  0.17428217097E+03 0.  0.
        -24    2    5    5    0    0  0.56491776604E+02 -0.10509866172E+02  0.35453564646E+03  0.36674140832E+03  0.74175183525E+02 0.  0.
          5    1    3    3  501    0 -0.27391214415E+02  0.64522453138E+02  0.15812977445E+02  0.72010873080E+02  0.47000000000E+01 0. -1.
        -13    1    4    4    0    0  0.23459688854E+02  0.77213458617E+01 -0.26814209206E+01  0.24842829976E+02  0.00000000000E+00 0.  1.
         14    1    4    4    0    0 -0.26396939230E+02 -0.37206023494E+02 -0.86042941591E+02  0.97388266145E+02  0.00000000000E+00 0. -1.
         -5    1    5    5    0  502 -0.26163311813E+02 -0.24527909333E+02  0.63895693505E+01  0.36729467976E+02  0.47000000000E+01 0.  1.
         13    1    6    6    0    0  0.21039394940E+02 -0.18479443170E+02  0.29941227952E+03  0.30071890377E+03  0.00000000000E+00 0. -1.
        -14    1    6    6    0    0  0.35452381664E+02  0.79695769973E+01  0.55123366944E+02  0.66022504545E+02  0.00000000000E+00 0.  1.
</event>
<event>
12    1  0.8219652E-002  0.1986402E+03  0.7818608E-02  0.1152332E+00
         21   -1    0    0  501  502  0.00000000000E+00  0.00000000000E+00  0.15570173889E+03  0.15570173889E+03  0.00000000000E+00 0.  1.
         21   -1    0    0  502  503 -0.00000000000E+00 -0.00000000000E+00 -0.30227580276E+03  0.30227580276E+03  0.00000000000E+00 0. -1.
         -6    2    1    2    0  503  0.82630383806E+02  0.21166741720E+02 -0.17395753360E+03  0.26404388323E+03  0.17939380560E+03 0.  0.
        -24    2    3    3    0    0  0.53931057391E+02 -0.50518862164E+02 -0.53073375199E+02  0.12052542834E+03  0.79049866129E+02 0.  0.
          6    2    1    2  501    0 -0.82630383806E+02 -0.21166741720E+02  0.27383469729E+02  0.19393365842E+03  0.17200173886E+03 0.  0.
         24    2    5    5    0    0  0.22285290045E+01  0.24754347126E+02 -0.17975809250E+02  0.87212827871E+02  0.81640698086E+02 0.  0.
          5    1    5    5  501    0 -0.84858912811E+02 -0.45921088846E+02  0.45359278978E+02  0.10672083055E+03  0.47000000000E+01 0. -1.
        -13    1    6    6    0    0  0.24137332294E+02 -0.22367521059E+02 -0.25535495847E+01  0.33006626972E+02  0.00000000000E+00 0.  1.
         14    1    6    6    0    0 -0.21908803289E+02  0.47121868184E+02 -0.15422259665E+02  0.54206200899E+02  0.00000000000E+00 0. -1.
         -5    1    3    3    0  503  0.28699326415E+02  0.71685603883E+02 -0.12088415840E+03  0.14351845489E+03  0.47000000000E+01 0.  1.
         13    1    4    4    0    0  0.27278370893E+02  0.67961841082E+01 -0.49854706490E+02  0.57234512282E+02  0.00000000000E+00 0. -1.
        -14    1    4    4    0    0  0.26652686498E+02 -0.57315046272E+02 -0.32186687094E+01  0.63290916054E+02  0.00000000000E+00 0.  1.
</event>
<event>
12    1  0.8219652E-002  0.2715208E+03  0.7818608E-02  0.1100670E+00
         21   -1    0    0  501  502  0.00000000000E+00  0.00000000000E+00  0.73516489519E+03  0.73516489519E+03  0.00000000000E+00 0. -1.
         21   -1    0    0  502  503 -0.00000000000E+00 -0.00000000000E+00 -0.24300631028E+03  0.24300631028E+03  0.00000000000E+00 0.  1.
         -6    2    1    2    0  503  0.20729362524E+03  0.26690616299E+02 -0.12927917676E+03  0.30072688283E+03  0.17332200222E+03 0.  0.
        -24    2    3    3    0    0  0.68931085891E+02  0.12849962083E+01 -0.12104467902E+03  0.15973207875E+03  0.78162502804E+02 0.  0.
          6    2    1    2  501    0 -0.20729362524E+03 -0.26690616299E+02  0.62143776166E+03  0.67744432264E+03  0.17047839334E+03 0.  0.
         24    2    5    5    0    0 -0.11294531029E+03 -0.67499533185E+02  0.46587706262E+03  0.49092838949E+03  0.81586861926E+02 0.  0.
          5    1    5    5  501    0 -0.94348314949E+02  0.40808916886E+02  0.15556069905E+03  0.18651593315E+03  0.47000000000E+01 0. -1.
        -13    1    6    6    0    0 -0.34450134022E+02 -0.12192642303E+00  0.40580085505E+02  0.53231287226E+02  0.00000000000E+00 0.  1.
         14    1    6    6    0    0 -0.78495176265E+02 -0.67377606762E+02  0.42529697711E+03  0.43769710226E+03  0.00000000000E+00 0. -1.
         -5    1    3    3    0  503  0.13836253935E+03  0.25405620091E+02 -0.82344977398E+01  0.14099480409E+03  0.47000000000E+01 0.  1.
         13    1    4    4    0    0 -0.17542184524E+02  0.18856415110E+01 -0.17902771690E+02  0.25135495141E+02  0.00000000000E+00 0. -1.
        -14    1    4    4    0    0  0.86473270415E+02 -0.60064530270E+00 -0.10314190733E+03  0.13459658361E+03  0.00000000000E+00 0.  1.
</event>
<event>
12    1  0.8219652E-002  0.1749089E+03  0.7818608E-02  0.1173147E+00
         21   -1    0    0  503  502  0.00000000000E+00  0.00000000000E+00  0.33479425901E+03  0.33479425901E+03  0.00000000000E+00 0.  1.
         21   -1    0    0  501  503 -0.00000000000E+00 -0.00000000000E+00 -0.38497389469E+03  0.38497389469E+03  0.00000000000E+00 0.  1.
          6    2    1    2  501    0  0.11628366959E+02 -0.89783448093E+01 -0.33970937364E+03  0.38150700042E+03  0.17300087639E+03 0.  0.
         24    2    3    3    0    0  0.21145908017E+01 -0.99536886990E+01 -0.35435688670E+03  0.36339339031E+03  0.79889959063E+02 0.  0.
         -6    2    1    2    0  502 -0.11628366959E+02  0.89783448093E+01  0.28952973796E+03  0.33826115328E+03  0.17429087486E+03 0.  0.
        -24    2    5    5    0    0 -0.73731816091E+02 -0.36268522774E+01  0.20995216296E+03  0.23642594409E+03  0.79798380597E+02 0.  0.
          5    1    3    3  501    0  0.95137761569E+01  0.97534388964E+00  0.14647513051E+02  0.18113610106E+02  0.47000000000E+01 0. -1.
        -11    1    4    4    0    0  0.31998374614E+02  0.15713836978E+02 -0.10361794829E+03  0.10957873817E+03  0.00000000000E+00 0.  1.
         12    1    4    4    0    0 -0.29883783812E+02 -0.25667525677E+02 -0.25073893841E+03  0.25381465214E+03  0.00000000000E+00 0. -1.
         -5    1    5    5    0  502  0.62103449133E+02  0.12605197087E+02  0.79577575004E+02  0.10183520919E+03  0.47000000000E+01 0.  1.
         13    1    6    6    0    0 -0.45527488159E+02 -0.35243599700E+02  0.72432225453E+02  0.92527243458E+02  0.00000000000E+00 0. -1.
        -14    1    6    6    0    0 -0.28204327933E+02  0.31616747423E+02  0.13751993751E+03  0.14389870063E+03  0.00000000000E+00 0.  1.
</event>
<event>
12    1  0.8219652E-002  0.2926659E+03  0.7818608E-02  0.1088983E+00
         21   -1    0    0  501  502  0.00000000000E+00  0.00000000000E+00  0.19430273967E+03  0.19430273967E+03  0.00000000000E+00 0.  1.
         21   -1    0    0  502  503 -0.00000000000E+00 -0.00000000000E+00 -0.45306164911E+03  0.45306164911E+03  0.00000000000E+00 0. -1.
         -6    2    1    2    0  503 -0.20130847486E+03  0.12373006287E+03 -0.18305710183E+03  0.34520027497E+03  0.17268206856E+03 0.  0.
        -24    2    3    3    0    0 -0.69601667818E+02  0.41964448194E+01 -0.11128225897E+03  0.15334437349E+03  0.79175459624E+02 0.  0.
          6    2    1    2  501    0  0.20130847486E+03 -0.12373006287E+03 -0.75701807611E+02  0.30216411381E+03  0.17244754997E+03 0.  0.
         24    2    5    5    0    0  0.14566244605E+03 -0.15545153804E+03 -0.65010065321E+02  0.23705546721E+03  0.81155758102E+02 0.  0.
          5    1    5    5  501    0  0.55646028818E+02  0.31721475164E+02 -0.10691742290E+02  0.65108646607E+02  0.47000000000E+01 0. -1.
        -11    1    6    6    0    0  0.64777798151E+02 -0.19007883028E+02 -0.58368073340E+01  0.67760837291E+02  0.00000000000E+00 0.  1.
         12    1    6    6    0    0  0.80884647896E+02 -0.13644365501E+03 -0.59173257987E+02  0.16929462992E+03  0.00000000000E+00 0. -1.
         -5    1    3    3    0  503 -0.13170680705E+03  0.11953361806E+03 -0.71774842861E+02  0.19185590149E+03  0.47000000000E+01 0.  1.
         11    1    4    4    0    0 -0.50682779647E+02  0.25654687594E+02 -0.24311687653E+02  0.61789686071E+02  0.00000000000E+00 0. -1.
        -12    1    4    4    0    0 -0.18918888171E+02 -0.21458242775E+02 -0.86970571317E+02  0.91554687416E+02  0.00000000000E+00 0.  1.
</event>
<event>
12    1  0.8219652E-002  0.2365174E+03  0.7818608E-02  0.1123120E+00
         21   -1    0    0  503  502  0.00000000000E+00  0.00000000000E+00  0.87136069197E+03  0.87136069197E+03  0.00000000000E+00 0.  1.
         21   -1    0    0  501  503 -0.00000000000E+00 -0.00000000000E+00 -0.77505524964E+02  0.77505524964E+02  0.00000000000E+00 0.  1.
          6    2    1    2  501    0  0.15998215809E+03  0.28290786424E+02  0.18532164064E+03  0.29598528151E+03  0.16391618858E+03 0.  0.
         24    2    3    3    0    0  0.18306323560E+03  0.76863749938E+01  0.14987842519E+03  0.24870326135E+03  0.76279363401E+02 0.  0.
         -6    2    1    2    0  502 -0.15998215809E+03 -0.28290786424E+02  0.60853352637E+03  0.65288093543E+03  0.17188892815E+03 0.  0.
        -24    2    5    5    0    0 -0.18746842293E+03 -0.17164958385E+02  0.51476971095E+03  0.55442778979E+03  0.83446230473E+02 0.  0.
          5    1    3    3  501    0 -0.23081077506E+02  0.20604411430E+02  0.35443215446E+02  0.47282020159E+02  0.47000000000E+01 0. -1.
        -13    1    4    4    0    0  0.91851212026E+02  0.40015398575E+02  0.91514879417E+02  0.13569395870E+03  0.00000000000E+00 0.  1.
         14    1    4    4    0    0  0.91212023571E+02 -0.32329023582E+02  0.58363545777E+02  0.11300930265E+03  0.00000000000E+00 0. -1.
         -5    1    5    5    0  502  0.27486264843E+02 -0.11125828039E+02  0.93763815415E+02  0.98453145637E+02  0.47000000000E+01 0.  1.
         13    1    6    6    0    0 -0.28720790103E+01  0.17796783137E+02  0.46870943115E+02  0.50218120597E+02  0.00000000000E+00 0. -1.
        -14    1    6    6    0    0 -0.18459634392E+03 -0.34961741522E+02  0.46789876784E+03  0.50420966919E+03  0.00000000000E+00 0.  1.
</event>
<event>
12    1  0.8219652E-002  0.1760403E+03  0.7818608E-02  0.1172089E+00
         21   -1    0    0  501  502  0.00000000000E+00  0.00000000000E+00  0.51766509182E+02  0.51766509182E+02  0.00000000000E+00 0.  1.
         21   -1    0    0  502  503 -0.00000000000E+00 -0.00000000000E+00 -0.17593978915E+04  0.17593978915E+04  0.00000000000E+00 0.  1.
         -6    2    1    2    0  503 -0.15838191424E+02  0.33467734949E+02 -0.15923800316E+04  0.16020812565E+04  0.17210243971E+03 0.  0.
        -24    2    3    3    0    0  0.15815759743E+02  0.17090508390E+02 -0.15097650745E+04  0.15119840462E+04  0.78504470494E+02 0.  0.
          6    2    1    2  501    0  0.15838191424E+02 -0.33467734949E+02 -0.11525135075E+03  0.20908314423E+03  0.17047565738E+03 0.  0.
         24    2    5    5    0    0  0.87811252318E+01  0.23394015652E+02 -0.52424950578E+01  0.84957807591E+02  0.81030594146E+02 0.  0.
          5    1    5    5  501    0  0.70570661922E+01 -0.56861750601E+02 -0.11000885569E+03  0.12412533663E+03  0.47000000000E+01 0. -1.
        -11    1    6    6    0    0  0.44694841438E+02  0.13358120953E+02  0.30829910850E+01  0.46750113161E+02  0.00000000000E+00 0.  1.
         12    1    6    6    0    0 -0.35913716206E+02  0.10035894700E+02 -0.83254861428E+01  0.38207694430E+02  0.00000000000E+00 0. -1.
         -5    1    3    3    0  503 -0.31653951167E+02  0.16377226559E+02 -0.82614957104E+02  0.90097210343E+02  0.47000000000E+01 0.  1.
         13    1    4    4    0    0  0.47387806030E+02  0.16902618688E+02 -0.93015225421E+03  0.93151195305E+03  0.00000000000E+00 0. -1.
        -14    1    4    4    0    0 -0.31572046287E+02  0.18788970221E+00 -0.57961282031E+03  0.58047209310E+03  0.00000000000E+00 0.  1.
</event>
<event>
12    1  0.8219652E-002  0.1723618E+03  0.7818608E-02  0.1176281E+00
         21   -1    0    0  501  502  0.00000000000E+00  0.00000000000E+00  0.22501890822E+03  0.22501890822E+03  0.00000000000E+00 0.  1.
         21   -1    0    0  502  503 -0.00000000000E+00 -0.00000000000E+00 -0.14555587612E+03  0.14555587612E+03  0.00000000000E+00 0.  1.
         -6    2    1    2    0  503 -0.60260425508E+01  0.16069346734E+02 -0.21544266207E+02  0.17370305550E+03  0.17150527394E+03 0.  0.
        -24    2    3    3    0    0  0.29852694758E+02  0.59696294714E+02 -0.46290745209E+02  0.11185588415E+03  0.76903021655E+02 0.  0.
          6    2    1    2  501    0  0.60260425508E+01 -0.16069346734E+02  0.10100729830E+03  0.19687172884E+03  0.16811146961E+03 0.  0.
         24    2    5    5    0    0 -0.48553755444E+02  0.11343444654E+02  0.97773390178E+02  0.13552872890E+03  0.79512638147E+02 0.  0.
          5    1    5    5  501    0  0.54579797995E+02 -0.27412791388E+02  0.32339081252E+01  0.61342999947E+02  0.47000000000E+01 0. -1.
        -13    1    6    6    0    0  0.89417163666E+01  0.21184138244E+02  0.16018392886E+01  0.23049683161E+02  0.00000000000E+00 0.  1.
         14    1    6    6    0    0 -0.57495471810E+02 -0.98406935904E+01  0.96171550890E+02  0.11247904574E+03  0.00000000000E+00 0. -1.
         -5    1    3    3    0  503 -0.35878737309E+02 -0.43626947981E+02  0.24746479002E+02  0.61847171350E+02  0.47000000000E+01 0.  1.
         11    1    4    4    0    0  0.10448899930E+02  0.75723443327E+02 -0.31600911468E+02  0.82715397506E+02  0.00000000000E+00 0. -1.
        -12    1    4    4    0    0  0.19403794828E+02 -0.16027148612E+02 -0.14689833741E+02  0.29140486642E+02  0.00000000000E+00 0.  1.
</event>
<event>
12    1  0.8219652E-002  0.1800115E+03  0.7818608E-02  0.1167854E+00
         21   -1    0    0  503  502  0.00000000000E+00  0.00000000000E+00  0.24206035849E+03  0.24206035849E+03  0.00000000000E+00 0.  1.
         21   -1    0    0  501  503 -0.00000000000E+00 -0.00000000000E+00 -0.14935916077E+03  0.14935916077E+03  0.00000000000E+00 0. -1.
          6    2    1    2  501    0  0.34875825063E+02 -0.38423464554E+02 -0.17093332322E+02  0.18056657135E+03  0.17210293106E+03 0.  0.
         24    2    3    3    0    0  0.71317578317E+02 -0.70974031401E+02 -0.24834347530E+02  0.13087196301E+03  0.79920058641E+02 0.  0.
         -6    2    1    2    0  502 -0.34875825063E+02  0.38423464554E+02  0.10979453004E+03  0.21085294790E+03  0.17237006994E+03 0.  0.
        -24    2    5    5    0    0  0.12756516598E+02 -0.49348354887E+01  0.12112939258E+03  0.14528350942E+03  0.79043576865E+02 0.  0.
          5    1    3    3  501    0 -0.36441753254E+02  0.32550566847E+02  0.77410152079E+01  0.49694608347E+02  0.47000000000E+01 0. -1.
        -11    1    4    4    0    0  0.14766950194E+02 -0.43973711236E+02  0.23246706575E+02  0.51886023788E+02  0.00000000000E+00 0.  1.
         12    1    4    4    0    0  0.56550628123E+02 -0.27000320165E+02 -0.48081054105E+02  0.78985939217E+02  0.00000000000E+00 0. -1.
         -5    1    5    5    0  502 -0.47632341661E+02  0.43358300043E+02 -0.11334862544E+02  0.65569438488E+02  0.47000000000E+01 0.  1.
         13    1    6    6    0    0  0.89035799151E+01  0.13353748760E+02 -0.57396043468E+01  0.17045216317E+02  0.00000000000E+00 0. -1.
        -14    1    6    6    0    0  0.38529366828E+01 -0.18288584248E+02  0.12686899693E+03  0.12823829310E+03  0.00000000000E+00 0.  1.
</event>
<event>
12    1  0.8219652E-002  0.2080680E+03  0.7818608E-02  0.1143327E+00
         21   -1    0    0  501  502  0.00000000000E+00  0.00000000000E+00  0.32690533695E+03  0.32690533695E+03  0.00000000000E+00 0. -1.
         21   -1    0    0  502  503 -0.00000000000E+00 -0.00000000000E+00 -0.39499054523E+03  0.39499054523E+03  0.00000000000E+00 0. -1.
         -6    2    1    2    0  503 -0.59432852373E+02 -0.10050112919E+03 -0.32868825459E+03  0.38841988857E+03  0.17088387935E+03 0.  0.
        -24    2    3    3    0    0 -0.16824384643E+02 -0.12182798836E+03 -0.18470278960E+03  0.23668254783E+03  0.82330974110E+02 0.  0.
          6    2    1    2  501    0  0.59432852373E+02  0.10050112919E+03  0.26060304631E+03  0.33347599361E+03  0.17221948106E+03 0.  0.
         24    2    5    5    0    0  0.21071038553E+02  0.12543737604E+03  0.24319226734E+03  0.28429601404E+03  0.74183695878E+02 0.  0.
          5    1    5    5  501    0  0.38361813820E+02 -0.24936246845E+02  0.17410778978E+02  0.49179979574E+02  0.47000000000E+01 0. -1.
        -13    1    6    6    0    0  0.22373356283E+02  0.18857939271E+02  0.16014258873E+02  0.33356340210E+02  0.00000000000E+00 0.  1.
         14    1    6    6    0    0 -0.13023177302E+01  0.10657943677E+03  0.22717800846E+03  0.25093967383E+03  0.00000000000E+00 0. -1.
         -5    1    3    3    0  503 -0.42608467730E+02  0.21326859170E+02 -0.14398546499E+03  0.15173734073E+03  0.47000000000E+01 0.  1.
         11    1    4    4    0    0 -0.46111154529E+02 -0.80830444139E+02 -0.14606193531E+03  0.17318743666E+03  0.00000000000E+00 0. -1.
        -12    1    4    4    0    0  0.29286769886E+02 -0.40997544223E+02 -0.38640854287E+02  0.63495111171E+02  0.00000000000E+00 0.  1.
</event>
<event>
12    1  0.8219652E-002  0.1922271E+03  0.7818608E-02  0.1157102E+00
         21   -1    0    0  501  502  0.00000000000E+00  0.00000000000E+00  0.15165537490E+03  0.15165537490E+03  0.00000000000E+00 0.  1.
         21   -1    0    0  502  503 -0.00000000000E+00 -0.00000000000E+00 -0.24238971221E+03  0.24238971221E+03  0.00000000000E+00 0. -1.
         -6    2    1    2    0  503  0.83167162535E+02 -0.21957558384E+02 -0.64946994575E+02  0.20290235585E+03  0.17190794808E+03 0.  0.
        -24    2    3    3    0    0  0.18751828064E+02 -0.46513372006E+02 -0.92588284215E+02  0.12848156447E+03  0.73619271953E+02 0.  0.
          6    2    1    2  501    0 -0.83167162535E+02  0.21957558384E+02 -0.25787342737E+02  0.19114273126E+03  0.16873543011E+03 0.  0.
         24    2    5    5    0    0 -0.64735688650E+02 -0.26360270755E+02  0.34212424417E+02  0.11179291147E+03  0.80259527858E+02 0.  0.
          5    1    5    5  501    0 -0.18431473885E+02  0.48317829139E+02 -0.59999767154E+02  0.79349819791E+02  0.47000000000E+01 0. -1.
        -13    1    6    6    0    0 -0.59345794566E+02 -0.44215783088E+02  0.13643797601E+01  0.74019053891E+02  0.00000000000E+00 0.  1.
         14    1    6    6    0    0 -0.53898940842E+01  0.17855512333E+02  0.32848044657E+02  0.37773857583E+02  0.00000000000E+00 0. -1.
         -5    1    3    3    0  503  0.64415334471E+02  0.24555813622E+02  0.27641289639E+02  0.74420791386E+02  0.47000000000E+01 0.  1.
         11    1    4    4    0    0  0.17598188127E+02 -0.66118694086E+02 -0.63251610207E+02  0.93178023840E+02  0.00000000000E+00 0. -1.
        -12    1    4    4    0    0  0.11536399367E+01  0.19605322080E+02 -0.29336674008E+02  0.35303540627E+02  0.00000000000E+00 0.  1.
</event>
<event>
12    1  0.8219652E-002  0.1861763E+03  0.7818608E-02  0.1162095E+00
         21   -1    0    0  503  502  0.00000000000E+00  0.00000000000E+00  0.60162934019E+03  0.60162934019E+03  0.00000000000E+00 0. -1.
         21   -1    0    0  501  503 -0.00000000000E+00 -0.00000000000E+00 -0.66303615915E+02  0.66303615915E+02  0.00000000000E+00 0. -1.
          6    2    1    2  501    0 -0.20016265482E+02 -0.67170609734E+02  0.14584612724E+03  0.23650093161E+03  0.17247914693E+03 0.  0.
         24    2    3    3    0    0 -0.17919243129E+02 -0.44053553002E+01  0.15334169157E+03  0.17308052360E+03  0.78119695630E+02 0.  0.
         -6    2    1    2    0  502  0.20016265482E+02  0.67170609734E+02  0.38947959703E+03  0.43143202449E+03  0.17183333076E+03 0.  0.
        -24    2    5    5    0    0 -0.50254317811E+02  0.44397748925E+02  0.16470916918E+03  0.19478800217E+03  0.79477033213E+02 0.  0.
          5    1    3    3  501    0 -0.20970223528E+01 -0.62765254434E+02 -0.74955643351E+01  0.63420408006E+02  0.47000000000E+01 0. -1.
        -11    1    4    4    0    0 -0.11049598971E+02  0.36595545810E+02  0.64153538435E+02  0.74679341884E+02  0.00000000000E+00 0.  1.
         12    1    4    4    0    0 -0.68696441585E+01 -0.41000901110E+02  0.89188153139E+02  0.98401181716E+02  0.00000000000E+00 0. -1.
         -5    1    5    5    0  502  0.70270583293E+02  0.22772860809E+02  0.22477042785E+03  0.23664402233E+03  0.47000000000E+01 0.  1.
         11    1    6    6    0    0 -0.20123094104E+01  0.50143743165E+02  0.53093355154E+02  0.73057160698E+02  0.00000000000E+00 0. -1.
        -12    1    6    6    0    0 -0.48242008401E+02 -0.57459942394E+01  0.11161581403E+03  0.12173084147E+03  0.00000000000E+00 0.  1.
</event>
<event>
12    1  0.8219652E-002  0.1887841E+03  0.7818608E-02  0.1159573E+00
         21   -1    0    0  503  502  0.00000000000E+00  0.00000000000E+00  0.84187763343E+03  0.84187763343E+03  0.00000000000E+00 0. -1.
         21   -1    0    0  501  503 -0.00000000000E+00 -0.00000000000E+00 -0.50870371490E+02  0.50870371490E+02  0.00000000000E+00 0. -1.
          6    2    1    2  501    0  0.72016359592E+02  0.26738807336E+02  0.21249157740E+03  0.28420890595E+03  0.17239696022E+03 0.  0.
         24    2    3    3    0    0  0.81576802312E+02 -0.26636341381E+02  0.81855611036E+02  0.14268804434E+03  0.79342722293E+02 0.  0.
         -6    2    1    2    0  502 -0.72016359592E+02 -0.26738807336E+02  0.57851568454E+03  0.60853909896E+03  0.17244743502E+03 0.  0.
        -24    2    5    5    0    0 -0.59102188366E+02  0.39806440544E+02  0.45530181749E+03  0.46783091560E+03  0.80550600232E+02 0.  0.
          5    1    3    3  501    0 -0.95604427198E+01  0.53375148716E+02  0.13063596636E+03  0.14152086162E+03  0.47000000000E+01 0. -1.
        -13    1    4    4    0    0 -0.11715090164E+02  0.10070909791E+02  0.18461386073E+02  0.24072584766E+02  0.00000000000E+00 0.  1.
         14    1    4    4    0    0  0.93291892476E+02 -0.36707251172E+02  0.63394224963E+02  0.11861545957E+03  0.00000000000E+00 0. -1.
         -5    1    5    5    0  502 -0.12914171227E+02 -0.66545247880E+02  0.12321386704E+03  0.14070818337E+03  0.47000000000E+01 0.  1.
         13    1    6    6    0    0 -0.10379906265E+02  0.12901656959E+02  0.10602875845E+02  0.19662557884E+02  0.00000000000E+00 0. -1.
        -14    1    6    6    0    0 -0.48722282101E+02  0.26904783585E+02  0.44469894165E+03  0.44816835771E+03  0.00000000000E+00 0.  1.
</event>
<event>
12    1  0.8219652E-002  0.2028351E+03  0.7818608E-02  0.1147482E+00
         21   -1    0    0  501  502  0.00000000000E+00  0.00000000000E+00  0.38860888221E+03  0.38860888221E+03  0.00000000000E+00 0. -1.
         21   -1    0    0  502  503 -0.00000000000E+00 -0.00000000000E+00 -0.12294378201E+03  0.12294378201E+03  0.00000000000E+00 0. -1.
         -6    2    1    2    0  503  0.10754396696E+03 -0.12974562973E+01  0.22878520115E+03  0.30539206289E+03  0.17133083665E+03 0.  0.
        -24    2    3    3    0    0  0.10992869915E+03 -0.33957942294E+02  0.23174110476E+03  0.27217728215E+03  0.84493032509E+02 0.  0.
          6    2    1    2  501    0 -0.10754396696E+03  0.12974562973E+01  0.36879899051E+02  0.20616060134E+03  0.17197290009E+03 0.  0.
         24    2    5    5    0    0 -0.68846121031E+02  0.24221574100E+02  0.86726183465E+02  0.13885695711E+03  0.80208170439E+02 0.  0.
          5    1    5    5  501    0 -0.38697845932E+02 -0.22924117802E+02 -0.49846284415E+02  0.67303644231E+02  0.47000000000E+01 0. -1.
        -13    1    6    6    0    0 -0.25395784696E+02 -0.29733376684E+02  0.33608960075E+02  0.51561436817E+02  0.00000000000E+00 0.  1.
         14    1    6    6    0    0 -0.43450336335E+02  0.53954950783E+02  0.53117223391E+02  0.87295520288E+02  0.00000000000E+00 0. -1.
         -5    1    3    3    0  503 -0.23847321829E+01  0.32660485997E+02 -0.29559036125E+01  0.33214780736E+02  0.47000000000E+01 0.  1.
         11    1    4    4    0    0  0.85959386048E+01  0.24352637122E+02  0.43116875359E+02  0.50259387541E+02  0.00000000000E+00 0. -1.
        -12    1    4    4    0    0  0.10133276054E+03 -0.58310579416E+02  0.18862422940E+03  0.22191789461E+03  0.00000000000E+00 0.  1.
</event>
<event>
12    1  0.8219652E-002  0.2618159E+03  0.7818608E-02  0.1107502E+00
         21   -1    0    0  503  502  0.00000000000E+00  0.00000000000E+00  0.12170622340E+03  0.12170622340E+03  0.00000000000E+00 0. -1.
         21   -1    0    0  501  503 -0.00000000000E+00 -0.00000000000E+00 -0.62231855581E+03  0.62231855581E+03  0.00000000000E+00 0.  1.
          6    2    1    2  501    0 -0.15282513047E+03 -0.10373060091E+03 -0.12149836330E+03  0.28863369113E+03  0.18555860881E+03 0.  0.
         24    2    3    3    0    0 -0.15018875458E+03 -0.55895439018E+02 -0.14911413308E+03  0.23313707923E+03  0.80230361614E+02 0.  0.
         -6    2    1    2    0  502  0.15282513047E+03  0.10373060091E+03 -0.37911396911E+03  0.45539108808E+03  0.17186646986E+03 0.  0.
        -24    2    5    5    0    0  0.10061372660E+03  0.26573293841E+02 -0.12584139164E+03  0.18548671756E+03  0.87977296019E+02 0.  0.
          5    1    3    3  501    0 -0.26363758950E+01 -0.47835161897E+02  0.27615769781E+02  0.55496611898E+02  0.47000000000E+01 0. -1.
        -13    1    4    4    0    0 -0.58190690681E+02 -0.50210827038E+02 -0.10713841313E+03  0.13185569082E+03  0.00000000000E+00 0.  1.
         14    1    4    4    0    0 -0.91998063894E+02 -0.56846119806E+01 -0.41975719956E+02  0.10128138842E+03  0.00000000000E+00 0. -1.
         -5    1    5    5    0  502  0.52211403871E+02  0.77157307074E+02 -0.25327257747E+03  0.26990437053E+03  0.47000000000E+01 0.  1.
         11    1    6    6    0    0  0.10479441729E+03  0.42818145570E+02 -0.85711143421E+02  0.14199177297E+03  0.00000000000E+00 0. -1.
        -12    1    6    6    0    0 -0.41806906934E+01 -0.16244851729E+02 -0.40130248214E+02  0.43494944581E+02  0.00000000000E+00 0.  1.
</event>
<event>
12    1  0.8219652E-002  0.1782540E+03  0.7818608E-02  0.1169584E+00
         21   -1    0    0  503  502  0.00000000000E+00  0.00000000000E+00  0.25550586564E+02  0.25550586564E+02  0.00000000000E+00 0. -1.
         21   -1    0    0  501  503 -0.00000000000E+00 -0.00000000000E+00 -0.16463697282E+04  0.16463697282E+04  0.00000000000E+00 0. -1.
          6    2    1    2  501    0  0.47848510092E+02 -0.21561159863E+01 -0.12256162945E+04  0.12385111112E+04  0.17169840560E+03 0.  0.
         24    2    3    3    0    0  0.67831883460E+02  0.53877998388E+02 -0.69583283979E+03  0.70537721052E+03  0.76613739353E+02 0.  0.
         -6    2    1    2    0  502 -0.47848510092E+02  0.21561159863E+01 -0.39520284713E+03  0.43340920355E+03  0.17135961773E+03 0.  0.
        -24    2    5    5    0    0 -0.48028228025E+02 -0.46924499089E+02 -0.35506783242E+03  0.36983366989E+03  0.78709328926E+02 0.  0.
          5    1    3    3  501    0 -0.19983373368E+02 -0.56034114375E+02 -0.52978345467E+03  0.53313390066E+03  0.47000000000E+01 0. -1.
        -11    1    4    4    0    0  0.70285898571E+02  0.99552534455E+01 -0.39191680740E+03  0.39829385952E+03  0.00000000000E+00 0.  1.
         12    1    4    4    0    0 -0.24540151112E+01  0.43922744943E+02 -0.30391603239E+03  0.30708335100E+03  0.00000000000E+00 0. -1.
         -5    1    5    5    0  502  0.17971793266E+00  0.49080615075E+02 -0.40135014708E+02  0.63575533661E+02  0.47000000000E+01 0.  1.
         13    1    6    6    0    0 -0.43564070136E+02 -0.28757825914E+01 -0.79206926739E+02  0.90442443442E+02  0.00000000000E+00 0. -1.
        -14    1    6    6    0    0 -0.44641578889E+01 -0.44048716498E+02 -0.27586090568E+03  0.27939122644E+03  0.00000000000E+00 0.  1.
</event>
<event>
12    1  0.8219652E-002  0.1788041E+03  0.7818608E-02  0.1169113E+00
         21   -1    0    0  503  502  0.00000000000E+00  0.00000000000E+00  0.12164759546E+04  0.12164759546E+04  0.00000000000E+00 0.  1.
         21   -1    0    0  501  503 -0.00000000000E+00 -0.00000000000E+00 -0.41833791435E+02  0.41833791435E+02  0.00000000000E+00 0. -1.
          6    2    1    2  501    0  0.38161641939E+02 -0.33854906486E+02  0.20324110995E+03  0.27069880434E+03  0.17137219228E+03 0.  0.
         24    2    3    3    0    0  0.37743649504E+02 -0.86327368631E+02  0.12065210899E+03  0.17273673474E+03  0.80025311431E+02 0.  0.
         -6    2    1    2    0  502 -0.38161641939E+02  0.33854906486E+02  0.97140105322E+03  0.98761094170E+03  0.17074220443E+03 0.  0.
        -24    2    5    5    0    0 -0.89019772046E+02  0.42285003922E+02  0.71527982751E+03  0.72631075380E+03  0.78673617376E+02 0.  0.
          5    1    3    3  501    0  0.41799243432E+00  0.52472462145E+02  0.82589000960E+02  0.97962069603E+02  0.47000000000E+01 0. -1.
        -13    1    4    4    0    0 -0.15059251646E+02 -0.12353158591E+02  0.60971888687E+02  0.64007443297E+02  0.00000000000E+00 0.  1.
         14    1    4    4    0    0  0.52802901150E+02 -0.73974210040E+02  0.59680220307E+02  0.10872929144E+03  0.00000000000E+00 0. -1.
         -5    1    5    5    0  502  0.50858130107E+02 -0.84300974357E+01  0.25612122570E+03  0.26130018790E+03  0.47000000000E+01 0.  1.
         11    1    6    6    0    0 -0.44047473993E+02 -0.11833193655E+02  0.43289491566E+03  0.43529095148E+03  0.00000000000E+00 0. -1.
        -12    1    6    6    0    0 -0.44972298053E+02  0.54118197576E+02  0.28238491185E+03  0.29101980232E+03  0.00000000000E+00 0.  1.
</event>
<event>
12    1  0.8219652E-002  0.1758334E+03  0.7818608E-02  0.1172298E+00
         21   -1    0    0  501  502  0.00000000000E+00  0.00000000000E+00  0.96993339018E+02  0.96993339018E+02  0.00000000000E+00 0. -1.
         21   -1    0    0  502  503 -0.00000000000E+00 -0.00000000000E+00 -0.35227744113E+03  0.35227744113E+03  0.00000000000E+00 0. -1.
         -6    2    1    2    0  503  0.22493991053E+02  0.27667117243E+02 -0.54901578726E+02  0.18268018260E+03  0.17054740325E+03 0.  0.
        -24    2    3    3    0    0 -0.15838983725E+02 -0.10929488643E+02  0.27802296708E+02  0.83578538044E+02  0.76433482139E+02 0.  0.
          6    2    1    2  501    0 -0.22493991053E+02 -0.27667117243E+02 -0.20038252338E+03  0.26659059755E+03  0.17217996984E+03 0.  0.
         24    2    5    5    0    0  0.36580364404E+02  0.26251919747E+02 -0.71425117959E+02  0.11477115072E+03  0.77740486305E+02 0.  0.
          5    1    5    5  501    0 -0.59074355457E+02 -0.53919036990E+02 -0.12895740543E+03  0.15181944683E+03  0.47000000000E+01 0. -1.
        -13    1    6    6    0    0  0.30952812292E+02 -0.23647484810E+02 -0.24328238741E+02  0.45925410470E+02  0.00000000000E+00 0.  1.
         14    1    6    6    0    0  0.56275521118E+01  0.49899404557E+02 -0.47096879217E+02  0.68845740246E+02  0.00000000000E+00 0. -1.
         -5    1    3    3    0  503  0.38332974779E+02  0.38596605886E+02 -0.82703875433E+02  0.99101644552E+02  0.47000000000E+01 0.  1.
         11    1    4    4    0    0 -0.29534637374E+02 -0.13169490679E+02 -0.17100010479E+02  0.36580604806E+02  0.00000000000E+00 0. -1.
        -12    1    4    4    0    0  0.13695653649E+02  0.22400020366E+01  0.44902307187E+02  0.46997933238E+02  0.00000000000E+00 0.  1.
</event>
<event>
12    1  0.8219652E-002  0.1986305E+03  0.7818608E-02  0.1151011E+00
         21   -1    0    0  503  502  0.00000000000E+00  0.00000000000E+00  0.38934354098E+02  0.38934354098E+02  0.00000000000E+00 0.  1.
         21   -1    0    0  501  503 -0.00000000000E+00 -0.00000000000E+00 -0.20174406578E+04  0.20174406578E+04  0.00000000000E+00 0. -1.
          6    2    1    2  501    0  0.96450279441E+02  0.46941535370E+01 -0.17162373806E+04  0.17276935020E+04  0.17357822163E+03 0.  0.
         24    2    3    3    0    0  0.10062424272E+03  0.61067838050E+02 -0.12684467481E+04  0.12763245235E+04  0.78693185209E+02 0.  0.
         -6    2    1    2    0  502 -0.96450279441E+02 -0.46941535370E+01 -0.26226892312E+03  0.32868150985E+03  0.17297934964E+03 0.  0.
        -24    2    5    5    0    0 -0.34281362857E+02 -0.45434483523E+01 -0.24988116809E+03  0.26511624122E+03  0.81548564865E+02 0.  0.
          5    1    3    3  501    0 -0.41739632785E+01 -0.56373684513E+02 -0.44779063244E+03  0.45136897852E+03  0.47000000000E+01 0. -1.
        -13    1    4    4    0    0  0.39259076504E+02  0.42798013171E+01 -0.16281800073E+03  0.16753893025E+03  0.00000000000E+00 0.  1.
         14    1    4    4    0    0  0.61365166215E+02  0.56788036733E+02 -0.11056287474E+04  0.11087855933E+04  0.00000000000E+00 0. -1.
         -5    1    5    5    0  502 -0.62168916584E+02 -0.15070518473E+00 -0.12387755029E+02  0.63565268630E+02  0.47000000000E+01 0.  1.
         11    1    6    6    0    0 -0.10160210205E+02  0.29837542441E+02 -0.18609216573E+03  0.18874268981E+03  0.00000000000E+00 0. -1.
        -12    1    6    6    0    0 -0.24121152653E+02 -0.34380990793E+02 -0.63789002354E+02  0.76373551407E+02  0.00000000000E+00 0.  1.
</event>
<event>
12    1  0.8219652E-002  0.2005186E+03  0.7818608E-02  0.1149307E+00
         21   -1    0    0  501  502  0.00000000000E+00  0.00000000000E+00  0.28045534287E+03  0.28045534287E+03  0.00000000000E+00 0.  1.
         21   -1    0    0  502  503 -0.00000000000E+00 -0.00000000000E+00 -0.80601702468E+03  0.80601702468E+03  0.00000000000E+00 0.  1.
         -6    2    1    2    0  503 -0.65687147420E+02 -0.78528200896E+02 -0.75535024111E+03  0.78151244554E+03  0.17241298127E+03 0.  0.
        -24    2    3    3    0    0 -0.25184371330E+02  0.88992222150E+01 -0.22589982369E+03  0.24334531193E+03  0.86445137412E+02 0.  0.
          6    2    1    2  501    0  0.65687147420E+02  0.78528200896E+02  0.22978855930E+03  0.30495992201E+03  0.17238414189E+03 0.  0.
         24    2    5    5    0    0 -0.39079652200E+01 -0.12939386297E+02  0.68880011926E+02  0.10716343613E+03  0.80974354518E+02 0.  0.
          5    1    5    5  501    0  0.69595112640E+02  0.91467587192E+02  0.16090854738E+03  0.19779648589E+03  0.47000000000E+01 0. -1.
        -13    1    6    6    0    0  0.21053174608E+02 -0.17246763352E+02  0.76103565648E+02  0.80823509646E+02  0.00000000000E+00 0.  1.
         14    1    6    6    0    0 -0.24961139828E+02  0.43073770555E+01 -0.72235537219E+01  0.26339926480E+02  0.00000000000E+00 0. -1.
         -5    1    3    3    0  503 -0.40502776090E+02 -0.87427423111E+02 -0.52945041743E+03  0.53816713361E+03  0.47000000000E+01 0.  1.
         13    1    4    4    0    0  0.21589071668E+02  0.30861694237E+02 -0.76649551867E+02  0.85403079500E+02  0.00000000000E+00 0. -1.
        -14    1    4    4    0    0 -0.46773442998E+02 -0.21962472022E+02 -0.14925027182E+03  0.15794223243E+03  0.00000000000E+00 0.  1.
</event>
<event>
12    1  0.8219652E-002  0.2218780E+03  0.7818608E-02  0.1132556E+00
         21   -1    0    0  503  502  0.00000000000E+00  0.00000000000E+00  0.66442268989E+03  0.66442268989E+03  0.00000000000E+00 0.  1.
         21   -1    0    0  501  503 -0.00000000000E+00 -0.00000000000E+00 -0.24507259143E+03  0.24507259143E+03  0.00000000000E+00 0.  1.
          6    2    1    2  501    0 -0.13122346881E+03 -0.46922257365E+02 -0.17024015552E+03  0.27966326118E+03  0.17265147582E+03 0.  0.
         24    2    3    3    0    0 -0.85608104943E+02 -0.63033031461E+02 -0.18603263670E+03  0.22855738164E+03  0.79551392822E+02 0.  0.
         -6    2    1    2    0  502  0.13122346881E+03  0.46922257365E+02  0.58959025398E+03  0.62983202013E+03  0.17219294117E+03 0.  0.
        -24    2    5    5    0    0  0.92353207358E+02  0.65557954937E+02  0.56123092125E+03  0.57801958724E+03  0.79369615734E+02 0.  0.
          5    1    3    3  501    0 -0.45615363863E+02  0.16110774096E+02  0.15792481172E+02  0.51105879543E+02  0.47000000000E+01 0. -1.
        -13    1    4    4    0    0  0.14599042241E+02 -0.11344910578E+02 -0.39960147851E+02  0.44030131122E+02  0.00000000000E+00 0.  1.
         14    1    4    4    0    0 -0.10020714718E+03 -0.51688120883E+02 -0.14607248884E+03  0.18452725052E+03  0.00000000000E+00 0. -1.
         -5    1    5    5    0  502  0.38870261448E+02 -0.18635697572E+02  0.28359332736E+02  0.51812432893E+02  0.47000000000E+01 0.  1.
         11    1    6    6    0    0 -0.84237349810E+01 -0.86053742885E+01  0.74284421648E+02  0.75254149901E+02  0.00000000000E+00 0. -1.
        -12    1    6    6    0    0  0.10077694234E+03  0.74163329226E+02  0.48694649960E+03  0.50276543734E+03  0.00000000000E+00 0.  1.
</event>
<event>
12    1  0.8219652E-002  0.2972034E+03  0.7818608E-02  0.1086760E+00
         21   -1    0    0  503  502  0.00000000000E+00  0.00000000000E+00  0.53042501508E+03  0.53042501508E+03  0.00000000000E+00 0.  1.
         21   -1    0    0  501  503 -0.00000000000E+00 -0.00000000000E+00 -0.21319409290E+03  0.21319409290E+03  0.00000000000E+00 0. -1.
          6    2    1    2  501    0 -0.24108589342E+03  0.12466135388E+02 -0.16081289826E+02  0.29763816822E+03  0.17335529632E+03 0.  0.
         24    2    3    3    0    0 -0.22613084728E+03 -0.38174574174E+02 -0.21606519103E+01  0.24282932742E+03  0.79805736850E+02 0.  0.
         -6    2    1    2    0  502  0.24108589342E+03 -0.12466135388E+02  0.33331221201E+03  0.44598093975E+03  0.17182594511E+03 0.  0.
        -24    2    5    5    0    0  0.14199565236E+03 -0.20254500031E+02  0.29687109133E+03  0.34001122817E+03  0.83079361784E+02 0.  0.
          5    1    3    3  501    0 -0.14955046137E+02  0.50640709562E+02 -0.13920637916E+02  0.54808840801E+02  0.47000000000E+01 0. -1.
        -11    1    4    4    0    0 -0.26360223733E+02 -0.30859129600E+02 -0.13041344687E+02  0.42628909746E+02  0.00000000000E+00 0.  1.
         12    1    4    4    0    0 -0.19977062355E+03 -0.73154445739E+01  0.10880692777E+02  0.20020041768E+03  0.00000000000E+00 0. -1.
         -5    1    5    5    0  502  0.99090241056E+02  0.77883646426E+01  0.36441120678E+02  0.10596971158E+03  0.47000000000E+01 0.  1.
         11    1    6    6    0    0  0.20627898667E+02 -0.32115797005E+02  0.38023922900E+02  0.53877206066E+02  0.00000000000E+00 0. -1.
        -12    1    6    6    0    0  0.12136775370E+03  0.11861296974E+02  0.25884716843E+03  0.28613402211E+03  0.00000000000E+00 0.  1.
</event>
<event>
12    1  0.8219652E-002  0.3263714E+03  0.7818608E-02  0.1072876E+00
         21   -1    0    0  503  502  0.00000000000E+00  0.00000000000E+00  0.21338021602E+03  0.21338021602E+03  0.00000000000E+00 0.  1.
         21   -1    0    0  501  503 -0.00000000000E+00 -0.00000000000E+00 -0.49813645664E+03  0.49813645664E+03  0.00000000000E+00 0. -1.
          6    2    1    2  501    0 -0.14625647958E+03  0.23535094918E+03 -0.13023563519E+03  0.35139669340E+03  0.17244502997E+03 0.  0.
         24    2    3    3    0    0 -0.20123501559E+02  0.81768894605E+02  0.41363464326E+01  0.11144900103E+03  0.72888017040E+02 0.  0.
         -6    2    1    2    0  502  0.14625647958E+03 -0.23535094918E+03 -0.15452060543E+03  0.36011997926E+03  0.17037826991E+03 0.  0.
        -24    2    5    5    0    0  0.18865185895E+02 -0.54454285646E+02 -0.77025739856E+02  0.12564249894E+03  0.80820223185E+02 0.  0.
          5    1    3    3  501    0 -0.12613297802E+03  0.15358205457E+03 -0.13437198163E+03  0.23994769238E+03  0.47000000000E+01 0. -1.
        -11    1    4    4    0    0  0.45638279065E+01 -0.11977127424E+02  0.67208866485E+01  0.14472402145E+02  0.00000000000E+00 0.  1.
         12    1    4    4    0    0 -0.24687329466E+02  0.93746022029E+02 -0.25845402159E+01  0.96976598881E+02  0.00000000000E+00 0. -1.
         -5    1    5    5    0  502  0.12739129369E+03 -0.18089666353E+03 -0.77494865579E+02  0.23447748032E+03  0.47000000000E+01 0.  1.
         11    1    6    6    0    0  0.41891521233E+02 -0.62166617377E+02 -0.57229374263E+02  0.94312189805E+02  0.00000000000E+00 0. -1.
        -12    1    6    6    0    0 -0.23026335339E+02  0.77123317302E+01 -0.19796365593E+02  0.31330309136E+02  0.00000000000E+00 0.  1.
</event>
<event>
12    1  0.8219652E-002  0.2098375E+03  0.7818608E-02  0.1141974E+00
         21   -1    0    0  501  502  0.00000000000E+00  0.00000000000E+00  0.17336826824E+03  0.17336826824E+03  0.00000000000E+00 0. -1.
         21   -1    0    0  502  503 -0.00000000000E+00 -0.00000000000E+00 -0.49016637288E+03  0.49016637288E+03  0.00000000000E+00 0.  1.
         -6    2    1    2    0  503 -0.11982863983E+03  0.96274603144E+01 -0.38924950740E+03  0.44154143722E+03  0.17027058130E+03 0.  0.
        -24    2    3    3    0    0 -0.88694869944E+02  0.53336231160E+02 -0.35425549486E+03  0.37730407123E+03  0.78421126092E+02 0.  0.
          6    2    1    2  501    0  0.11982863983E+03 -0.96274603144E+01  0.72451402757E+02  0.22199320391E+03  0.17198891216E+03 0.  0.
         24    2    5    5    0    0  0.12782518424E+03 -0.53512832434E+02  0.35158963837E+02  0.16366065203E+03  0.79660249324E+02 0.  0.
          5    1    5    5  501    0 -0.79965444098E+01  0.43885372119E+02  0.37292438921E+02  0.58332551883E+02  0.47000000000E+01 0. -1.
        -11    1    6    6    0    0  0.23404595031E+02  0.73302607764E+01 -0.19197712998E+02  0.31145785846E+02  0.00000000000E+00 0.  1.
         12    1    6    6    0    0  0.10442058921E+03 -0.60843093210E+02  0.54356676834E+02  0.13251486618E+03  0.00000000000E+00 0. -1.
         -5    1    3    3    0  503 -0.31133769886E+02 -0.43708770846E+02 -0.34994012538E+02  0.64237365992E+02  0.47000000000E+01 0.  1.
         11    1    4    4    0    0 -0.45231117734E+02  0.66772902382E+02 -0.18062700620E+03  0.19781453403E+03  0.00000000000E+00 0. -1.
        -12    1    4    4    0    0 -0.43463752210E+02 -0.13436671222E+02 -0.17362848866E+03  0.17948953720E+03  0.00000000000E+00 0.  1.
</event>
<event>
12    1  0.8219652E-002  0.2027143E+03  0.7818608E-02  0.1147770E+00
         21   -1    0    0  501  502  0.00000000000E+00  0.00000000000E+00  0.27458412258E+03  0.27458412258E+03  0.00000000000E+00 0.  1.
         21   -1    0    0  502  503 -0.00000000000E+00 -0.00000000000E+00 -0.15372294246E+03  0.15372294246E+03  0.00000000000E+00 0.  1.
         -6    2    1    2    0  503 -0.72201757149E+01  0.10510881289E+03  0.21091587437E+02  0.20237110193E+03  0.17149114948E+03 0.  0.
        -24    2    3    3    0    0 -0.20879100133E+02  0.14295811042E+02  0.65385223585E+02  0.10030453676E+03  0.71731900822E+02 0.  0.
          6    2    1    2  501    0  0.72201757149E+01 -0.10510881289E+03  0.99769592683E+02  0.22593596312E+03  0.17318514463E+03 0.  0.
         24    2    5    5    0    0 -0.41388247033E+02 -0.11119912143E+03  0.10373750009E+03  0.17656284382E+03  0.79591062897E+02 0.  0.
          5    1    5    5  501    0  0.48608422748E+02  0.60903085324E+01 -0.39679074098E+01  0.49373119298E+02  0.47000000000E+01 0. -1.
        -13    1    6    6    0    0 -0.10241035674E+02 -0.10119206982E+03  0.49243660174E+02  0.11300288436E+03  0.00000000000E+00 0.  1.
         14    1    6    6    0    0 -0.31147211359E+02 -0.10007051607E+02  0.54493839919E+02  0.63559959459E+02  0.00000000000E+00 0. -1.
         -5    1    3    3    0  503  0.13658924418E+02  0.90813001853E+02 -0.44293636148E+02  0.10206656517E+03  0.47000000000E+01 0.  1.
         13    1    4    4    0    0 -0.19987080794E+02 -0.23165207359E+02  0.77553291584E+01  0.31563513129E+02  0.00000000000E+00 0. -1.
        -14    1    4    4    0    0 -0.89201933876E+00  0.37461018401E+02  0.57629894426E+02  0.68741023630E+02  0.00000000000E+00 0.  1.
</event>
<event>
12    1  0.8219652E-002  0.2394390E+03  0.7818608E-02  0.1122421E+00
         21   -1    0    0  501  502  0.00000000000E+00  0.00000000000E+00  0.19088711154E+03  0.19088711154E+03  0.00000000000E+00 0.  1.
         21   -1    0    0  502  503 -0.00000000000E+00 -0.00000000000E+00 -0.29314163678E+03  0.29314163678E+03  0.00000000000E+00 0. -1.
         -6    2    1    2    0  503  0.11319507634E+02  0.16639419917E+03 -0.92121959254E+02  0.24437541251E+03  0.15302851398E+03 0.  0.
        -24    2    3    3    0    0 -0.10577944059E+02  0.31791987097E+02 -0.50664140716E+02  0.10176372083E+03  0.81647880425E+02 0.  0.
          6    2    1    2  501    0 -0.11319507634E+02 -0.16639419917E+03 -0.10132565991E+02  0.23965333581E+03  0.17180189666E+03 0.  0.
         24    2    5    5    0    0 -0.48562745933E+02 -0.17560242643E+03 -0.19103977337E+02  0.19997429260E+03  0.80188548364E+02 0.  0.
          5    1    5    5  501    0  0.37243238299E+02  0.92082272578E+01  0.89714113463E+01  0.39679043207E+02  0.47000000000E+01 0. -1.
        -13    1    6    6    0    0 -0.18876801338E+02 -0.10412117552E+03  0.27880103715E+02  0.10942967149E+03  0.00000000000E+00 0.  1.
         14    1    6    6    0    0 -0.29685944595E+02 -0.71481250915E+02 -0.46984081052E+02  0.90544621106E+02  0.00000000000E+00 0. -1.
         -5    1    3    3    0  503  0.21897451693E+02  0.13460221208E+03 -0.41457818538E+02  0.14261169168E+03  0.47000000000E+01 0.  1.
         13    1    4    4    0    0  0.35806947833E+02  0.14030839665E+02 -0.19396844905E+02  0.43072492000E+02  0.00000000000E+00 0. -1.
        -14    1    4    4    0    0 -0.46384891892E+02  0.17761147432E+02 -0.31267295811E+02  0.58691228827E+02  0.00000000000E+00 0.  1.
</event>
<event>
12    1  0.8219652E-002  0.2288714E+03  0.7818608E-02  0.1127815E+00
         21   -1    0    0  501  502  0.00000000000E+00  0.00000000000E+00  0.49453986202E+02  0.49453986202E+02  0.00000000000E+00 0.  1.
         21   -1    0    0  502  503 -0.00000000000E+00 -0.00000000000E+00 -0.11215015694E+04  0.11215015694E+04  0.00000000000E+00 0.  1.
         -6    2    1    2    0  503 -0.24369592199E+02  0.14457704000E+03 -0.68213203673E+03  0.71883138057E+03  0.17296832266E+03 0.  0.
        -24    2    3    3    0    0 -0.24085769541E+02  0.16651345389E+02 -0.15912524490E+03  0.18038615755E+03  0.79755442906E+02 0.  0.
          6    2    1    2  501    0  0.24369592199E+02 -0.14457704000E+03 -0.38991554643E+03  0.45212417499E+03  0.17574338890E+03 0.  0.
         24    2    5    5    0    0  0.43320178858E+02 -0.93858492618E+02 -0.37312331167E+03  0.39524214855E+03  0.79431075440E+02 0.  0.
          5    1    5    5  501    0 -0.18950586658E+02 -0.50718547387E+02 -0.16792234761E+02  0.56882026441E+02  0.47000000000E+01 0. -1.
        -11    1    6    6    0    0 -0.18630575112E+02 -0.50658801995E+02 -0.13351752976E+03  0.14401508012E+03  0.00000000000E+00 0.  1.
         12    1    6    6    0    0  0.61950753969E+02 -0.43199690622E+02 -0.23960578190E+03  0.25122706842E+03  0.00000000000E+00 0. -1.
         -5    1    3    3    0  503 -0.28382265811E+00  0.12792569462E+03 -0.52300679183E+03  0.53844522303E+03  0.47000000000E+01 0.  1.
         11    1    4    4    0    0  0.39186297888E+01 -0.82177259275E+01 -0.13613683175E+03  0.13644091629E+03  0.00000000000E+00 0. -1.
        -12    1    4    4    0    0 -0.28004399330E+02  0.24869071316E+02 -0.22988413143E+02  0.43945241253E+02  0.00000000000E+00 0.  1.
</event>
<event>
12    1  0.8219652E-002  0.1898355E+03  0.7818608E-02  0.1158932E+00
         21   -1    0    0  503  502  0.00000000000E+00  0.00000000000E+00  0.61142032292E+02  0.61142032292E+02  0.00000000000E+00 0. -1.
         21   -1    0    0  501  503 -0.00000000000E+00 -0.00000000000E+00 -0.67653763569E+03  0.67653763569E+03  0.00000000000E+00 0. -1.
          6    2    1    2  501    0 -0.64513822284E+01  0.78056776946E+02 -0.44237025632E+03  0.48082312571E+03  0.17136205466E+03 0.  0.
         24    2    3    3    0    0  0.47716085940E+02  0.64283451427E+02 -0.38246476192E+03  0.39875865494E+03  0.79498325720E+02 0.  0.
         -6    2    1    2    0  502  0.64513822284E+01 -0.78056776946E+02 -0.17302534708E+03  0.25685654227E+03  0.17292493116E+03 0.  0.
        -24    2    5    5    0    0 -0.54776009154E+02 -0.41399354873E+02 -0.14628294637E+03  0.18050337571E+03  0.80426677674E+02 0.  0.
          5    1    3    3  501    0 -0.54167468169E+02  0.13773325519E+02 -0.59905494405E+02  0.82064470774E+02  0.47000000000E+01 0. -1.
        -11    1    4    4    0    0  0.10418793310E+02  0.72955087425E+01 -0.24516177521E+03  0.24549149013E+03  0.00000000000E+00 0.  1.
         12    1    4    4    0    0  0.37297292630E+02  0.56987942684E+02 -0.13730298671E+03  0.15326716481E+03  0.00000000000E+00 0. -1.
         -5    1    5    5    0  502  0.61227391382E+02 -0.36657422072E+02 -0.26742400703E+02  0.76353166561E+02  0.47000000000E+01 0.  1.
         13    1    6    6    0    0  0.20987753489E+02 -0.44813849913E+01 -0.28805577575E+02  0.35921162389E+02  0.00000000000E+00 0. -1.
        -14    1    6    6    0    0 -0.75763762643E+02 -0.36917969882E+02 -0.11747736880E+03  0.14458221332E+03  0.00000000000E+00 0.  1.
</event>
<event>
12    1  0.8219652E-002  0.1886295E+03  0.7818608E-02  0.1160459E+00
         21   -1    0    0  503  502  0.00000000000E+00  0.00000000000E+00  0.41446381021E+02  0.41446381021E+02  0.00000000000E+00 0. -1.
         21   -1    0    0  501  503 -0.00000000000E+00 -0.00000000000E+00 -0.84594645643E+03  0.84594645643E+03  0.00000000000E+00 0. -1.
          6    2    1    2  501    0  0.15003123107E+02 -0.74884979911E+02 -0.38228316862E+03  0.42628807521E+03  0.17247680464E+03 0.  0.
         24    2    3    3    0    0  0.13482588273E+02  0.27926772274E+02 -0.16541017932E+03  0.18622859945E+03  0.79742579815E+02 0.  0.
         -6    2    1    2    0  502 -0.15003123107E+02  0.74884979911E+02 -0.42221690679E+03  0.46110476224E+03  0.16887164197E+03 0.  0.
        -24    2    5    5    0    0  0.58645373172E+01  0.93017493501E+02 -0.40182169152E+03  0.42643053396E+03  0.10814657473E+03 0.  0.
          5    1    3    3  501    0  0.15205348338E+01 -0.10281175219E+03 -0.21687298930E+03  0.24005947576E+03  0.47000000000E+01 0. -1.
        -11    1    4    4    0    0 -0.24124188588E+02  0.16577681334E+02 -0.19618287215E+02  0.35237383369E+02  0.00000000000E+00 0.  1.
         12    1    4    4    0    0  0.37606776862E+02  0.11349090940E+02 -0.14579189211E+03  0.15099121608E+03  0.00000000000E+00 0. -1.
         -5    1    5    5    0  502 -0.20867660425E+02 -0.18132513590E+02 -0.20395215273E+02  0.34674228279E+02  0.47000000000E+01 0.  1.
         11    1    6    6    0    0 -0.46476415042E+02  0.16003856709E+02 -0.15614701099E+03  0.16370115951E+03  0.00000000000E+00 0. -1.
        -12    1    6    6    0    0  0.52340952359E+02  0.77013636793E+02 -0.24567468053E+03  0.26272937445E+03  0.00000000000E+00 0.  1.
</event>
<event>
12    1  0.8219652E-002  0.1789889E+03  0.7818608E-02  0.1168999E+00
         21   -1    0    0  503  502  0.00000000000E+00  0.00000000000E+00  0.12299120737E+04  0.12299120737E+04  0.00000000000E+00 0. -1.
         21   -1    0    0  501  503 -0.00000000000E+00 -0.00000000000E+00 -0.32075910764E+02  0.32075910764E+02  0.00000000000E+00 0. -1.
          6    2    1    2  501    0 -0.65861276771E+01  0.45575252465E+02  0.32370280556E+03  0.36989260511E+03  0.17296402016E+03 0.  0.
         24    2    3    3    0    0  0.32161189559E+02  0.79703534315E+02  0.27322047634E+03  0.29752790530E+03  0.80538377458E+02 0.  0.
         -6    2    1    2    0  502  0.65861276771E+01 -0.45575252465E+02  0.87413335738E+03  0.89209537936E+03  0.17205975322E+03 0.  0.
        -24    2    5    5    0    0 -0.47108458447E+02 -0.18285380840E+02  0.72731629444E+03  0.73333396830E+03  0.78969328805E+02 0.  0.
          5    1    3    3  501    0 -0.38747317236E+02 -0.34128281850E+02  0.50482329223E+02  0.72364699811E+02  0.47000000000E+01 0. -1.
        -11    1    4    4    0    0 -0.47746309263E+01  0.12220678338E+02  0.16063110058E+03  0.16116604032E+03  0.00000000000E+00 0.  1.
         12    1    4    4    0    0  0.36935820485E+02  0.67482855977E+02  0.11258937576E+03  0.13636186497E+03  0.00000000000E+00 0. -1.
         -5    1    5    5    0  502  0.53694586124E+02 -0.27289871625E+02  0.14681706294E+03  0.15876141106E+03  0.47000000000E+01 0.  1.
         13    1    6    6    0    0 -0.13540477088E+02 -0.42314313655E+02  0.22630557823E+03  0.23062536807E+03  0.00000000000E+00 0. -1.
        -14    1    6    6    0    0 -0.33567981359E+02  0.24028932816E+02  0.50101071621E+03  0.50270860023E+03  0.00000000000E+00 0.  1.
</event>
<event>
12    1  0.8219652E-002  0.3139403E+03  0.7818608E-02  0.1078584E+00
         21   -1    0    0  501  502  0.00000000000E+00  0.00000000000E+00  0.25518154670E+03  0.25518154670E+03  0.00000000000E+00 0.  1.
         21   -1    0    0  502  503 -0.00000000000E+00 -0.00000000000E+00 -0.51415594703E+03  0.51415594703E+03  0.00000000000E+00 0. -1.
         -6    2    1    2    0  503  0.26110048793E+03 -0.15725301984E+02 -0.32237826574E+03  0.44998473843E+03  0.17360232912E+03 0.  0.
        -24    2    3    3    0    0  0.97657599373E+02  0.22662354767E+02 -0.21428022829E+03  0.25024874840E+03  0.81595531756E+02 0.  0.
          6    2    1    2  501    0 -0.26110048793E+03  0.15725301984E+02  0.63403865416E+02  0.31935275531E+03  0.17188770245E+03 0.  0.
         24    2    5    5    0    0 -0.40543401262E+02  0.12705607483E+02  0.39210236916E+02  0.97402380912E+02  0.78387379603E+02 0.  0.
          5    1    5    5  501    0 -0.22055708667E+03  0.30196945011E+01  0.24193628500E+02  0.22195037440E+03  0.47000000000E+01 0. -1.
        -11    1    6    6    0    0 -0.51153447489E+02 -0.30612256923E+01  0.53152299366E+02  0.73832331811E+02  0.00000000000E+00 0.  1.
         12    1    6    6    0    0  0.10610046227E+02  0.15766833176E+02 -0.13942062449E+02  0.23570049102E+02  0.00000000000E+00 0. -1.
         -5    1    3    3    0  503  0.16344288856E+03 -0.38387656751E+02 -0.10809803746E+03  0.19973599003E+03  0.47000000000E+01 0.  1.
         11    1    4    4    0    0  0.53520355184E+02 -0.18489777763E+02 -0.51118053815E+02  0.76284701786E+02  0.00000000000E+00 0. -1.
        -12    1    4    4    0    0  0.44137244190E+02  0.41152132530E+02 -0.16316217447E+03  0.17396404661E+03  0.00000000000E+00 0.  1.
</event>
<event>
12    1  0.8219652E-002  0.3612424E+03  0.7818608E-02  0.1058293E+00
         21   -1    0    0  503  502  0.00000000000E+00  0.00000000000E+00  0.20978740149E+04  0.20978740149E+04  0.00000000000E+00 0.  1.
         21   -1    0    0  501  503 -0.00000000000E+00 -0.00000000000E+00 -0.12261917145E+03  0.12261917145E+03  0.00000000000E+00 0. -1.
          6    2    1    2  501    0 -0.16848857411E+03 -0.26703041378E+03  0.20466933658E+03  0.41343228986E+03  0.17129821796E+03 0.  0.
         24    2    3    3    0    0 -0.10814392217E+03 -0.16430400956E+03  0.50675461276E+02  0.21867501844E+03  0.80992875318E+02 0.  0.
         -6    2    1    2    0  502  0.16848857411E+03  0.26703041378E+03  0.17705855068E+04  0.18070608965E+04  0.17550613952E+03 0.  0.
        -24    2    5    5    0    0  0.93636764065E+01  0.92591384629E+02  0.67016508108E+03  0.68158459223E+03  0.82313288875E+02 0.  0.
          5    1    3    3  501    0 -0.60344651934E+02 -0.10272640422E+03  0.15399387531E+03  0.19475727143E+03  0.47000000000E+01 0. -1.
        -11    1    4    4    0    0 -0.82678274143E+02 -0.61219164014E+02  0.45149777490E+02  0.11234760997E+03  0.00000000000E+00 0.  1.
         12    1    4    4    0    0 -0.25465648031E+02 -0.10308484554E+03  0.55256837865E+01  0.10632740847E+03  0.00000000000E+00 0. -1.
         -5    1    5    5    0  502  0.15912489770E+03  0.17443902915E+03  0.11004204258E+04  0.11254763042E+04  0.47000000000E+01 0.  1.
         11    1    6    6    0    0 -0.51023660791E+00 -0.14764204146E+02  0.50708307952E+02  0.52816423211E+02  0.00000000000E+00 0. -1.
        -12    1    6    6    0    0  0.98739130144E+01  0.10735558878E+03  0.61945677313E+03  0.62876816902E+03  0.00000000000E+00 0.  1.
</event>
<event>
12    1  0.8219652E-002  0.2889072E+03  0.7818608E-02  0.1091071E+00
         21   -1    0    0  503  502  0.00000000000E+00  0.00000000000E+00  0.44635967318E+02  0.44635967318E+02  0.00000000000E+00 0.  1.
         21   -1    0    0  501  503 -0.00000000000E+00 -0.00000000000E+00 -0.18647557373E+04  0.18647557373E+04  0.00000000000E+00 0.  1.
          6    2    1    2  501    0 -0.21097099774E+03  0.95012234712E+02 -0.94077208613E+03  0.98380015641E+03  0.17109805105E+03 0.  0.
         24    2    3    3    0    0 -0.75645078119E+02  0.67265943302E+02 -0.63877570743E+03  0.65167538474E+03  0.79996985553E+02 0.  0.
         -6    2    1    2    0  502  0.21097099774E+03 -0.95012234712E+02 -0.87934768380E+03  0.92559154816E+03  0.17300658481E+03 0.  0.
        -24    2    5    5    0    0  0.70979140485E+02  0.25887822529E+01 -0.47131899319E+03  0.48328714962E+03  0.79875750162E+02 0.  0.
          5    1    3    3  501    0 -0.13532591962E+03  0.27746291409E+02 -0.30199637870E+03  0.33212477167E+03  0.47000000000E+01 0. -1.
        -13    1    4    4    0    0 -0.66122519721E+02  0.60057711558E+01 -0.36237513594E+03  0.36840737784E+03  0.00000000000E+00 0.  1.
         14    1    4    4    0    0 -0.95225583974E+01  0.61260172146E+02 -0.27640057149E+03  0.28326800690E+03  0.00000000000E+00 0. -1.
         -5    1    5    5    0  502  0.13999185726E+03 -0.97601016965E+02 -0.40802869061E+03  0.44230439854E+03  0.47000000000E+01 0.  1.
         11    1    6    6    0    0  0.50597598824E+02  0.32169273574E+02 -0.17912909044E+03  0.18889735364E+03  0.00000000000E+00 0. -1.
        -12    1    6    6    0    0  0.20381541662E+02 -0.29580491321E+02 -0.29218990275E+03  0.29438979598E+03  0.00000000000E+00 0.  1.
</event>
<event>
12    1  0.8219652E-002  0.2082979E+03  0.7818608E-02  0.1143104E+00
         21   -1    0    0  501  502  0.00000000000E+00  0.00000000000E+00  0.21183837682E+02  0.21183837682E+02  0.00000000000E+00 0.  1.
         21   -1    0    0  502  503 -0.00000000000E+00 -0.00000000000E+00 -0.21480482798E+04  0.21480482798E+04  0.00000000000E+00 0.  1.
         -6    2    1    2    0  503  0.11658918257E+03  0.10423214931E+02 -0.13098176601E+04  0.13262768676E+04  0.17229725993E+03 0.  0.
        -24    2    3    3    0    0  0.66299328704E+02 -0.26340346835E+02 -0.39147872612E+03  0.40581550685E+03  0.79631763361E+02 0.  0.
          6    2    1    2  501    0 -0.11658918257E+03 -0.10423214931E+02 -0.81704678196E+03  0.84295524988E+03  0.17119120446E+03 0.  0.
         24    2    5    5    0    0 -0.14256964459E+03 -0.39394591205E+02 -0.63941518448E+03  0.66105033111E+03  0.79105781953E+02 0.  0.
          5    1    5    5  501    0  0.25980462020E+02  0.28971376274E+02 -0.17763159748E+03  0.18190491877E+03  0.47000000000E+01 0. -1.
        -11    1    6    6    0    0 -0.90500644345E+00  0.15495216156E+02 -0.71447928700E+02  0.73114480617E+02  0.00000000000E+00 0.  1.
         12    1    6    6    0    0 -0.14166463814E+03 -0.54889807360E+02 -0.56796725578E+03  0.58793585049E+03  0.00000000000E+00 0. -1.
         -5    1    3    3    0  503  0.50289853862E+02  0.36763561765E+02 -0.91833893403E+03  0.92046136075E+03  0.47000000000E+01 0.  1.
         13    1    4    4    0    0 -0.15187857975E+02 -0.95178687050E+01 -0.13482877436E+03  0.13601492290E+03  0.00000000000E+00 0. -1.
        -14    1    4    4    0    0  0.81487186679E+02 -0.16822478130E+02 -0.25664995175E+03  0.26980058395E+03  0.00000000000E+00 0.  1.
</event>
<event>
12    1  0.8219652E-002  0.2246224E+03  0.7818608E-02  0.1130499E+00
         21   -1    0    0  503  502  0.00000000000E+00  0.00000000000E+00  0.71618506367E+03  0.71618506367E+03  0.00000000000E+00 0.  1.
         21   -1    0    0  501  503 -0.00000000000E+00 -0.00000000000E+00 -0.76305220873E+02  0.76305220873E+02  0.00000000000E+00 0. -1.
          6    2    1    2  501    0 -0.64595872222E+02  0.12882636464E+03  0.20986904050E+03  0.30734649715E+03  0.17218593501E+03 0.  0.
         24    2    3    3    0    0 -0.95705650276E+02  0.13254164762E+03  0.13648834121E+03  0.22741878827E+03  0.79770784910E+02 0.  0.
         -6    2    1    2    0  502  0.64595872222E+02 -0.12882636464E+03  0.43001080230E+03  0.48514378739E+03  0.17229725888E+03 0.  0.
        -24    2    5    5    0    0  0.10681311306E+03 -0.57142646139E+02  0.27515350226E+03  0.30929236062E+03  0.72649785999E+02 0.  0.
          5    1    3    3  501    0  0.31109778054E+02 -0.37152829792E+01  0.73380699288E+02  0.79927708876E+02  0.47000000000E+01 0. -1.
        -11    1    4    4    0    0 -0.86714246169E+02  0.10338005763E+03  0.14257449440E+03  0.19630151109E+03  0.00000000000E+00 0.  1.
         12    1    4    4    0    0 -0.89914041074E+01  0.29161589987E+02 -0.60861531897E+01  0.31117277179E+02  0.00000000000E+00 0. -1.
         -5    1    5    5    0  502 -0.42217240835E+02 -0.71683718499E+02  0.15485730004E+03  0.17585142677E+03  0.47000000000E+01 0.  1.
         11    1    6    6    0    0  0.38144329024E+02  0.38514911864E+01  0.14508238210E+03  0.15006239175E+03  0.00000000000E+00 0. -1.
        -12    1    6    6    0    0  0.68668784034E+02 -0.60994137326E+02  0.13007112016E+03  0.15922996887E+03  0.00000000000E+00 0.  1.
</event>
<event>
12    1  0.8219652E-002  0.2238045E+03  0.7818608E-02  0.1131964E+00
         21   -1    0    0  503  502  0.00000000000E+00  0.00000000000E+00  0.14714803621E+03  0.14714803621E+03  0.00000000000E+00 0. -1.
         21   -1    0    0  501  503 -0.00000000000E+00 -0.00000000000E+00 -0.35894163428E+03  0.35894163428E+03  0.00000000000E+00 0. -1.
          6    2    1    2  501    0 -0.10441222198E+03  0.93757097486E+02 -0.39109433483E+02  0.22719592013E+03  0.17434486775E+03 0.  0.
         24    2    3    3    0    0 -0.12950485953E+03  0.11274419272E+03 -0.48470336355E+02  0.19403168115E+03  0.76263740726E+02 0.  0.
         -6    2    1    2    0  502  0.10441222198E+03 -0.93757097486E+02 -0.17268416459E+03  0.27889375035E+03  0.16813565314E+03 0.  0.
        -24    2    5    5    0    0  0.10796761811E+02 -0.72903881168E+02 -0.41583818690E+02  0.11638805289E+03  0.79908816304E+02 0.  0.
          5    1    3    3  501    0  0.25092637552E+02 -0.18987095235E+02  0.93609028723E+01  0.33164238984E+02  0.47000000000E+01 0. -1.
        -11    1    4    4    0    0 -0.24185113219E+02  0.62008761096E+02 -0.38045639879E+02  0.76664704186E+02  0.00000000000E+00 0.  1.
         12    1    4    4    0    0 -0.10531974631E+03  0.50735431626E+02 -0.10424696476E+02  0.11736697697E+03  0.00000000000E+00 0. -1.
         -5    1    5    5    0  502  0.93615460168E+02 -0.20853216318E+02 -0.13110034590E+03  0.16250569746E+03  0.47000000000E+01 0.  1.
         11    1    6    6    0    0  0.13572257246E+02  0.13070494562E+01 -0.39835769346E+02  0.42104667964E+02  0.00000000000E+00 0. -1.
        -12    1    6    6    0    0 -0.27754954351E+01 -0.74210930625E+02 -0.17480493440E+01  0.74283384923E+02  0.00000000000E+00 0.  1.
</event>
<event>
12    1  0.8219652E-002  0.2103877E+03  0.7818608E-02  0.1141273E+00
         21   -1    0    0  503  502  0.00000000000E+00  0.00000000000E+00  0.17803296206E+03  0.17803296206E+03  0.00000000000E+00 0. -1.
         21   -1    0    0  501  503 -0.00000000000E+00 -0.00000000000E+00 -0.24854222721E+03  0.24854222721E+03  0.00000000000E+00 0. -1.
          6    2    1    2  501    0  0.12020375627E+03 -0.87559444808E+01 -0.34531569896E+02  0.21320271950E+03  0.17244523971E+03 0.  0.
         24    2    3    3    0    0  0.12085363403E+03  0.46044921232E+02 -0.41630175184E+02  0.15774068365E+03  0.80145593538E+02 0.  0.
         -6    2    1    2    0  502 -0.12020375627E+03  0.87559444808E+01 -0.35977695255E+02  0.21337246976E+03  0.17235952748E+03 0.  0.
        -24    2    5    5    0    0 -0.18742418251E+02 -0.37841087236E+01 -0.65956885459E+02  0.10673055543E+03  0.81703751462E+02 0.  0.
          5    1    3    3  501    0 -0.64987775994E+00 -0.54800865713E+02  0.70986052884E+01  0.55462035853E+02  0.47000000000E+01 0. -1.
        -13    1    4    4    0    0  0.36948398249E+02  0.47883150625E+02  0.67701987821E+01  0.60858983220E+02  0.00000000000E+00 0.  1.
         14    1    4    4    0    0  0.83905235776E+02 -0.18382293930E+01 -0.48400373966E+02  0.96881700429E+02  0.00000000000E+00 0. -1.
         -5    1    5    5    0  502 -0.10146133801E+03  0.12540053204E+02  0.29979190204E+02  0.10664191433E+03  0.47000000000E+01 0.  1.
         11    1    6    6    0    0 -0.98993382798E+01  0.38818606967E+02 -0.26836673874E+02  0.48219168490E+02  0.00000000000E+00 0. -1.
        -12    1    6    6    0    0 -0.88430799710E+01 -0.42602715691E+02 -0.39120211585E+02  0.58511386943E+02  0.00000000000E+00 0.  1.
</event>
<event>
12    1  0.8219652E-002  0.2066460E+03  0.7818608E-02  0.1144349E+00
         21   -1    0    0  501  502  0.00000000000E+00  0.00000000000E+00  0.11596880329E+03  0.11596880329E+03  0.00000000000E+00 0.  1.
         21   -1    0    0  502  503 -0.00000000000E+00 -0.00000000000E+00 -0.89586216814E+03  0.89586216814E+03  0.00000000000E+00 0. -1.
         -6    2    1    2    0  503 -0.61023014449E+02  0.95792484953E+02 -0.77833972103E+03  0.80517911091E+03  0.17204845495E+03 0.  0.
        -24    2    3    3    0    0 -0.81386057657E+02  0.12545664978E+03 -0.66550304362E+03  0.68665138431E+03  0.78947838218E+02 0.  0.
          6    2    1    2  501    0  0.61023014449E+02 -0.95792484953E+02 -0.15536438291E+01  0.20665186052E+03  0.17263420629E+03 0.  0.
         24    2    5    5    0    0  0.58712435136E+02 -0.12173335252E+03 -0.37229767877E+02  0.16223178382E+03  0.81651312983E+02 0.  0.
          5    1    5    5  501    0  0.23105793120E+01  0.25940867562E+02  0.35676124048E+02  0.44420076697E+02  0.47000000000E+01 0. -1.
        -13    1    6    6    0    0  0.25366856257E+02 -0.76136525989E+02  0.19061665552E+02  0.82483908004E+02  0.00000000000E+00 0.  1.
         14    1    6    6    0    0  0.33345578880E+02 -0.45596826526E+02 -0.56291433429E+02  0.79747875819E+02  0.00000000000E+00 0. -1.
         -5    1    3    3    0  503  0.20363043208E+02 -0.29664164827E+02 -0.11283667741E+03  0.11852772660E+03  0.47000000000E+01 0.  1.
         11    1    4    4    0    0 -0.50840524928E+02  0.99342117630E+02 -0.59607485087E+03  0.60643123530E+03  0.00000000000E+00 0. -1.
        -12    1    4    4    0    0 -0.30545532729E+02  0.26114532150E+02 -0.69428192747E+02  0.80220149010E+02  0.00000000000E+00 0.  1.
</event>
<event>
12    1  0.8219652E-002  0.1990279E+03  0.7818608E-02  0.1150719E+00
         21   -1    0    0  503  502  0.00000000000E+00  0.00000000000E+00  0.30229530483E+03  0.30229530483E+03  0.00000000000E+00 0.  1.
         21   -1    0    0  501  503 -0.00000000000E+00 -0.00000000000E+00 -0.18895230827E+03  0.18895230827E+03  0.00000000000E+00 0.  1.
          6    2    1    2  501    0 -0.91814438662E+02  0.36729051192E+02  0.19329624678E+03  0.27744467359E+03  0.17272288075E+03 0.  0.
         24    2    3    3    0    0 -0.30416037953E+02  0.54883689120E+02  0.36255338402E+02  0.10778828146E+03  0.79790408949E+02 0.  0.
         -6    2    1    2    0  502  0.91814438662E+02 -0.36729051192E+02 -0.79953250226E+02  0.21380293951E+03  0.17187280289E+03 0.  0.
        -24    2    5    5    0    0  0.16887472857E+02  0.44061508524E+02  0.10314414488E+02  0.71284498469E+02  0.52426036497E+02 0.  0.
          5    1    3    3  501    0 -0.61398400709E+02 -0.18154637928E+02  0.15704090838E+03  0.16965639214E+03  0.47000000000E+01 0. -1.
        -11    1    4    4    0    0  0.21538360423E+02  0.25628578683E+02  0.34594288044E+02  0.48140313463E+02  0.00000000000E+00 0.  1.
         12    1    4    4    0    0 -0.51954398377E+02  0.29255110437E+02  0.16610503579E+01  0.59647967993E+02  0.00000000000E+00 0. -1.
         -5    1    5    5    0  502  0.74926965805E+02 -0.80790559716E+02 -0.90267664714E+02  0.14251844104E+03  0.47000000000E+01 0.  1.
         11    1    6    6    0    0 -0.13489643613E+02  0.10832252020E+01 -0.78054905119E+01  0.15622725235E+02  0.00000000000E+00 0. -1.
        -12    1    6    6    0    0  0.30377116470E+02  0.42978283322E+02  0.18119904999E+02  0.55661773234E+02  0.00000000000E+00 0.  1.
</event>
<event>
12    1  0.8219652E-002  0.1985913E+03  0.7818608E-02  0.1151157E+00
         21   -1    0    0  503  502  0.00000000000E+00  0.00000000000E+00  0.30105275250E+03  0.30105275250E+03  0.00000000000E+00 0.  1.
         21   -1    0    0  501  503 -0.00000000000E+00 -0.00000000000E+00 -0.30105993151E+03  0.30105993151E+03  0.00000000000E+00 0.  1.
          6    2    1    2  501    0 -0.97121509911E+02 -0.13434236464E+02 -0.22672823771E+03  0.30140372228E+03  0.17270044479E+03 0.  0.
         24    2    3    3    0    0 -0.13316372133E+03  0.18296220073E+01 -0.20210802992E+03  0.25492500660E+03  0.80019866516E+02 0.  0.
         -6    2    1    2    0  502  0.97121509911E+02  0.13434236464E+02  0.22672105870E+03  0.30070896173E+03  0.17149453289E+03 0.  0.
        -24    2    5    5    0    0  0.34695216951E+02 -0.96320657555E+01  0.30218621792E+02  0.93189338417E+02  0.80464606639E+02 0.  0.
          5    1    3    3  501    0  0.36042211418E+02 -0.15263858471E+02 -0.24620207787E+02  0.46478715675E+02  0.47000000000E+01 0. -1.
        -11    1    4    4    0    0 -0.42210749046E+02 -0.16946470689E+02 -0.18380148026E+02  0.49058740763E+02  0.00000000000E+00 0.  1.
         12    1    4    4    0    0 -0.90952972283E+02  0.18776092697E+02 -0.18372788190E+03  0.20586626584E+03  0.00000000000E+00 0. -1.
         -5    1    5    5    0  502  0.62426292960E+02  0.23066302220E+02  0.19650243690E+03  0.20751962331E+03  0.47000000000E+01 0.  1.
         13    1    6    6    0    0  0.11495998837E+02 -0.22247775180E+02 -0.22858210362E+02  0.33906035903E+02  0.00000000000E+00 0. -1.
        -14    1    6    6    0    0  0.23199218114E+02  0.12615709424E+02  0.53076832154E+02  0.59283302514E+02  0.00000000000E+00 0.  1.
</event>
<event>
12    1  0.8219652E-002  0.1903065E+03  0.7818608E-02  0.1159162E+00
         21   -1    0    0  503  502  0.00000000000E+00  0.00000000000E+00  0.21281782878E+03  0.21281782878E+03  0.00000000000E+00 0.  1.
         21   -1    0    0  501  503 -0.00000000000E+00 -0.00000000000E+00 -0.22668210014E+03  0.22668210014E+03  0.00000000000E+00 0.  1.
          6    2    1    2  501    0 -0.59532511695E+01  0.72386567573E+02 -0.12034046326E+03  0.22516306363E+03  0.17590145469E+03 0.  0.
         24    2    3    3    0    0  0.17418337184E+02  0.81988522459E+02 -0.14768455240E+03  0.18763683426E+03  0.79820663161E+02 0.  0.
         -6    2    1    2    0  502  0.59532511695E+01 -0.72386567573E+02  0.10647619190E+03  0.21433686529E+03  0.17125377664E+03 0.  0.
        -24    2    5    5    0    0  0.63607696036E+02 -0.27804250704E+02  0.35094020710E+02  0.11221379074E+03  0.80878484105E+02 0.  0.
          5    1    3    3  501    0 -0.23371588353E+02 -0.96019548858E+01  0.27344089144E+02  0.37526229373E+02  0.47000000000E+01 0. -1.
        -13    1    4    4    0    0  0.11066507900E+02  0.65469619584E+01  0.75597471093E+01  0.14915766301E+02  0.00000000000E+00 0.  1.
         14    1    4    4    0    0  0.63518292841E+01  0.75441560501E+02 -0.15524429951E+03  0.17272106796E+03  0.00000000000E+00 0. -1.
         -5    1    5    5    0  502 -0.57654444867E+02 -0.44582316869E+02  0.71382171190E+02  0.10212307454E+03  0.47000000000E+01 0.  1.
         11    1    6    6    0    0  0.13724718669E+02 -0.49926677473E+02  0.20832684998E+02  0.55812559431E+02  0.00000000000E+00 0. -1.
        -12    1    6    6    0    0  0.49882977368E+02  0.22122426769E+02  0.14261335712E+02  0.56401231312E+02  0.00000000000E+00 0.  1.
</event>
<event>
12    1  0.8219652E-002  0.1854342E+03  0.7818608E-02  0.1163244E+00
         21   -1    0    0  501  502  0.00000000000E+00  0.00000000000E+00  0.12932687463E+03  0.12932687463E+03  0.00000000000E+00 0.  1.
         21   -1    0    0  502  503 -0.00000000000E+00 -0.00000000000E+00 -0.26959647266E+03  0.26959647266E+03  0.00000000000E+00 0.  1.
         -6    2    1    2    0  503  0.11194195082E+02 -0.62691760574E+02 -0.10262261187E+03  0.20970620488E+03  0.17143431702E+03 0.  0.
        -24    2    3    3    0    0 -0.23213802607E+02  0.25613797487E+02 -0.57712335301E+02  0.10472618378E+03  0.80261526705E+02 0.  0.
          6    2    1    2  501    0 -0.11194195082E+02  0.62691760574E+02 -0.37646986153E+02  0.18921714240E+03  0.17415586285E+03 0.  0.
         24    2    5    5    0    0 -0.66302746602E+02  0.62915849429E+02  0.20426880439E+01  0.12114098722E+03  0.79476461260E+02 0.  0.
          5    1    5    5  501    0  0.55108551519E+02 -0.22408885506E+00 -0.39689674197E+02  0.68076155181E+02  0.47000000000E+01 0. -1.
        -13    1    6    6    0    0 -0.36110170232E+02 -0.92429274584E+01 -0.16483362256E+02  0.40756316485E+02  0.00000000000E+00 0.  1.
         14    1    6    6    0    0 -0.30192576370E+02  0.72158776888E+02  0.18526050300E+02  0.80384670737E+02  0.00000000000E+00 0. -1.
         -5    1    3    3    0  503  0.34407997690E+02 -0.88305558061E+02 -0.44910276573E+02  0.10498002111E+03  0.47000000000E+01 0.  1.
         13    1    4    4    0    0 -0.47740263240E+01 -0.67776482896E+01 -0.66020572929E+02  0.66539040371E+02  0.00000000000E+00 0. -1.
        -14    1    4    4    0    0 -0.18439776283E+02  0.32391445777E+02  0.83082376280E+01  0.38187143404E+02  0.00000000000E+00 0.  1.
</event>
<event>
12    1  0.8219652E-002  0.2266494E+03  0.7818608E-02  0.1129260E+00
         21   -1    0    0  503  502  0.00000000000E+00  0.00000000000E+00  0.57799243829E+02  0.57799243829E+02  0.00000000000E+00 0. -1.
         21   -1    0    0  501  503 -0.00000000000E+00 -0.00000000000E+00 -0.11707061329E+04  0.11707061329E+04  0.00000000000E+00 0. -1.
          6    2    1    2  501    0  0.14028725570E+03 -0.37221057539E+02 -0.25100789937E+03  0.33730404522E+03  0.17234596643E+03 0.  0.
         24    2    3    3    0    0  0.37710633732E+02  0.21664801323E+02 -0.17135846885E+03  0.19463088892E+03  0.81400261437E+02 0.  0.
         -6    2    1    2    0  502 -0.14028725570E+03  0.37221057539E+02 -0.86189898971E+03  0.89120133151E+03  0.17408050892E+03 0.  0.
        -24    2    5    5    0    0 -0.16877623852E+03  0.42622679115E+02 -0.80087862317E+03  0.82347855255E+03  0.80051520857E+02 0.  0.
          5    1    3    3  501    0  0.10257662196E+03 -0.58885858863E+02 -0.79649430512E+02  0.14267315630E+03  0.47000000000E+01 0. -1.
        -13    1    4    4    0    0 -0.20727346550E+02 -0.78715926150E+01 -0.74402357858E+02  0.77635660107E+02  0.00000000000E+00 0.  1.
         14    1    4    4    0    0  0.58437980283E+02  0.29536393938E+02 -0.96956110996E+02  0.11699522882E+03  0.00000000000E+00 0. -1.
         -5    1    5    5    0  502  0.28488982820E+02 -0.54016215761E+01 -0.61020366533E+02  0.67722778956E+02  0.47000000000E+01 0.  1.
         13    1    6    6    0    0 -0.94198020374E+02  0.32237011221E+02 -0.61367779624E+03  0.62170164028E+03  0.00000000000E+00 0. -1.
        -14    1    6    6    0    0 -0.74578218143E+02  0.10385667895E+02 -0.18720082694E+03  0.20177691227E+03  0.00000000000E+00 0.  1.
</event>
<event>
12    1  0.8219652E-002  0.1822133E+03  0.7818608E-02  0.1165904E+00
         21   -1    0    0  501  502  0.00000000000E+00  0.00000000000E+00  0.11570809466E+03  0.11570809466E+03  0.00000000000E+00 0.  1.
         21   -1    0    0  502  503 -0.00000000000E+00 -0.00000000000E+00 -0.41244667754E+03  0.41244667754E+03  0.00000000000E+00 0.  1.
         -6    2    1    2    0  503  0.51797337029E+02 -0.25755281133E+02 -0.29516739131E+03  0.34687962792E+03  0.17278711973E+03 0.  0.
        -24    2    3    3    0    0 -0.16120070181E+01 -0.53070455710E+02 -0.92569903547E+02  0.13553510151E+03  0.83555399969E+02 0.  0.
          6    2    1    2  501    0 -0.51797337029E+02  0.25755281133E+02 -0.15711915802E+01  0.18127514429E+03  0.17179031016E+03 0.  0.
         24    2    5    5    0    0  0.23732078694E+01 -0.28028361492E+02  0.43625850370E+02  0.92438267092E+02  0.76487889492E+02 0.  0.
          5    1    5    5  501    0 -0.54170544898E+02  0.53783642625E+02 -0.45197041950E+02  0.88836877194E+02  0.47000000000E+01 0. -1.
        -11    1    6    6    0    0 -0.34823980569E+02 -0.25678150395E+02  0.16354881716E+02  0.46255369270E+02  0.00000000000E+00 0.  1.
         12    1    6    6    0    0  0.37197188438E+02 -0.23502110972E+01  0.27270968654E+02  0.46182897822E+02  0.00000000000E+00 0. -1.
         -5    1    3    3    0  503  0.53409344047E+02  0.27315174578E+02 -0.20259748776E+03  0.21134452640E+03  0.47000000000E+01 0.  1.
         13    1    4    4    0    0 -0.42407762080E+02 -0.22853034067E+02 -0.47360363080E+02  0.67555040092E+02  0.00000000000E+00 0. -1.
        -14    1    4    4    0    0  0.40795755062E+02 -0.30217421643E+02 -0.45209540466E+02  0.67980061423E+02  0.00000000000E+00 0.  1.
</event>
<event>
12    1  0.8219652E-002  0.1739321E+03  0.7818608E-02  0.1176986E+00
         21   -1    0    0  503  502  0.00000000000E+00  0.00000000000E+00  0.81979067510E+02  0.81979067510E+02  0.00000000000E+00 0.  1.
         21   -1    0    0  501  503 -0.00000000000E+00 -0.00000000000E+00 -0.34584489343E+03  0.34584489343E+03  0.00000000000E+00 0.  1.
          6    2    1    2  501    0 -0.25916323905E+02 -0.44635397394E+00 -0.14351674532E+03  0.21631445334E+03  0.15975929225E+03 0.  0.
         24    2    3    3    0    0  0.27452148002E+02  0.39243440773E+02 -0.74206197983E+02  0.12014005148E+03  0.81445712456E+02 0.  0.
         -6    2    1    2    0  502  0.25916323905E+02  0.44635397394E+00 -0.12034908060E+03  0.21150950760E+03  0.17198987042E+03 0.  0.
        -24    2    5    5    0    0 -0.43776506972E+01  0.11891175377E+02  0.90481769251E+01  0.78038727693E+02  0.76469664814E+02 0.  0.
          5    1    3    3  501    0 -0.53368471907E+02 -0.39689794747E+02 -0.69310547341E+02  0.96174401862E+02  0.47000000000E+01 0. -1.
        -13    1    4    4    0    0  0.33597836164E+00  0.60066935547E+02 -0.51235274834E+02  0.78950636570E+02  0.00000000000E+00 0.  1.
         14    1    4    4    0    0  0.27116169640E+02 -0.20823494774E+02 -0.22970923149E+02  0.41189414913E+02  0.00000000000E+00 0. -1.
         -5    1    5    5    0  502  0.30293974603E+02 -0.11444821403E+02 -0.12939725752E+03  0.13347077991E+03  0.47000000000E+01 0.  1.
         11    1    6    6    0    0  0.31334925313E+02  0.95568484378E+01 -0.13832976237E+02  0.35560682333E+02  0.00000000000E+00 0. -1.
        -12    1    6    6    0    0 -0.35712576010E+02  0.23343269389E+01  0.22881153162E+02  0.42478045359E+02  0.00000000000E+00 0.  1.
</event>
<event>
12    1  0.8219652E-002  0.2058589E+03  0.7818608E-02  0.1147381E+00
         21   -1    0    0  501  502  0.00000000000E+00  0.00000000000E+00  0.92524678472E+03  0.92524678472E+03  0.00000000000E+00 0. -1.
         21   -1    0    0  502  503 -0.00000000000E+00 -0.00000000000E+00 -0.50192666508E+02  0.50192666508E+02  0.00000000000E+00 0. -1.
         -6    2    1    2    0  503  0.53613879967E+02 -0.73192250538E+02  0.26668751027E+03  0.33689779297E+03  0.18478728613E+03 0.  0.
        -24    2    3    3    0    0  0.21081036462E+02 -0.11296979428E+03  0.13062147478E+03  0.19137564721E+03  0.79725053496E+02 0.  0.
          6    2    1    2  501    0 -0.53613879967E+02  0.73192250538E+02  0.60836660795E+03  0.63854165826E+03  0.17144668560E+03 0.  0.
         24    2    5    5    0    0  0.13573162491E+02 -0.36366120401E+01  0.28922547103E+03  0.30344476470E+03  0.90718776690E+02 0.  0.
          5    1    5    5  501    0 -0.67187042458E+02  0.76828862578E+02  0.31914113692E+03  0.33509689356E+03  0.47000000000E+01 0. -1.
        -13    1    6    6    0    0 -0.50525690207E+01  0.29758908943E+01 -0.55105589086E+01  0.80467782254E+01  0.00000000000E+00 0.  1.
         14    1    6    6    0    0  0.18625731511E+02 -0.66125029344E+01  0.29473602993E+03  0.29539798647E+03  0.00000000000E+00 0. -1.
         -5    1    3    3    0  503  0.32532843505E+02  0.39777543744E+02  0.13606603549E+03  0.14552214576E+03  0.47000000000E+01 0.  1.
         11    1    4    4    0    0 -0.29077453277E+02 -0.51528138255E+02  0.69286897225E+02  0.91111587891E+02  0.00000000000E+00 0. -1.
        -12    1    4    4    0    0  0.50158489738E+02 -0.61441656027E+02  0.61334577556E+02  0.10026405932E+03  0.00000000000E+00 0.  1.
</event>
<event>
12    1  0.8219652E-002  0.1757845E+03  0.7818608E-02  0.1172708E+00
         21   -1    0    0  503  502  0.00000000000E+00  0.00000000000E+00  0.38660007604E+03  0.38660007604E+03  0.00000000000E+00 0.  1.
         21   -1    0    0  501  503 -0.00000000000E+00 -0.00000000000E+00 -0.27169959457E+03  0.27169959457E+03  0.00000000000E+00 0.  1.
          6    2    1    2  501    0  0.81398583292E+01  0.27049768276E+02 -0.21991711376E+03  0.28153815397E+03  0.17349999412E+03 0.  0.
         24    2    3    3    0    0 -0.48924935384E+02  0.34514047359E+02 -0.17677360944E+03  0.20945793402E+03  0.95072858173E+02 0.  0.
         -6    2    1    2    0  502 -0.81398583292E+01 -0.27049768276E+02  0.33481759523E+03  0.37676151664E+03  0.17043612024E+03 0.  0.
        -24    2    5    5    0    0 -0.49552252005E+02 -0.36756003940E+02  0.10045963445E+03  0.13852856102E+03  0.72743347179E+02 0.  0.
          5    1    3    3  501    0  0.57064793714E+02 -0.74642790834E+01 -0.43143504323E+02  0.72080219957E+02  0.47000000000E+01 0. -1.
        -13    1    4    4    0    0  0.28178974286E+02  0.12771834305E+02 -0.64471489733E+02  0.71510470085E+02  0.00000000000E+00 0.  1.
         14    1    4    4    0    0 -0.77103909671E+02  0.21742213055E+02 -0.11230211971E+03  0.13794746393E+03  0.00000000000E+00 0. -1.
         -5    1    5    5    0  502  0.41412393676E+02  0.97062356642E+01  0.23435796078E+03  0.23823295562E+03  0.47000000000E+01 0.  1.
         13    1    6    6    0    0 -0.47993132287E+02 -0.14550300117E+01  0.89442310726E+02  0.10151544122E+03  0.00000000000E+00 0. -1.
        -14    1    6    6    0    0 -0.15591197182E+01 -0.35300973929E+02  0.11017323724E+02  0.37013119791E+02  0.00000000000E+00 0.  1.
</event>
<event>
12    1  0.8219652E-002  0.2097106E+03  0.7818608E-02  0.1141805E+00
         21   -1    0    0  503  502  0.00000000000E+00  0.00000000000E+00  0.51968709602E+03  0.51968709602E+03  0.00000000000E+00 0. -1.
         21   -1    0    0  501  503 -0.00000000000E+00 -0.00000000000E+00 -0.10318678829E+03  0.10318678829E+03  0.00000000000E+00 0.  1.
          6    2    1    2  501    0 -0.23372695563E+02 -0.11670797393E+03  0.76071355322E+02  0.22303589561E+03  0.17260105896E+03 0.  0.
         24    2    3    3    0    0 -0.46282308364E+02 -0.68495579874E+02 -0.15776865151E+02  0.11669930312E+03  0.80846282189E+02 0.  0.
         -6    2    1    2    0  502  0.23372695563E+02  0.11670797393E+03  0.34042895241E+03  0.39983798870E+03  0.17266010392E+03 0.  0.
        -24    2    5    5    0    0 -0.23417881785E+02  0.12511451882E+03  0.30784662922E+03  0.34201302946E+03  0.77468220550E+02 0.  0.
          5    1    3    3  501    0  0.22909612801E+02 -0.48212394060E+02  0.91848220473E+02  0.10633659250E+03  0.47000000000E+01 0. -1.
        -11    1    4    4    0    0  0.18111688294E+02  0.12784490186E+01 -0.11828616523E+02  0.21669883562E+02  0.00000000000E+00 0.  1.
         12    1    4    4    0    0 -0.64393996658E+02 -0.69774028893E+02 -0.39482486281E+01  0.95029419554E+02  0.00000000000E+00 0. -1.
         -5    1    5    5    0  502  0.46790577348E+02 -0.84065448851E+01  0.32582323196E+02  0.57824959233E+02  0.47000000000E+01 0.  1.
         13    1    6    6    0    0  0.19873097848E+02  0.84311140154E+02  0.21439864716E+03  0.23123600126E+03  0.00000000000E+00 0. -1.
        -14    1    6    6    0    0 -0.43290979633E+02  0.40803378666E+02  0.93447982055E+02  0.11077702821E+03  0.00000000000E+00 0.  1.
</event>
<event>
12    1  0.8219652E-002  0.1811608E+03  0.7818608E-02  0.1167055E+00
         21   -1    0    0  503  502  0.00000000000E+00  0.00000000000E+00  0.93879221095E+02  0.93879221095E+02  0.00000000000E+00 0.  1.
         21   -1    0    0  501  503 -0.00000000000E+00 -0.00000000000E+00 -0.58566282387E+03  0.58566282387E+03  0.00000000000E+00 0. -1.
          6    2    1    2  501    0  0.42721081913E+02 -0.34022139901E+02 -0.46233602810E+03  0.49600347938E+03  0.17112057687E+03 0.  0.
         24    2    3    3    0    0  0.74447351091E+02  0.28015588907E+01 -0.19715432896E+03  0.22636304378E+03  0.82584147058E+02 0.  0.
         -6    2    1    2    0  502 -0.42721081913E+02  0.34022139901E+02 -0.29447574670E+02  0.18353856559E+03  0.17273288210E+03 0.  0.
        -24    2    5    5    0    0 -0.39953249921E+02 -0.15733895424E+02 -0.73290111294E+02  0.11699848772E+03  0.80457368026E+02 0.  0.
          5    1    3    3  501    0 -0.31726269178E+02 -0.36823698792E+02 -0.26518169914E+03  0.26964043559E+03  0.47000000000E+01 0. -1.
        -13    1    4    4    0    0  0.17060999129E+02  0.63036816731E+01  0.27142555658E+01  0.18389705739E+02  0.00000000000E+00 0.  1.
         14    1    4    4    0    0  0.57386351962E+02 -0.35021227824E+01 -0.19986858453E+03  0.20797333804E+03  0.00000000000E+00 0. -1.
         -5    1    5    5    0  502 -0.27678319919E+01  0.49756035326E+02  0.43842536624E+02  0.66540077870E+02  0.47000000000E+01 0.  1.
         13    1    6    6    0    0 -0.62804714018E+02 -0.10327649089E+02 -0.36552958247E+02  0.73397623907E+02  0.00000000000E+00 0. -1.
        -14    1    6    6    0    0  0.22851464097E+02 -0.54062463353E+01 -0.36737153048E+02  0.43600863809E+02  0.00000000000E+00 0.  1.
</event>
<event>
12    1  0.8219652E-002  0.1751995E+03  0.7818608E-02  0.1175336E+00
         21   -1    0    0  503  502  0.00000000000E+00  0.00000000000E+00  0.11522280320E+03  0.11522280320E+03  0.00000000000E+00 0.  1.
         21   -1    0    0  501  503 -0.00000000000E+00 -0.00000000000E+00 -0.26173280216E+03  0.26173280216E+03  0.00000000000E+00 0.  1.
          6    2    1    2  501    0  0.10978830082E+02  0.31443073115E+02 -0.11501907750E+03  0.20958117369E+03  0.17200487964E+03 0.  0.
         24    2    3    3    0    0  0.20711012546E+02  0.83705862638E+02 -0.56159712478E+02  0.13012911648E+03  0.79649583616E+02 0.  0.
         -6    2    1    2    0  502 -0.10978830082E+02 -0.31443073115E+02 -0.31490921454E+02  0.16737443166E+03  0.16097614943E+03 0.  0.
        -24    2    5    5    0    0 -0.23934118656E+01  0.30743912342E+02 -0.53578974113E+02  0.10065934614E+03  0.79439794384E+02 0.  0.
          5    1    3    3  501    0 -0.97321824638E+01 -0.52262789523E+02 -0.58859365025E+02  0.79452057213E+02  0.47000000000E+01 0. -1.
        -13    1    4    4    0    0 -0.57635825705E+01  0.64472092783E+02 -0.69334093736E+02  0.94852971414E+02  0.00000000000E+00 0.  1.
         14    1    4    4    0    0  0.26474595116E+02  0.19233769855E+02  0.13174381257E+02  0.35276145069E+02  0.00000000000E+00 0. -1.
         -5    1    5    5    0  502 -0.85854182161E+01 -0.62186985458E+02  0.22088052659E+02  0.66715085524E+02  0.47000000000E+01 0.  1.
         13    1    6    6    0    0 -0.38679451071E+02  0.16773092506E+01 -0.24977934356E+02  0.46073967771E+02  0.00000000000E+00 0. -1.
        -14    1    6    6    0    0  0.36286039205E+02  0.29066603092E+02 -0.28601039757E+02  0.54585378368E+02  0.00000000000E+00 0.  1.
</event>
<event>
12    1  0.8219652E-002  0.1883043E+03  0.7818608E-02  0.1160032E+00
         21   -1    0    0  503  502  0.00000000000E+00  0.00000000000E+00  0.30345100641E+03  0.30345100641E+03  0.00000000000E+00 0.  1.
         21   -1    0    0  501  503 -0.00000000000E+00 -0.00000000000E+00 -0.17505541512E+03  0.17505541512E+03  0.00000000000E+00 0.  1.
          6    2    1    2  501    0  0.73722408319E+02 -0.44429687067E+01  0.20224376097E+03  0.27623909889E+03  0.17306290025E+03 0.  0.
         24    2    3    3    0    0  0.11862632268E+03 -0.14342178764E+01  0.14856646356E+03  0.20603399677E+03  0.79396173181E+02 0.  0.
         -6    2    1    2    0  502 -0.73722408319E+02  0.44429687067E+01 -0.73848169689E+02  0.20226732264E+03  0.17321600441E+03 0.  0.
        -24    2    5    5    0    0  0.14265329348E+02  0.31942299981E+02 -0.78087098974E+02  0.10986540858E+03  0.68913009130E+02 0.  0.
          5    1    3    3  501    0 -0.44903914362E+02 -0.30087508303E+01  0.53677297414E+02  0.70205102124E+02  0.47000000000E+01 0. -1.
        -13    1    4    4    0    0  0.46608760250E+02  0.13602052468E+02  0.11566364268E+03  0.12544110411E+03  0.00000000000E+00 0.  1.
         14    1    4    4    0    0  0.72017562431E+02 -0.15036270345E+02  0.32902820879E+02  0.80592892653E+02  0.00000000000E+00 0. -1.
         -5    1    5    5    0  502 -0.87987737666E+02 -0.27499331275E+02  0.42389292853E+01  0.92401914059E+02  0.47000000000E+01 0.  1.
         13    1    6    6    0    0  0.42040279523E+02  0.17684042065E+02 -0.40422270155E+02  0.60943173290E+02  0.00000000000E+00 0. -1.
        -14    1    6    6    0    0 -0.27774950176E+02  0.14258257916E+02 -0.37664828819E+02  0.48922235293E+02  0.00000000000E+00 0.  1.
</event>
<event>
12    1  0.8219652E-002  0.1928431E+03  0.7818608E-02  0.1156065E+00
         21   -1    0    0  501  502  0.00000000000E+00  0.00000000000E+00  0.31661905284E+02  0.31661905284E+02  0.00000000000E+00 0.  1.
         21   -1    0    0  502  503 -0.00000000000E+00 -0.00000000000E+00 -0.18406544359E+04  0.18406544359E+04  0.00000000000E+00 0. -1.
         -6    2    1    2    0  503 -0.76777167378E+02 -0.58086109782E+02 -0.14683543199E+04  0.14808794269E+04  0.16634523938E+03 0.  0.
        -24    2    3    3    0    0 -0.74324976072E+02 -0.95332485380E+02 -0.12977177015E+04  0.13061446242E+04  0.85615779450E+02 0.  0.
          6    2    1    2  501    0  0.76777167378E+02  0.58086109782E+02 -0.34063821070E+03  0.39143691427E+03  0.16709200365E+03 0.  0.
         24    2    5    5    0    0  0.80183405805E+02  0.28887736485E+02 -0.11248545002E+03  0.16135014874E+03  0.78211342834E+02 0.  0.
          5    1    5    5  501    0 -0.34062384266E+01  0.29198373296E+02 -0.22815276068E+03  0.23008676552E+03  0.47000000000E+01 0. -1.
        -11    1    6    6    0    0  0.85557859253E+01  0.25472305248E+02  0.12456124657E+01  0.26899653489E+02  0.00000000000E+00 0.  1.
         12    1    6    6    0    0  0.71627619880E+02  0.34154312375E+01 -0.11373106249E+03  0.13445049526E+03  0.00000000000E+00 0. -1.
         -5    1    3    3    0  503 -0.24521913065E+01  0.37246375598E+02 -0.17063661845E+03  0.17473480276E+03  0.47000000000E+01 0.  1.
         13    1    4    4    0    0  0.32622859531E+01  0.10818503560E+01 -0.39156932758E+03  0.39158441135E+03  0.00000000000E+00 0. -1.
        -14    1    4    4    0    0 -0.77587262025E+02 -0.96414335736E+02 -0.90614837389E+03  0.91456021282E+03  0.00000000000E+00 0.  1.
</event>
<event>
12    1  0.8219652E-002  0.1948478E+03  0.7818608E-02  0.1154777E+00
         21   -1    0    0  501  502  0.00000000000E+00  0.00000000000E+00  0.64233555387E+02  0.64233555387E+02  0.00000000000E+00 0. -1.
         21   -1    0    0  502  503 -0.00000000000E+00 -0.00000000000E+00 -0.63823575610E+03  0.63823575610E+03  0.00000000000E+00 0. -1.
         -6    2    1    2    0  503  0.36489471016E+02 -0.76937049469E+02 -0.18517913355E+03  0.26880655710E+03  0.17525656211E+03 0.  0.
        -24    2    3    3    0    0  0.28598640292E+02 -0.12062196018E+03 -0.12203503556E+03  0.19147671976E+03  0.80020277427E+02 0.  0.
          6    2    1    2  501    0 -0.36489471016E+02  0.76937049469E+02 -0.38882306716E+03  0.43366275438E+03  0.17213139140E+03 0.  0.
         24    2    5    5    0    0 -0.60162251660E+01 -0.12574677621E+02 -0.27091118765E+03  0.28244678523E+03  0.78670181169E+02 0.  0.
          5    1    5    5  501    0 -0.30473245850E+02  0.89511727090E+02 -0.11791187951E+03  0.15121596916E+03  0.47000000000E+01 0. -1.
        -13    1    6    6    0    0 -0.35860172151E+02 -0.17762934842E+02 -0.83395478562E+02  0.92500160246E+02  0.00000000000E+00 0.  1.
         14    1    6    6    0    0  0.29843946985E+02  0.51882572207E+01 -0.18751570909E+03  0.18994662498E+03  0.00000000000E+00 0. -1.
         -5    1    3    3    0  503  0.78908307239E+01  0.43684910712E+02 -0.63144097982E+02  0.77329837342E+02  0.47000000000E+01 0.  1.
         13    1    4    4    0    0  0.21549088383E+02 -0.12412192907E+03 -0.12947238954E+03  0.18064804493E+03  0.00000000000E+00 0. -1.
        -14    1    4    4    0    0  0.70495519088E+01  0.34999688853E+01  0.74373539743E+01  0.10828674824E+02  0.00000000000E+00 0.  1.
</event>
<event>
12    1  0.8219652E-002  0.2032443E+03  0.7818608E-02  0.1147926E+00
         21   -1    0    0  501  502  0.00000000000E+00  0.00000000000E+00  0.37573430267E+04  0.37573430267E+04  0.00000000000E+00 0.  1.
         21   -1    0    0  502  503 -0.00000000000E+00 -0.00000000000E+00 -0.12753810496E+02  0.12753810496E+02  0.00000000000E+00 0. -1.
         -6    2    1    2    0  503 -0.30323781971E+02 -0.10326827020E+03  0.11107584124E+04  0.11284358166E+04  0.16732983583E+03 0.  0.
        -24    2    3    3    0    0  0.31504555464E+02 -0.83209242055E+02  0.51905004510E+03  0.53314933942E+03  0.83180248987E+02 0.  0.
          6    2    1    2  501    0  0.30323781971E+02  0.10326827020E+03  0.26338308037E+04  0.26416610206E+04  0.17240759143E+03 0.  0.
         24    2    5    5    0    0 -0.27138541711E+02  0.36515113818E+02  0.19461910974E+04  0.19483873673E+04  0.80521374125E+02 0.  0.
          5    1    5    5  501    0  0.57462323681E+02  0.66753156385E+02  0.68763970635E+03  0.69327365324E+03  0.47000000000E+01 0. -1.
        -11    1    6    6    0    0  0.13979062085E+02 -0.66612447240E+01  0.10955004125E+04  0.10956098485E+04  0.00000000000E+00 0.  1.
         12    1    6    6    0    0 -0.41117603796E+02  0.43176358542E+02  0.85069068489E+03  0.85277751884E+03  0.00000000000E+00 0. -1.
         -5    1    3    3    0  503 -0.61828337435E+02 -0.20059028149E+02  0.59170836733E+03  0.59528647716E+03  0.47000000000E+01 0.  1.
         11    1    4    4    0    0  0.50066729710E+02 -0.21119731504E+02  0.29287648352E+03  0.29787473052E+03  0.00000000000E+00 0. -1.
        -12    1    4    4    0    0 -0.18562174246E+02 -0.62089510551E+02  0.22617356158E+03  0.23527460889E+03  0.00000000000E+00 0.  1.
</event>
<event>
12    1  0.8219652E-002  0.1835585E+03  0.7818608E-02  0.1164554E+00
         21   -1    0    0  503  502  0.00000000000E+00  0.00000000000E+00  0.22747212197E+03  0.22747212197E+03  0.00000000000E+00 0.  1.
         21   -1    0    0  501  503 -0.00000000000E+00 -0.00000000000E+00 -0.14917366062E+03  0.14917366062E+03  0.00000000000E+00 0.  1.
          6    2    1    2  501    0 -0.59919631155E+02 -0.32043439669E+01  0.58383063178E+02  0.19201010262E+03  0.17279660709E+03 0.  0.
         24    2    3    3    0    0 -0.79519117805E+02 -0.50281580084E+02  0.35357916589E+02  0.13586160831E+03  0.91414807086E+02 0.  0.
         -6    2    1    2    0  502  0.59919631155E+02  0.32043439669E+01  0.19915398177E+02  0.18463567998E+03  0.17347357499E+03 0.  0.
        -24    2    5    5    0    0  0.32470334624E+02 -0.30593317392E+02 -0.49142047585E+02  0.10286302802E+03  0.78584909447E+02 0.  0.
          5    1    3    3  501    0  0.19599486650E+02  0.47077236117E+02  0.23025146589E+02  0.56148494306E+02  0.47000000000E+01 0. -1.
        -11    1    4    4    0    0 -0.13886210358E+02  0.26011699782E+02  0.15387174255E+02  0.33259592529E+02  0.00000000000E+00 0.  1.
         12    1    4    4    0    0 -0.65632907447E+02 -0.76293279867E+02  0.19970742334E+02  0.10260201578E+03  0.00000000000E+00 0. -1.
         -5    1    5    5    0  502  0.27449296531E+02  0.33797661359E+02  0.69057445762E+02  0.81772651960E+02  0.47000000000E+01 0.  1.
         11    1    6    6    0    0 -0.24326140921E+02 -0.21766693260E+02 -0.14203676056E+02  0.35599079778E+02  0.00000000000E+00 0. -1.
        -12    1    6    6    0    0  0.56796475544E+02 -0.88266241320E+01 -0.34938371529E+02  0.67263948241E+02  0.00000000000E+00 0.  1.
</event>
<event>
12    1  0.8219652E-002  0.1807682E+03  0.7818608E-02  0.1167286E+00
         21   -1    0    0  501  502  0.00000000000E+00  0.00000000000E+00  0.12049760414E+03  0.12049760414E+03  0.00000000000E+00 0.  1.
         21   -1    0    0  502  503 -0.00000000000E+00 -0.00000000000E+00 -0.39022988870E+03  0.39022988870E+03  0.00000000000E+00 0.  1.
         -6    2    1    2    0  503 -0.51252954054E+02 -0.14351926848E+02 -0.27649226320E+03  0.32983297980E+03  0.17178177975E+03 0.  0.
        -24    2    3    3    0    0 -0.20196127266E+01  0.52120850097E+02 -0.13994267484E+03  0.17011312489E+03  0.81448518513E+02 0.  0.
          6    2    1    2  501    0  0.51252954054E+02  0.14351926848E+02  0.67599786467E+01  0.18089451303E+03  0.17275498381E+03 0.  0.
         24    2    5    5    0    0 -0.10623636501E+02 -0.38169584052E+02  0.26909936423E+02  0.97136932098E+02  0.84508343375E+02 0.  0.
          5    1    5    5  501    0  0.61876590555E+02  0.52521510900E+02 -0.20149957776E+02  0.83757580936E+02  0.47000000000E+01 0. -1.
        -11    1    6    6    0    0 -0.18059938545E+02 -0.23288814918E+02  0.56196607450E+02  0.63455409301E+02  0.00000000000E+00 0.  1.
         12    1    6    6    0    0  0.74363020443E+01 -0.14880769134E+02 -0.29286671028E+02  0.33681522798E+02  0.00000000000E+00 0. -1.
         -5    1    3    3    0  503 -0.49233341327E+02 -0.66472776945E+02 -0.13654958835E+03  0.15971985491E+03  0.47000000000E+01 0.  1.
         11    1    4    4    0    0  0.20179992406E+01  0.48969779278E+01  0.10835689221E+02  0.12060882001E+02  0.00000000000E+00 0. -1.
        -12    1    4    4    0    0 -0.40376119672E+01  0.47223872169E+02 -0.15077836406E+03  0.15805224289E+03  0.00000000000E+00 0.  1.
</event>
<event>
12    1  0.8219652E-002  0.2387774E+03  0.7818608E-02  0.1120617E+00
         21   -1    0    0  501  502  0.00000000000E+00  0.00000000000E+00  0.22760918170E+04  0.22760918170E+04  0.00000000000E+00 0.  1.
         21   -1    0    0  502  503 -0.00000000000E+00 -0.00000000000E+00 -0.26833554438E+02  0.26833554438E+02  0.00000000000E+00 0. -1.
         -6    2    1    2    0  503 -0.16340669814E+03 -0.26046130966E+02  0.14219705461E+04  0.14418789341E+04  0.17214667208E+03 0.  0.
        -24    2    3    3    0    0 -0.12980928807E+03  0.44784987350E+02  0.10484156651E+04  0.10601576059E+04  0.76828355226E+02 0.  0.
          6    2    1    2  501    0  0.16340669814E+03  0.26046130966E+02  0.82728771651E+03  0.86104643738E+03  0.17209256666E+03 0.  0.
         24    2    5    5    0    0  0.18050444878E+03  0.11833478084E+02  0.57911735512E+03  0.61183778815E+03  0.79035946063E+02 0.  0.
          5    1    5    5  501    0 -0.17097750645E+02  0.14212652882E+02  0.24817036139E+03  0.24920864924E+03  0.47000000000E+01 0. -1.
        -13    1    6    6    0    0  0.79873149365E+02 -0.32972493339E+02  0.28282853030E+03  0.29573448033E+03  0.00000000000E+00 0.  1.
         14    1    6    6    0    0  0.10063129942E+03  0.44805971423E+02  0.29628882482E+03  0.31610330782E+03  0.00000000000E+00 0. -1.
         -5    1    3    3    0  503 -0.33597410073E+02 -0.70831118317E+02  0.37355488092E+03  0.38172132812E+03  0.47000000000E+01 0.  1.
         13    1    4    4    0    0 -0.20432027878E+02 -0.20712386024E+01  0.42212652434E+02  0.46943219085E+02  0.00000000000E+00 0. -1.
        -14    1    4    4    0    0 -0.10937726019E+03  0.46856225952E+02  0.10062030127E+04  0.10132143869E+04  0.00000000000E+00 0.  1.
</event>
<event>
12    1  0.8219652E-002  0.1842707E+03  0.7818608E-02  0.1163995E+00
         21   -1    0    0  503  502  0.00000000000E+00  0.00000000000E+00  0.15508696782E+03  0.15508696782E+03  0.00000000000E+00 0.  1.
         21   -1    0    0  501  503 -0.00000000000E+00 -0.00000000000E+00 -0.40783968376E+03  0.40783968376E+03  0.00000000000E+00 0.  1.
          6    2    1    2  501    0  0.63725651984E+02 -0.34287178997E+01 -0.31839256033E+03  0.36731410246E+03  0.17167735019E+03 0.  0.
         24    2    3    3    0    0  0.42501298693E+02 -0.44968655423E+02 -0.10609772257E+03  0.14990382735E+03  0.85941202928E+02 0.  0.
         -6    2    1    2    0  502 -0.63725651984E+02  0.34287178997E+01  0.65639844381E+02  0.19561254912E+03  0.17286690076E+03 0.  0.
        -24    2    5    5    0    0 -0.10770027078E+03 -0.14192271123E+02  0.59452126573E+02  0.14760583913E+03  0.80325335398E+02 0.  0.
          5    1    3    3  501    0  0.21224353291E+02  0.41539937524E+02 -0.21229483776E+03  0.21741027511E+03  0.47000000000E+01 0. -1.
        -11    1    4    4    0    0  0.61484592679E+02 -0.19340883396E+02 -0.97488852156E+02  0.11686959058E+03  0.00000000000E+00 0.  1.
         12    1    4    4    0    0 -0.18983293986E+02 -0.25627772027E+02 -0.86088704095E+01  0.33034236775E+02  0.00000000000E+00 0. -1.
         -5    1    5    5    0  502  0.43974618796E+02  0.17620989023E+02  0.61877178077E+01  0.48006709990E+02  0.47000000000E+01 0.  1.
         13    1    6    6    0    0 -0.87831092655E+02  0.21823839708E+02  0.24843183603E+02  0.93849691466E+02  0.00000000000E+00 0. -1.
        -14    1    6    6    0    0 -0.19869178125E+02 -0.36016110831E+02  0.34608942970E+02  0.53756147669E+02  0.00000000000E+00 0.  1.
</event>
<event>
12    1  0.8219652E-002  0.1848159E+03  0.7818608E-02  0.1163546E+00
         21   -1    0    0  501  502  0.00000000000E+00  0.00000000000E+00  0.37533920286E+03  0.37533920286E+03  0.00000000000E+00 0.  1.
         21   -1    0    0  502  503 -0.00000000000E+00 -0.00000000000E+00 -0.14602894356E+03  0.14602894356E+03  0.00000000000E+00 0. -1.
         -6    2    1    2    0  503  0.34987549358E+02  0.55049046300E+02 -0.46615594262E+02  0.18926577799E+03  0.17144677011E+03 0.  0.
        -24    2    3    3    0    0  0.70985993068E+01 -0.19332928435E+02  0.23529958305E+02  0.83185806997E+02  0.77084805986E+02 0.  0.
          6    2    1    2  501    0 -0.34987549358E+02 -0.55049046300E+02  0.27592585356E+03  0.33210236844E+03  0.17292304748E+03 0.  0.
         24    2    5    5    0    0  0.18329615723E+02 -0.81873236931E+02  0.22807831703E+03  0.25546207847E+03  0.78752479934E+02 0.  0.
          5    1    5    5  501    0 -0.53317165080E+02  0.26824190631E+02  0.47847536523E+02  0.76640289969E+02  0.47000000000E+01 0. -1.
        -13    1    6    6    0    0 -0.18585004638E+02 -0.70024158667E+02  0.11496154547E+03  0.13588576869E+03  0.00000000000E+00 0.  1.
         14    1    6    6    0    0  0.36914620360E+02 -0.11849078264E+02  0.11311677156E+03  0.11957630978E+03  0.00000000000E+00 0. -1.
         -5    1    3    3    0  503  0.27888950051E+02  0.74381974736E+02 -0.70145552567E+02  0.10607997099E+03  0.47000000000E+01 0.  1.
         13    1    4    4    0    0 -0.15551714869E+01  0.23861268067E+02 -0.11847819936E+02  0.26686129531E+02  0.00000000000E+00 0. -1.
        -14    1    4    4    0    0  0.86537707937E+01 -0.43194196502E+02  0.35377778242E+02  0.56499677466E+02  0.00000000000E+00 0.  1.
</event>
<event>
12    1  0.8219652E-002  0.1906624E+03  0.7818608E-02  0.1158148E+00
         21   -1    0    0  501  502  0.00000000000E+00  0.00000000000E+00  0.38255163436E+03  0.38255163436E+03  0.00000000000E+00 0. -1.
         21   -1    0    0  502  503 -0.00000000000E+00 -0.00000000000E+00 -0.11837025939E+03  0.11837025939E+03  0.00000000000E+00 0.  1.
         -6    2    1    2    0  503  0.74672537010E+02 -0.30556436699E+02  0.19038402691E+02  0.19036232959E+03  0.17136415069E+03 0.  0.
        -24    2    3    3    0    0 -0.24431204757E+02 -0.10674419755E+02  0.10153760846E+02  0.88785397708E+02  0.84076875440E+02 0.  0.
          6    2    1    2  501    0 -0.74672537010E+02  0.30556436699E+02  0.24514297228E+03  0.31055956416E+03  0.17274976823E+03 0.  0.
         24    2    5    5    0    0 -0.42865703591E+02  0.24792760507E+02  0.39373756912E+02  0.10221380680E+03  0.80282127829E+02 0.  0.
          5    1    5    5  501    0 -0.31806833419E+02  0.57636761925E+01  0.20576921537E+03  0.20834575736E+03  0.47000000000E+01 0. -1.
        -11    1    6    6    0    0 -0.60479259374E+02  0.10289004227E+02  0.47923758427E+02  0.77847871160E+02  0.00000000000E+00 0.  1.
         12    1    6    6    0    0  0.17613555784E+02  0.14503756280E+02 -0.85500015149E+01  0.24365935637E+02  0.00000000000E+00 0. -1.
         -5    1    3    3    0  503  0.99103741767E+02 -0.19882016944E+02  0.88846418449E+01  0.10157693188E+03  0.47000000000E+01 0.  1.
         13    1    4    4    0    0 -0.46186637706E+02 -0.33204348077E+02  0.66114533865E+01  0.57266443487E+02  0.00000000000E+00 0. -1.
        -14    1    4    4    0    0  0.21755432950E+02  0.22529928322E+02  0.35423074593E+01  0.31518954220E+02  0.00000000000E+00 0.  1.
</event>
<event>
12    1  0.8219652E-002  0.1809822E+03  0.7818608E-02  0.1169162E+00
         21   -1    0    0  501  502  0.00000000000E+00  0.00000000000E+00  0.26604888697E+04  0.26604888697E+04  0.00000000000E+00 0.  1.
         21   -1    0    0  502  503 -0.00000000000E+00 -0.00000000000E+00 -0.12857662656E+02  0.12857662656E+02  0.00000000000E+00 0.  1.
         -6    2    1    2    0  503 -0.42613907165E+02 -0.35130639390E+02  0.16955309304E+04  0.17041976778E+04  0.16252532770E+03 0.  0.
        -24    2    3    3    0    0  0.18967497982E+02  0.29355244230E+01  0.12526070442E+04  0.12553714739E+04  0.81023127262E+02 0.  0.
          6    2    1    2  501    0  0.42613907165E+02  0.35130639390E+02  0.95210027668E+03  0.96914885460E+03  0.17234981465E+03 0.  0.
         24    2    5    5    0    0  0.78782347393E+02 -0.41859397745E+01  0.72677982325E+03  0.73753420437E+03  0.97588989053E+02 0.  0.
          5    1    5    5  501    0 -0.36168440227E+02  0.39316579164E+02  0.22532045343E+03  0.23161465023E+03  0.47000000000E+01 0. -1.
        -13    1    6    6    0    0  0.82358908908E+02  0.28199127069E+02  0.41346786380E+03  0.42253266743E+03  0.00000000000E+00 0.  1.
         14    1    6    6    0    0 -0.35765615151E+01 -0.32385066844E+02  0.31331195945E+03  0.31500153695E+03  0.00000000000E+00 0. -1.
         -5    1    3    3    0  503 -0.61581405148E+02 -0.38066163813E+02  0.44292388621E+03  0.44882620385E+03  0.47000000000E+01 0.  1.
         11    1    4    4    0    0 -0.11612773035E+01  0.23055365330E+02  0.10932041585E+04  0.10934478637E+04  0.00000000000E+00 0. -1.
        -12    1    4    4    0    0  0.20128775286E+02 -0.20119840907E+02  0.15940288568E+03  0.16192361025E+03  0.00000000000E+00 0.  1.
</event>
<event>
12    1  0.8219652E-002  0.3300184E+03  0.7818608E-02  0.1071160E+00
         21   -1    0    0  501  502  0.00000000000E+00  0.00000000000E+00  0.87757152025E+03  0.87757152025E+03  0.00000000000E+00 0.  1.
         21   -1    0    0  502  503 -0.00000000000E+00 -0.00000000000E+00 -0.21613954410E+03  0.21613954410E+03  0.00000000000E+00 0. -1.
         -6    2    1    2    0  503  0.23105080950E+03 -0.16147955291E+03 -0.26250831777E+02  0.33106081481E+03  0.17161595017E+03 0.  0.
        -24    2    3    3    0    0  0.40271874953E+02 -0.37413233312E+02 -0.64714456755E+01  0.10258244025E+03  0.86369575081E+02 0.  0.
          6    2    1    2  501    0 -0.23105080950E+03  0.16147955291E+03  0.68768280792E+03  0.76265024955E+03  0.17107786602E+03 0.  0.
         24    2    5    5    0    0 -0.58426716199E+02  0.63710181939E+02  0.37017841397E+03  0.38823195717E+03  0.78862703160E+02 0.  0.
          5    1    5    5  501    0 -0.17262409330E+03  0.97769370973E+02  0.31750439396E+03  0.37441829238E+03  0.47000000000E+01 0. -1.
        -11    1    6    6    0    0 -0.46178948296E+02  0.79594401200E+02  0.25013672339E+03  0.26652606694E+03  0.00000000000E+00 0.  1.
         12    1    6    6    0    0 -0.12247767903E+02 -0.15884219261E+02  0.12004169058E+03  0.12170589023E+03  0.00000000000E+00 0. -1.
         -5    1    3    3    0  503  0.19077893454E+03 -0.12406631960E+03 -0.19779386101E+02  0.22847837456E+03  0.47000000000E+01 0.  1.
         13    1    4    4    0    0 -0.20304291628E+02 -0.36238128314E+02  0.89730995104E+00  0.41548421960E+02  0.00000000000E+00 0. -1.
        -14    1    4    4    0    0  0.60576166581E+02 -0.11751049981E+01 -0.73687556266E+01  0.61034018292E+02  0.00000000000E+00 0.  1.
</event>
<event>
12    1  0.8219652E-002  0.1928099E+03  0.7818608E-02  0.1156397E+00
         21   -1    0    0  501  502  0.00000000000E+00  0.00000000000E+00  0.33708184246E+03  0.33708184246E+03  0.00000000000E+00 0.  1.
         21   -1    0    0  502  503 -0.00000000000E+00 -0.00000000000E+00 -0.11197073325E+03  0.11197073325E+03  0.00000000000E+00 0.  1.
         -6    2    1    2    0  503  0.59815296945E+02  0.57179496395E+02  0.76295939695E+02  0.20549226928E+03  0.17192625676E+03 0.  0.
        -24    2    3    3    0    0 -0.15798735006E+02 -0.14982192085E+02  0.49944646018E+02  0.97597543782E+02  0.80973741293E+02 0.  0.
          6    2    1    2  501    0 -0.59815296945E+02 -0.57179496395E+02  0.14881516951E+03  0.24356030643E+03  0.17415023295E+03 0.  0.
         24    2    5    5    0    0 -0.78971101938E+00 -0.83833717417E+02  0.13373376480E+03  0.17689692773E+03  0.79869189130E+02 0.  0.
          5    1    5    5  501    0 -0.59025585925E+02  0.26654221022E+02  0.15081404709E+02  0.66663378703E+02  0.47000000000E+01 0. -1.
        -11    1    6    6    0    0 -0.34852343329E+02 -0.19773842990E+02  0.28899628020E+02  0.49405254800E+02  0.00000000000E+00 0.  1.
         12    1    6    6    0    0  0.34062632310E+02 -0.64059874427E+02  0.10483413678E+03  0.12749167293E+03  0.00000000000E+00 0. -1.
         -5    1    3    3    0  503  0.75614031950E+02  0.72161688480E+02  0.26351293677E+02  0.10789472550E+03  0.47000000000E+01 0.  1.
         13    1    4    4    0    0 -0.31620106716E+02 -0.19710584331E+02 -0.73433841815E+01  0.37977145425E+02  0.00000000000E+00 0. -1.
        -14    1    4    4    0    0  0.15821371710E+02  0.47283922465E+01  0.57288030200E+02  0.59620398357E+02  0.00000000000E+00 0.  1.
</event>
<event>
12    1  0.8219652E-002  0.1848515E+03  0.7818608E-02  0.1163484E+00
         21   -1    0    0  501  502  0.00000000000E+00  0.00000000000E+00  0.10231040665E+04  0.10231040665E+04  0.00000000000E+00 0.  1.
         21   -1    0    0  502  503 -0.00000000000E+00 -0.00000000000E+00 -0.10875929627E+03  0.10875929627E+03  0.00000000000E+00 0.  1.
         -6    2    1    2    0  503 -0.11523228075E+02 -0.65449496504E+02 -0.15102648034E+02  0.18421227088E+03  0.17114219056E+03 0.  0.
        -24    2    3    3    0    0 -0.66718715531E+02 -0.15160693212E+02  0.14913055580E+02  0.10359876063E+03  0.76348348745E+02 0.  0.
          6    2    1    2  501    0  0.11523228075E+02  0.65449496504E+02  0.92944741831E+03  0.94765109193E+03  0.17249251360E+03 0.  0.
         24    2    5    5    0    0  0.37120671237E+02  0.81225709545E+02  0.40332807730E+03  0.42065225988E+03  0.79367661416E+02 0.  0.
          5    1    5    5  501    0 -0.25597443162E+02 -0.15776213041E+02  0.52611934102E+03  0.52699883205E+03  0.47000000000E+01 0. -1.
        -11    1    6    6    0    0  0.22219150062E+01  0.11657261384E+02  0.23391675114E+03  0.23421758071E+03  0.00000000000E+00 0.  1.
         12    1    6    6    0    0  0.34898756231E+02  0.69568448161E+02  0.16941132616E+03  0.18643467917E+03  0.00000000000E+00 0. -1.
         -5    1    3    3    0  503  0.55195487456E+02 -0.50288803291E+02 -0.30015703614E+02  0.80613510254E+02  0.47000000000E+01 0.  1.
         13    1    4    4    0    0  0.27889704605E+01  0.12952396627E+02 -0.17470689120E+02  0.21926420432E+02  0.00000000000E+00 0. -1.
        -14    1    4    4    0    0 -0.69507685992E+02 -0.28113089840E+02  0.32383744701E+02  0.81672340196E+02  0.00000000000E+00 0.  1.
</event>
<event>
12    1  0.8219652E-002  0.1819865E+03  0.7818608E-02  0.1166448E+00
         21   -1    0    0  503  502  0.00000000000E+00  0.00000000000E+00  0.67434714947E+03  0.67434714947E+03  0.00000000000E+00 0.  1.
         21   -1    0    0  501  503 -0.00000000000E+00 -0.00000000000E+00 -0.11154732483E+03  0.11154732483E+03  0.00000000000E+00 0.  1.
          6    2    1    2  501    0  0.13800792662E+01 -0.56517290262E+02 -0.13253817391E+02  0.18246851451E+03  0.17298261877E+03 0.  0.
         24    2    3    3    0    0 -0.47028781544E+02  0.15101719421E+02 -0.12010725145E+02  0.95887132962E+02  0.81303853084E+02 0.  0.
         -6    2    1    2    0  502 -0.13800792662E+01  0.56517290262E+02  0.57605364203E+03  0.60342595979E+03  0.17055492291E+03 0.  0.
        -24    2    5    5    0    0 -0.55906179717E+02  0.30519096020E+02  0.46671624530E+03  0.47842292759E+03  0.83710978158E+02 0.  0.
          5    1    3    3  501    0  0.48408860810E+02 -0.71619009683E+02 -0.12430922459E+01  0.86581381551E+02  0.47000000000E+01 0. -1.
        -11    1    4    4    0    0 -0.29223324459E+02 -0.20362627004E+02 -0.35074352823E+02  0.49988493646E+02  0.00000000000E+00 0.  1.
         12    1    4    4    0    0 -0.17805457084E+02  0.35464346426E+02  0.23063627679E+02  0.45898639316E+02  0.00000000000E+00 0. -1.
         -5    1    5    5    0  502  0.54526100451E+02  0.25998194241E+02  0.10933739673E+03  0.12500303219E+03  0.47000000000E+01 0.  1.
         11    1    6    6    0    0 -0.10568672384E+02 -0.25206909296E+02  0.68021020093E+02  0.73307191235E+02  0.00000000000E+00 0. -1.
        -12    1    6    6    0    0 -0.45337507333E+02  0.55726005317E+02  0.39869522521E+03  0.40511573636E+03  0.00000000000E+00 0.  1.
</event>
<event>
12    1  0.8219652E-002  0.1939902E+03  0.7818608E-02  0.1154990E+00
         21   -1    0    0  501  502  0.00000000000E+00  0.00000000000E+00  0.17837509028E+03  0.17837509028E+03  0.00000000000E+00 0. -1.
         21   -1    0    0  502  503 -0.00000000000E+00 -0.00000000000E+00 -0.53975389377E+03  0.53975389377E+03  0.00000000000E+00 0. -1.
         -6    2    1    2    0  503 -0.49102775713E+02 -0.77143268775E+02 -0.46116167156E+03  0.50030217479E+03  0.17108481019E+03 0.  0.
        -24    2    3    3    0    0 -0.74775729667E+02  0.66397846857E+00 -0.29407879844E+03  0.31415211494E+03  0.81347163554E+02 0.  0.
          6    2    1    2  501    0  0.49102775713E+02  0.77143268775E+02  0.99782868076E+02  0.21782680926E+03  0.17067434362E+03 0.  0.
         24    2    5    5    0    0  0.98522128647E+02  0.57804489494E+02  0.64742252633E+02  0.15406008158E+03  0.80591442610E+02 0.  0.
          5    1    5    5  501    0 -0.49419352934E+02  0.19338779282E+02  0.35040615443E+02  0.63766727681E+02  0.47000000000E+01 0. -1.
        -13    1    6    6    0    0 -0.13896353250E+02  0.11903616541E+02  0.68539590587E+01  0.19539229135E+02  0.00000000000E+00 0.  1.
         14    1    6    6    0    0  0.11241848190E+03  0.45900872952E+02  0.57888293574E+02  0.13452085245E+03  0.00000000000E+00 0. -1.
         -5    1    3    3    0  503  0.25672953954E+02 -0.77807247244E+02 -0.16708287313E+03  0.18615005985E+03  0.47000000000E+01 0.  1.
         11    1    4    4    0    0 -0.42067032009E+02 -0.26643398705E+02 -0.69090346779E+02  0.85164440318E+02  0.00000000000E+00 0. -1.
        -12    1    4    4    0    0 -0.32708697658E+02  0.27307377174E+02 -0.22498845166E+03  0.22898767462E+03  0.00000000000E+00 0.  1.
</event>
<event>
12    1  0.8219652E-002  0.2114880E+03  0.7818608E-02  0.1141046E+00
         21   -1    0    0  503  502  0.00000000000E+00  0.00000000000E+00  0.20964661613E+03  0.20964661613E+03  0.00000000000E+00 0.  1.
         21   -1    0    0  501  503 -0.00000000000E+00 -0.00000000000E+00 -0.32624201456E+03  0.32624201456E+03  0.00000000000E+00 0.  1.
          6    2    1    2  501    0  0.11122896855E+03 -0.45020309937E+02 -0.21791920167E+03  0.30138128915E+03  0.17012698564E+03 0.  0.
         24    2    3    3    0    0  0.12457595833E+03 -0.68736163354E+02 -0.21949453939E+03  0.27371984435E+03  0.80627977926E+02 0.  0.
         -6    2    1    2    0  502 -0.11122896855E+03  0.45020309937E+02  0.10132380324E+03  0.23450734154E+03  0.17415070594E+03 0.  0.
        -24    2    5    5    0    0 -0.37561511428E+02  0.11978723208E+02  0.12094731570E+03  0.15128587235E+03  0.81882873947E+02 0.  0.
          5    1    3    3  501    0 -0.13346989774E+02  0.23715853416E+02  0.15753377260E+01  0.27661444797E+02  0.47000000000E+01 0. -1.
        -11    1    4    4    0    0  0.44659826611E+02 -0.46565063088E+01 -0.13055928923E+03  0.13806488028E+03  0.00000000000E+00 0.  1.
         12    1    4    4    0    0  0.79916131715E+02 -0.64079657045E+02 -0.88935250167E+02  0.13565496407E+03  0.00000000000E+00 0. -1.
         -5    1    5    5    0  502 -0.73667457124E+02  0.33041586729E+02 -0.19623512463E+02  0.83221469190E+02  0.47000000000E+01 0.  1.
         13    1    6    6    0    0 -0.19507510369E+02 -0.10783114351E+02 -0.43109709832E+01  0.22702488558E+02  0.00000000000E+00 0. -1.
        -14    1    6    6    0    0 -0.18054001059E+02  0.22761837559E+02  0.12525828669E+03  0.12858338379E+03  0.00000000000E+00 0.  1.
</event>
<event>
12    1  0.8219652E-002  0.1721983E+03  0.7818608E-02  0.1175852E+00
         21   -1    0    0  503  502  0.00000000000E+00  0.00000000000E+00  0.15483292941E+03  0.15483292941E+03  0.00000000000E+00 0.  1.
         21   -1    0    0  501  503 -0.00000000000E+00 -0.00000000000E+00 -0.19979671420E+03  0.19979671420E+03  0.00000000000E+00 0.  1.
          6    2    1    2  501    0 -0.83177435934E+01  0.14300079214E+01  0.16084469994E+02  0.17294784890E+03  0.17199133258E+03 0.  0.
         24    2    3    3    0    0  0.27278394804E+02  0.49015964218E+02 -0.26423755950E+02  0.99732088446E+02  0.78112732740E+02 0.  0.
         -6    2    1    2    0  502  0.83177435934E+01 -0.14300079214E+01 -0.61048254783E+02  0.18168179471E+03  0.17090978713E+03 0.  0.
        -24    2    5    5    0    0 -0.18908040811E+02 -0.63189634726E+02 -0.40155839401E+02  0.11087164106E+03  0.79558691606E+02 0.  0.
          5    1    3    3  501    0 -0.35596138398E+02 -0.47585956296E+02  0.42508225944E+02  0.73215760451E+02  0.47000000000E+01 0. -1.
        -11    1    4    4    0    0 -0.23112654818E+02  0.30900120830E+02 -0.25356038943E+02  0.46172946526E+02  0.00000000000E+00 0.  1.
         12    1    4    4    0    0  0.50391049622E+02  0.18115843388E+02 -0.10677170072E+01  0.53559141920E+02  0.00000000000E+00 0. -1.
         -5    1    5    5    0  502  0.27225784405E+02  0.61759626805E+02 -0.20892415382E+02  0.70810153651E+02  0.47000000000E+01 0.  1.
         11    1    6    6    0    0  0.11943233415E+02 -0.33074585835E+02 -0.54995005342E+02  0.65276486311E+02  0.00000000000E+00 0. -1.
        -12    1    6    6    0    0 -0.30851274226E+02 -0.30115048891E+02  0.14839165941E+02  0.45595154753E+02  0.00000000000E+00 0.  1.
</event>
<event>
12    1  0.8219652E-002  0.1783539E+03  0.7818608E-02  0.1170441E+00
         21   -1    0    0  503  502  0.00000000000E+00  0.00000000000E+00  0.28844472299E+03  0.28844472299E+03  0.00000000000E+00 0. -1.
         21   -1    0    0  501  503 -0.00000000000E+00 -0.00000000000E+00 -0.24934426555E+03  0.24934426555E+03  0.00000000000E+00 0. -1.
          6    2    1    2  501    0 -0.23855822448E+02 -0.36204064807E+02 -0.18319895561E+03  0.25278523440E+03  0.16869701485E+03 0.  0.
         24    2    3    3    0    0  0.55946653773E+01 -0.79183084665E+02 -0.15738021460E+03  0.19444806984E+03  0.82099078805E+02 0.  0.
         -6    2    1    2    0  502  0.23855822448E+02  0.36204064807E+02  0.22229941305E+03  0.28500375414E+03  0.17300368858E+03 0.  0.
        -24    2    5    5    0    0 -0.23432701297E+02  0.42293177269E+01  0.21188775707E+03  0.22678793577E+03  0.77261682586E+02 0.  0.
          5    1    3    3  501    0 -0.29450487826E+02  0.42979019858E+02 -0.25818741011E+02  0.58337164557E+02  0.47000000000E+01 0. -1.
        -13    1    4    4    0    0 -0.17075569984E+02 -0.71349264004E+01  0.14605604567E+01  0.18563822393E+02  0.00000000000E+00 0.  1.
         14    1    4    4    0    0  0.22670235361E+02 -0.72048158265E+02 -0.15884077505E+03  0.17588424745E+03  0.00000000000E+00 0. -1.
         -5    1    5    5    0  502  0.47288523746E+02  0.31974747080E+02  0.10411655978E+02  0.58215818375E+02  0.47000000000E+01 0.  1.
         11    1    6    6    0    0  0.16682925159E+02  0.19239847498E+02  0.14598368528E+03  0.14818815099E+03  0.00000000000E+00 0. -1.
        -12    1    6    6    0    0 -0.40115626456E+02 -0.15010529771E+02  0.65904071783E+02  0.78599784781E+02  0.00000000000E+00 0.  1.
</event>
<event>
12    1  0.8219652E-002  0.2692213E+03  0.7818608E-02  0.1101753E+00
         21   -1    0    0  503  502  0.00000000000E+00  0.00000000000E+00  0.65669998893E+03  0.65669998893E+03  0.00000000000E+00 0. -1.
         21   -1    0    0  501  503 -0.00000000000E+00 -0.00000000000E+00 -0.31086721532E+03  0.31086721532E+03  0.00000000000E+00 0. -1.
          6    2    1    2  501    0 -0.19121287606E+03 -0.84850199435E+02 -0.21570229933E+03  0.34482992148E+03  0.16916936040E+03 0.  0.
         24    2    3    3    0    0 -0.20164033487E+03 -0.95510656963E+02 -0.22466285931E+03  0.32680885361E+03  0.80929081326E+02 0.  0.
         -6    2    1    2    0  502  0.19121287606E+03  0.84850199435E+02  0.56153507293E+03  0.62273728277E+03  0.16946434700E+03 0.  0.
        -24    2    5    5    0    0  0.21096056070E+03  0.87314295273E+02  0.46530324355E+03  0.52435690971E+03  0.79466445580E+02 0.  0.
          5    1    3    3  501    0  0.10427458811E+02  0.10660457528E+02  0.89605599826E+01  0.18021067870E+02  0.47000000000E+01 0. -1.
        -13    1    4    4    0    0 -0.26384313823E+02 -0.35220246832E+02 -0.81486000854E+02  0.92609751851E+02  0.00000000000E+00 0.  1.
         14    1    4    4    0    0 -0.17525602105E+03 -0.60290410131E+02 -0.14317685846E+03  0.23419910176E+03  0.00000000000E+00 0. -1.
         -5    1    5    5    0  502 -0.19747684641E+02 -0.24640958380E+01  0.96231829380E+02  0.98380373056E+02  0.47000000000E+01 0.  1.
         13    1    6    6    0    0  0.15385267950E+03  0.54850349783E+02  0.39845722759E+03  0.43063600648E+03  0.00000000000E+00 0. -1.
        -14    1    6    6    0    0  0.57107881205E+02  0.32463945490E+02  0.66846015961E+02  0.93720903231E+02  0.00000000000E+00 0.  1.
</event>
<event>
12    1  0.8219652E-002  0.1946005E+03  0.7818608E-02  0.1154714E+00
         21   -1    0    0  501  502  0.00000000000E+00  0.00000000000E+00  0.31084833302E+02  0.31084833302E+02  0.00000000000E+00 0. -1.
         21   -1    0    0  502  503 -0.00000000000E+00 -0.00000000000E+00 -0.12414106087E+04  0.12414106087E+04  0.00000000000E+00 0.  1.
         -6    2    1    2    0  503  0.13626707827E+02 -0.86990093804E+02 -0.70619850451E+03  0.73211255389E+03  0.17181239830E+03 0.  0.
        -24    2    3    3    0    0  0.41583219533E+02 -0.92284557761E+02 -0.68321395582E+03  0.69523468283E+03  0.79525788525E+02 0.  0.
          6    2    1    2  501    0 -0.13626707827E+02  0.86990093804E+02 -0.50412727086E+03  0.54038288808E+03  0.17354076444E+03 0.  0.
         24    2    5    5    0    0  0.50338976184E+02  0.88915907470E+02 -0.36027458145E+03  0.38286779757E+03  0.79686418231E+02 0.  0.
          5    1    5    5  501    0 -0.63965684012E+02 -0.19258136660E+01 -0.14385268941E+03  0.15751509052E+03  0.47000000000E+01 0. -1.
        -13    1    6    6    0    0 -0.11620349166E+02  0.48187911152E+02 -0.91628423762E+02  0.10417713443E+03  0.00000000000E+00 0.  1.
         14    1    6    6    0    0  0.61959325350E+02  0.40727996318E+02 -0.26864615769E+03  0.27869066314E+03  0.00000000000E+00 0. -1.
         -5    1    3    3    0  503 -0.27956511705E+02  0.52944639568E+01 -0.22984548690E+02  0.36877871058E+02  0.47000000000E+01 0.  1.
         11    1    4    4    0    0  0.32300546687E+02 -0.25778235689E+02 -0.10051090668E+03  0.10867513567E+03  0.00000000000E+00 0. -1.
        -12    1    4    4    0    0  0.92826728455E+01 -0.66506322072E+02 -0.58270304914E+03  0.58655954717E+03  0.00000000000E+00 0.  1.
</event>
<event>
12    1  0.8219652E-002  0.2199075E+03  0.7818608E-02  0.1133997E+00
         21   -1    0    0  501  502  0.00000000000E+00  0.00000000000E+00  0.19843812349E+03  0.19843812349E+03  0.00000000000E+00 0. -1.
         21   -1    0    0  502  503 -0.00000000000E+00 -0.00000000000E+00 -0.24353202071E+03  0.24353202071E+03  0.00000000000E+00 0. -1.
         -6    2    1    2    0  503  0.11504964894E+03  0.73019126830E+02 -0.26958226433E+02  0.22155370103E+03  0.17260093239E+03 0.  0.
        -24    2    3    3    0    0  0.11774301382E+03  0.77767429577E+02 -0.70730468589E+02  0.17719268462E+03  0.80518680375E+02 0.  0.
          6    2    1    2  501    0 -0.11504964894E+03 -0.73019126830E+02 -0.18135670793E+02  0.22041644317E+03  0.17229710172E+03 0.  0.
         24    2    5    5    0    0 -0.44845551556E+02 -0.84293280414E+02 -0.59490542854E+02  0.13802689728E+03  0.79973864899E+02 0.  0.
          5    1    5    5  501    0 -0.70204097386E+02  0.11274153584E+02  0.41354872060E+02  0.82389545890E+02  0.47000000000E+01 0. -1.
        -11    1    6    6    0    0 -0.13124127057E+02 -0.31232992055E+02 -0.67662129230E+02  0.75669718089E+02  0.00000000000E+00 0.  1.
         12    1    6    6    0    0 -0.31721424499E+02 -0.53060288359E+02  0.81715863761E+01  0.62357179193E+02  0.00000000000E+00 0. -1.
         -5    1    3    3    0  503 -0.26933648821E+01 -0.47483027468E+01  0.43772242156E+02  0.44361016407E+02  0.47000000000E+01 0.  1.
         13    1    4    4    0    0  0.37312491022E+02  0.36485960855E+02  0.13203317022E+02  0.53830984629E+02  0.00000000000E+00 0. -1.
        -14    1    4    4    0    0  0.80430522802E+02  0.41281468723E+02 -0.83933785611E+02  0.12336169999E+03  0.00000000000E+00 0.  1.
</event>
<event>
12    1  0.8219652E-002  0.1898873E+03  0.7818608E-02  0.1158577E+00
         21   -1    0    0  501  502  0.00000000000E+00  0.00000000000E+00  0.54042972841E+02  0.54042972841E+02  0.00000000000E+00 0. -1.
         21   -1    0    0  502  503 -0.00000000000E+00 -0.00000000000E+00 -0.76049312858E+03  0.76049312858E+03  0.00000000000E+00 0.  1.
         -6    2    1    2    0  503 -0.40739869140E+02 -0.68963907301E+02 -0.49598935169E+03  0.53107368140E+03  0.17209898501E+03 0.  0.
        -24    2    3    3    0    0 -0.73020535804E+02 -0.93063224385E+02 -0.31491798491E+03  0.34551574330E+03  0.78835456920E+02 0.  0.
          6    2    1    2  501    0  0.40739869140E+02  0.68963907301E+02 -0.21046080405E+03  0.28346242002E+03  0.17216688437E+03 0.  0.
         24    2    5    5    0    0 -0.38772243188E+02  0.65462456552E+02 -0.12101014820E+03  0.16363777315E+03  0.79657044738E+02 0.  0.
          5    1    5    5  501    0  0.79512112328E+02  0.35014507493E+01 -0.89450655852E+02  0.11982464687E+03  0.47000000000E+01 0. -1.
        -11    1    6    6    0    0 -0.14227567648E+02  0.12934296830E+02 -0.10021290917E+03  0.10204090787E+03  0.00000000000E+00 0.  1.
         12    1    6    6    0    0 -0.24544675540E+02  0.52528159721E+02 -0.20797239028E+02  0.61596865279E+02  0.00000000000E+00 0. -1.
         -5    1    3    3    0  503  0.32280666664E+02  0.24099317084E+02 -0.18107136678E+03  0.18555793810E+03  0.47000000000E+01 0.  1.
         13    1    4    4    0    0 -0.27713240894E+02 -0.92631644263E+02 -0.20675390264E+03  0.22824509085E+03  0.00000000000E+00 0. -1.
        -14    1    4    4    0    0 -0.45307294910E+02 -0.43158012190E+00 -0.10816408227E+03  0.11727065245E+03  0.00000000000E+00 0.  1.
</event>
<event>
12    1  0.8219652E-002  0.2133247E+03  0.7818608E-02  0.1139733E+00
         21   -1    0    0  501  502  0.00000000000E+00  0.00000000000E+00  0.14097983505E+03  0.14097983505E+03  0.00000000000E+00 0.  1.
         21   -1    0    0  502  503 -0.00000000000E+00 -0.00000000000E+00 -0.37283067108E+03  0.37283067108E+03  0.00000000000E+00 0.  1.
         -6    2    1    2    0  503 -0.11861070742E+03  0.18432728992E+02 -0.21455113909E+03  0.29978544314E+03  0.17155423406E+03 0.  0.
        -24    2    3    3    0    0 -0.92108201563E+02  0.89683381347E+01 -0.23545338242E+03  0.26441665341E+03  0.76899411060E+02 0.  0.
          6    2    1    2  501    0  0.11861070742E+03 -0.18432728992E+02 -0.17299696947E+02  0.21402506298E+03  0.17634960351E+03 0.  0.
         24    2    5    5    0    0  0.11659539431E+02 -0.56005647925E+02  0.46755936967E+01  0.98460016489E+02  0.79999601321E+02 0.  0.
          5    1    5    5  501    0  0.10695116799E+03  0.37572918933E+02 -0.21975290644E+02  0.11556504649E+03  0.47000000000E+01 0. -1.
        -13    1    6    6    0    0  0.19305320820E+02  0.16265658828E+02  0.52445203641E+01  0.25783174027E+02  0.00000000000E+00 0.  1.
         14    1    6    6    0    0 -0.76457813894E+01 -0.72271306752E+02 -0.56892666735E+00  0.72676842462E+02  0.00000000000E+00 0. -1.
         -5    1    3    3    0  503 -0.26502505859E+02  0.94643908569E+01  0.20902243333E+02  0.35368789737E+02  0.47000000000E+01 0.  1.
         11    1    4    4    0    0 -0.16100688664E+02  0.60825523839E+00  0.76488674424E+00  0.16130319328E+02  0.00000000000E+00 0. -1.
        -12    1    4    4    0    0 -0.76007512899E+02  0.83600828963E+01 -0.23621826917E+03  0.24828633408E+03  0.00000000000E+00 0.  1.
</event>
<event>
12    1  0.8219652E-002  0.1976873E+03  0.7818608E-02  0.1151841E+00
         21   -1    0    0  503  502  0.00000000000E+00  0.00000000000E+00  0.29523553602E+03  0.29523553602E+03  0.00000000000E+00 0.  1.
         21   -1    0    0  501  503 -0.00000000000E+00 -0.00000000000E+00 -0.13761828136E+03  0.13761828136E+03  0.00000000000E+00 0.  1.
          6    2    1    2  501    0  0.44247740303E+02  0.85110473443E+02  0.12286606242E+03  0.23275807852E+03  0.17285426987E+03 0.  0.
         24    2    3    3    0    0  0.42009534984E+02 -0.19202812942E+02  0.47005272433E+02  0.10367198037E+03  0.80030211934E+02 0.  0.
         -6    2    1    2    0  502 -0.44247740303E+02 -0.85110473443E+02  0.34751192236E+02  0.20009573886E+03  0.17213077626E+03 0.  0.
        -24    2    5    5    0    0  0.32925758850E+02 -0.76155395459E+02  0.40553758290E+02  0.12204638162E+03  0.79793245960E+02 0.  0.
          5    1    3    3  501    0  0.22382053197E+01  0.10431328638E+03  0.75860789987E+02  0.12908609815E+03  0.47000000000E+01 0. -1.
        -13    1    4    4    0    0  0.27030648411E+02 -0.23376799313E+02 -0.15724691671E+02  0.39043522226E+02  0.00000000000E+00 0.  1.
         14    1    4    4    0    0  0.14978886572E+02  0.41739863714E+01  0.62729964104E+02  0.64628458141E+02  0.00000000000E+00 0. -1.
         -5    1    5    5    0  502 -0.77173499154E+02 -0.89550779834E+01 -0.58025660546E+01  0.78049357243E+02  0.47000000000E+01 0.  1.
         11    1    6    6    0    0  0.23808410713E+02  0.99951327444E+01  0.20884221615E+02  0.33209845103E+02  0.00000000000E+00 0. -1.
        -12    1    6    6    0    0  0.91173481373E+01 -0.86150528204E+02  0.19669536675E+02  0.88836536514E+02  0.00000000000E+00 0.  1.
</event>
<event>
12    1  0.8219652E-002  0.1985641E+03  0.7818608E-02  0.1150986E+00
         21   -1    0    0  503  502  0.00000000000E+00  0.00000000000E+00  0.86199920703E+02  0.86199920703E+02  0.00000000000E+00 0. -1.
         21   -1    0    0  501  503 -0.00000000000E+00 -0.00000000000E+00 -0.46938399276E+03  0.46938399276E+03  0.00000000000E+00 0.  1.
          6    2    1    2  501    0 -0.54608528312E+02  0.80444842887E+02 -0.23664717097E+03  0.30891677417E+03  0.17313066085E+03 0.  0.
         24    2    3    3    0    0 -0.20300148643E+02  0.52006748219E+02 -0.24477871186E+03  0.26337556096E+03  0.79581847396E+02 0.  0.
         -6    2    1    2    0  502  0.54608528312E+02 -0.80444842887E+02 -0.14653690109E+03  0.24666713930E+03  0.17296863911E+03 0.  0.
        -24    2    5    5    0    0  0.35134877128E+02 -0.89002255476E+02 -0.30387020878E+02  0.12849211201E+03  0.80193458211E+02 0.  0.
          5    1    3    3  501    0 -0.34308379668E+02  0.28438094668E+02  0.81315408900E+01  0.45541213214E+02  0.47000000000E+01 0. -1.
        -13    1    4    4    0    0 -0.26685642027E+02 -0.86568858169E+01 -0.34711938734E+02  0.44631646319E+02  0.00000000000E+00 0.  1.
         14    1    4    4    0    0  0.63854933838E+01  0.60663634036E+02 -0.21006677312E+03  0.21874391464E+03  0.00000000000E+00 0. -1.
         -5    1    5    5    0  502  0.19473651183E+02  0.85574125890E+01 -0.11614988022E+03  0.11817502729E+03  0.47000000000E+01 0.  1.
         11    1    6    6    0    0  0.10370949338E+02 -0.54726248846E+02 -0.56056822507E+02  0.79024592707E+02  0.00000000000E+00 0. -1.
        -12    1    6    6    0    0  0.24763927791E+02 -0.34276006630E+02  0.25669801629E+02  0.49467519301E+02  0.00000000000E+00 0.  1.
</event>
<event>
12    1  0.8219652E-002  0.1989204E+03  0.7818608E-02  0.1151121E+00
         21   -1    0    0  503  502  0.00000000000E+00  0.00000000000E+00  0.17156631159E+03  0.17156631159E+03  0.00000000000E+00 0.  1.
         21   -1    0    0  501  503 -0.00000000000E+00 -0.00000000000E+00 -0.91866574223E+03  0.91866574223E+03  0.00000000000E+00 0.  1.
          6    2    1    2  501    0 -0.58217652074E+02  0.76404079953E+02 -0.84667993564E+03  0.86973343343E+03  0.17419085328E+03 0.  0.
         24    2    3    3    0    0 -0.13307653791E+02  0.97283256573E+02 -0.37961009875E+03  0.40002163829E+03  0.79198222004E+02 0.  0.
         -6    2    1    2    0  502  0.58217652074E+02 -0.76404079953E+02  0.99580505000E+02  0.22049862039E+03  0.17168717532E+03 0.  0.
        -24    2    5    5    0    0  0.95581699525E+01  0.13461444938E+02  0.37206385990E+01  0.80303179124E+02  0.78499607089E+02 0.  0.
          5    1    3    3  501    0 -0.44909998283E+02 -0.20879176621E+02 -0.46706983689E+03  0.46971179514E+03  0.47000000000E+01 0. -1.
        -13    1    4    4    0    0 -0.40040142340E+02  0.78300714898E+02 -0.32138079147E+03  0.33319638065E+03  0.00000000000E+00 0.  1.
         14    1    4    4    0    0  0.26732488548E+02  0.18982541675E+02 -0.58229307280E+02  0.66825257641E+02  0.00000000000E+00 0. -1.
         -5    1    5    5    0  502  0.48659482121E+02 -0.89865524891E+02  0.95859866401E+02  0.14019544126E+03  0.47000000000E+01 0.  1.
         11    1    6    6    0    0  0.26796879278E+02 -0.23637310077E+02 -0.10084871210E+02  0.37128153658E+02  0.00000000000E+00 0. -1.
        -12    1    6    6    0    0 -0.17238709326E+02  0.37098755015E+02  0.13805509809E+02  0.43175025466E+02  0.00000000000E+00 0.  1.
</event>
<event>
12    1  0.8219652E-002  0.2025079E+03  0.7818608E-02  0.1147806E+00
         21   -1    0    0  503  502  0.00000000000E+00  0.00000000000E+00  0.76537493695E+03  0.76537493695E+03  0.00000000000E+00 0. -1.
         21   -1    0    0  501  503 -0.00000000000E+00 -0.00000000000E+00 -0.27077229422E+03  0.27077229422E+03  0.00000000000E+00 0.  1.
          6    2    1    2  501    0  0.37287067292E+02  0.10237713394E+03 -0.21701262225E+03  0.29627851388E+03  0.16975004161E+03 0.  0.
         24    2    3    3    0    0  0.38927688603E+02  0.13019415197E+03 -0.11079119129E+03  0.18636236163E+03  0.63169293314E+02 0.  0.
         -6    2    1    2    0  502 -0.37287067292E+02 -0.10237713394E+03  0.71161526498E+03  0.73986871729E+03  0.17069865416E+03 0.  0.
        -24    2    5    5    0    0  0.29095372755E+02 -0.10620892707E+03  0.46390260509E+03  0.48334393710E+03  0.79302317811E+02 0.  0.
          5    1    3    3  501    0 -0.16406213109E+01 -0.27817018028E+02 -0.10622143096E+03  0.10991615225E+03  0.47000000000E+01 0. -1.
        -11    1    4    4    0    0  0.52518820246E+02  0.84777390066E+02 -0.57822744462E+02  0.11527750051E+03  0.00000000000E+00 0.  1.
         12    1    4    4    0    0 -0.13591131643E+02  0.45416761900E+02 -0.52968446833E+02  0.71084861122E+02  0.00000000000E+00 0. -1.
         -5    1    5    5    0  502 -0.66382440047E+02  0.38317931354E+01  0.24771265989E+03  0.25652478019E+03  0.47000000000E+01 0.  1.
         13    1    6    6    0    0 -0.10807522348E+01 -0.10357140166E+03  0.38886765995E+03  0.40242547164E+03  0.00000000000E+00 0. -1.
        -14    1    6    6    0    0  0.30176124990E+02 -0.26375254126E+01  0.75034945142E+02  0.80918465459E+02  0.00000000000E+00 0.  1.
</event>
<event>
12    1  0.8219652E-002  0.2579677E+03  0.7818608E-02  0.1108629E+00
         21   -1    0    0  501  502  0.00000000000E+00  0.00000000000E+00  0.33431540403E+03  0.33431540403E+03  0.00000000000E+00 0. -1.
         21   -1    0    0  502  503 -0.00000000000E+00 -0.00000000000E+00 -0.20442983781E+03  0.20442983781E+03  0.00000000000E+00 0. -1.
         -6    2    1    2    0  503  0.18568285442E+03  0.49772902586E+02  0.11384871425E+03  0.28197315128E+03  0.17202285909E+03 0.  0.
        -24    2    3    3    0    0  0.16235724013E+03  0.95945576266E+02  0.76166608792E+02  0.21780126376E+03  0.77914126900E+02 0.  0.
          6    2    1    2  501    0 -0.18568285442E+03 -0.49772902586E+02  0.16036851971E+02  0.25677209057E+03  0.16946758279E+03 0.  0.
         24    2    5    5    0    0 -0.20163740817E+03 -0.73998488703E+02  0.22895001595E+02  0.22659675255E+03  0.68472523430E+02 0.  0.
          5    1    5    5  501    0  0.15954553752E+02  0.24225586117E+02 -0.68581496240E+01  0.30175338017E+02  0.47000000000E+01 0. -1.
        -13    1    6    6    0    0 -0.62892648046E+02 -0.49626100959E+02  0.30004588662E+02  0.85548292884E+02  0.00000000000E+00 0.  1.
         14    1    6    6    0    0 -0.13874476012E+03 -0.24372387745E+02 -0.71095870673E+01  0.14104845967E+03  0.00000000000E+00 0. -1.
         -5    1    3    3    0  503  0.23325614283E+02 -0.46172673680E+02  0.37682105457E+02  0.64171887522E+02  0.47000000000E+01 0.  1.
         11    1    4    4    0    0  0.93537843551E+02  0.19237478465E+02  0.11616293003E+02  0.96199516719E+02  0.00000000000E+00 0. -1.
        -12    1    4    4    0    0  0.68819396582E+02  0.76708097801E+02  0.64550315790E+02  0.12160174704E+03  0.00000000000E+00 0.  1.
</event>
<event>
12    1  0.8219652E-002  0.2239446E+03  0.7818608E-02  0.1131186E+00
         21   -1    0    0  503  502  0.00000000000E+00  0.00000000000E+00  0.86402550514E+02  0.86402550514E+02  0.00000000000E+00 0. -1.
         21   -1    0    0  501  503 -0.00000000000E+00 -0.00000000000E+00 -0.10345367504E+04  0.10345367504E+04  0.00000000000E+00 0.  1.
          6    2    1    2  501    0 -0.97511918658E+02 -0.10269718172E+03 -0.84729257831E+03  0.87638798056E+03  0.17348168148E+03 0.  0.
         24    2    3    3    0    0 -0.84923868334E+02 -0.64230365397E+02 -0.81116575615E+03  0.82193256533E+03  0.79029454958E+02 0.  0.
         -6    2    1    2    0  502  0.97511918658E+02  0.10269718172E+03 -0.10084162153E+03  0.24455132031E+03  0.17199136669E+03 0.  0.
        -24    2    5    5    0    0  0.78121350995E+02 -0.11381114568E+01 -0.48038619652E+02  0.12636498763E+03  0.86926177543E+02 0.  0.
          5    1    3    3  501    0 -0.12588050324E+02 -0.38466816321E+02 -0.36126822155E+02  0.54455415230E+02  0.47000000000E+01 0. -1.
        -11    1    4    4    0    0 -0.42144393851E+02 -0.66048133420E+02 -0.66573563063E+03  0.67033009461E+03  0.00000000000E+00 0.  1.
         12    1    4    4    0    0 -0.42779474483E+02  0.18177680231E+01 -0.14543012553E+03  0.15160247072E+03  0.00000000000E+00 0. -1.
         -5    1    5    5    0  502  0.19390567663E+02  0.10383529317E+03 -0.52803001883E+02  0.11818633267E+03  0.47000000000E+01 0.  1.
         13    1    6    6    0    0  0.59152852852E+02  0.17760775193E+02  0.98888594817E+01  0.62548338730E+02  0.00000000000E+00 0. -1.
        -14    1    6    6    0    0  0.18968498143E+02 -0.18898886650E+02 -0.57927479133E+02  0.63816648903E+02  0.00000000000E+00 0.  1.
</event>
<event>
12    1  0.8219652E-002  0.2092365E+03  0.7818608E-02  0.1142646E+00
         21   -1    0    0  501  502  0.00000000000E+00  0.00000000000E+00  0.11129712631E+03  0.11129712631E+03  0.00000000000E+00 0.  1.
         21   -1    0    0  502  503 -0.00000000000E+00 -0.00000000000E+00 -0.41733608357E+03  0.41733608357E+03  0.00000000000E+00 0. -1.
         -6    2    1    2    0  503 -0.50668141574E+02  0.10566653341E+03 -0.22279596418E+03  0.30564348501E+03  0.17334134365E+03 0.  0.
        -24    2    3    3    0    0 -0.67254787965E+02  0.13664214468E+03 -0.20006278764E+03  0.26353062892E+03  0.78923958197E+02 0.  0.
          6    2    1    2  501    0  0.50668141574E+02 -0.10566653341E+03 -0.83242993080E+02  0.22298972487E+03  0.17047681558E+03 0.  0.
         24    2    5    5    0    0  0.65267311996E+02 -0.52355212979E+01 -0.27773207216E+02  0.10723778703E+03  0.80258078905E+02 0.  0.
          5    1    5    5  501    0 -0.14599170422E+02 -0.10043101211E+03 -0.55469785864E+02  0.11575193785E+03  0.47000000000E+01 0. -1.
        -11    1    6    6    0    0  0.40122646400E+02  0.13659295420E+02  0.22462282860E+02  0.47968294287E+02  0.00000000000E+00 0.  1.
         12    1    6    6    0    0  0.25144665596E+02 -0.18894816718E+02 -0.50235490076E+02  0.59269492742E+02  0.00000000000E+00 0. -1.
         -5    1    3    3    0  503  0.16586646391E+02 -0.30975611266E+02 -0.22733176540E+02  0.42112856083E+02  0.47000000000E+01 0.  1.
         13    1    4    4    0    0 -0.22298715262E+02  0.33526747362E+02 -0.11689454766E+03  0.12363499004E+03  0.00000000000E+00 0. -1.
        -14    1    4    4    0    0 -0.44956072702E+02  0.10311539732E+03 -0.83168239981E+02  0.13989563888E+03  0.00000000000E+00 0.  1.
</event>
<event>
12    1  0.8219652E-002  0.1857800E+03  0.7818608E-02  0.1162345E+00
         21   -1    0    0  501  502  0.00000000000E+00  0.00000000000E+00  0.50930345407E+03  0.50930345407E+03  0.00000000000E+00 0.  1.
         21   -1    0    0  502  503 -0.00000000000E+00 -0.00000000000E+00 -0.12723202022E+03  0.12723202022E+03  0.00000000000E+00 0.  1.
         -6    2    1    2    0  503 -0.39553891942E+02  0.55855979522E+02 -0.26633876653E+02  0.18758754530E+03  0.17261321778E+03 0.  0.
        -24    2    3    3    0    0 -0.43914526452E+02 -0.18124320254E+02 -0.50148138468E+02  0.10969588723E+03  0.85213703513E+02 0.  0.
          6    2    1    2  501    0  0.39553891942E+02 -0.55855979522E+02  0.40870531051E+03  0.44894792898E+03  0.17271308950E+03 0.  0.
         24    2    5    5    0    0 -0.29302788016E+02 -0.57112108234E+02  0.15439068879E+03  0.18543163527E+03  0.80174561307E+02 0.  0.
          5    1    5    5  501    0  0.68856679958E+02  0.12561287119E+01  0.25431462171E+03  0.26351629371E+03  0.47000000000E+01 0. -1.
        -13    1    6    6    0    0  0.15886267814E+02 -0.35163577189E+02  0.11586996114E+03  0.12212574897E+03  0.00000000000E+00 0.  1.
         14    1    6    6    0    0 -0.45189055829E+02 -0.21948531045E+02  0.38520727649E+02  0.63305886301E+02  0.00000000000E+00 0. -1.
         -5    1    3    3    0  503  0.43606345092E+01  0.73980299775E+02  0.23514261815E+02  0.77891658070E+02  0.47000000000E+01 0.  1.
         13    1    4    4    0    0  0.56488736254E+01 -0.41075624034E+02 -0.12312653680E+02  0.43251798848E+02  0.00000000000E+00 0. -1.
        -14    1    4    4    0    0 -0.49563400077E+02  0.22951303780E+02 -0.37835484788E+02  0.66444088387E+02  0.00000000000E+00 0.  1.
</event>
<event>
12    1  0.8219652E-002  0.2114908E+03  0.7818608E-02  0.1140453E+00
         21   -1    0    0  501  502  0.00000000000E+00  0.00000000000E+00  0.18787401409E+02  0.18787401409E+02  0.00000000000E+00 0. -1.
         21   -1    0    0  502  503 -0.00000000000E+00 -0.00000000000E+00 -0.24277319835E+04  0.24277319835E+04  0.00000000000E+00 0.  1.
         -6    2    1    2    0  503  0.48796316739E+02 -0.11235254628E+03 -0.10288918623E+04  0.10504031640E+04  0.17240698237E+03 0.  0.
        -24    2    3    3    0    0  0.36063143151E+02  0.10222488785E+02 -0.42915155957E+03  0.43811459349E+03  0.79801543688E+02 0.  0.
          6    2    1    2  501    0 -0.48796316739E+02  0.11235254628E+03 -0.13800527198E+04  0.13961162208E+04  0.17201981729E+03 0.  0.
         24    2    5    5    0    0 -0.49373210968E+02 -0.46074255288E+01 -0.67347486733E+03  0.67990792755E+03  0.79040816568E+02 0.  0.
          5    1    5    5  501    0  0.57689422911E+00  0.11695997180E+03 -0.70657785246E+03  0.71620829330E+03  0.47000000000E+01 0. -1.
        -11    1    6    6    0    0 -0.26279913083E+02  0.36869069528E+02 -0.29170063552E+03  0.29519353462E+03  0.00000000000E+00 0.  1.
         12    1    6    6    0    0 -0.23093297886E+02 -0.41476495057E+02 -0.38177423182E+03  0.38471439293E+03  0.00000000000E+00 0. -1.
         -5    1    3    3    0  503  0.12733173588E+02 -0.12257503506E+03 -0.59974030272E+03  0.61228857056E+03  0.47000000000E+01 0.  1.
         13    1    4    4    0    0  0.78176843510E+01  0.71047002162E+01 -0.29516423107E+01  0.10968370257E+02  0.00000000000E+00 0. -1.
        -14    1    4    4    0    0  0.28245458800E+02  0.31177885685E+01 -0.42619991726E+03  0.42714622323E+03  0.00000000000E+00 0.  1.
</event>
<event>
12    1  0.8219652E-002  0.1906963E+03  0.7818608E-02  0.1157999E+00
         21   -1    0    0  503  502  0.00000000000E+00  0.00000000000E+00  0.20972738825E+03  0.20972738825E+03  0.00000000000E+00 0. -1.
         21   -1    0    0  501  503 -0.00000000000E+00 -0.00000000000E+00 -0.18451295924E+03  0.18451295924E+03  0.00000000000E+00 0. -1.
          6    2    1    2  501    0  0.81170382623E+02  0.10450156081E+02 -0.37234899565E+02  0.19357894652E+03  0.17143084323E+03 0.  0.
         24    2    3    3    0    0  0.77926938405E+01 -0.47441476811E+02 -0.35234800378E+02  0.99974369882E+02  0.80261844461E+02 0.  0.
         -6    2    1    2    0  502 -0.81170382623E+02 -0.10450156081E+02  0.62449328577E+02  0.20066140098E+03  0.17224181381E+03 0.  0.
        -24    2    5    5    0    0  0.67528732773E+01  0.13686500835E+02 -0.95758982102E+01  0.84373824561E+02  0.82427682498E+02 0.  0.
          5    1    3    3  501    0  0.73377688782E+02  0.57891632892E+02 -0.20000991878E+01  0.93604576633E+02  0.47000000000E+01 0. -1.
        -13    1    4    4    0    0 -0.32845963666E+02 -0.11019937978E+02  0.66809236779E+00  0.34651734583E+02  0.00000000000E+00 0.  1.
         14    1    4    4    0    0  0.40638657507E+02 -0.36421538833E+02 -0.35902892745E+02  0.65322635299E+02  0.00000000000E+00 0. -1.
         -5    1    5    5    0  502 -0.87923255900E+02 -0.24136656916E+02  0.72025226788E+02  0.11628757642E+03  0.47000000000E+01 0.  1.
         13    1    6    6    0    0 -0.11499527586E+02 -0.72949220632E+01 -0.40533251805E+02  0.42759788639E+02  0.00000000000E+00 0. -1.
        -14    1    6    6    0    0  0.18252400863E+02  0.20981422898E+02  0.30957353595E+02  0.41614035922E+02  0.00000000000E+00 0.  1.
</event>
<event>
12    1  0.8219652E-002  0.3172511E+03  0.7818608E-02  0.1077095E+00
         21   -1    0    0  503  502  0.00000000000E+00  0.00000000000E+00  0.59485481216E+03  0.59485481216E+03  0.00000000000E+00 0. -1.
         21   -1    0    0  501  503 -0.00000000000E+00 -0.00000000000E+00 -0.16997616459E+03  0.16997616459E+03  0.00000000000E+00 0.  1.
          6    2    1    2  501    0  0.21732866080E+03  0.15177665517E+03  0.24871659267E+03  0.40195173213E+03  0.17157316701E+03 0.  0.
         24    2    3    3    0    0  0.64714817106E+02  0.95291966720E+02  0.64126789890E+02  0.15582779871E+03  0.83075214076E+02 0.  0.
         -6    2    1    2    0  502 -0.21732866080E+03 -0.15177665517E+03  0.17616205490E+03  0.36287924462E+03  0.17429967506E+03 0.  0.
        -24    2    5    5    0    0 -0.15669558285E+03 -0.11111166261E+03  0.44835551903E+02  0.21255043117E+03  0.79171660490E+02 0.  0.
          5    1    3    3  501    0  0.15261384369E+03  0.56484688452E+02  0.18458980278E+03  0.24612393343E+03  0.47000000000E+01 0. -1.
        -13    1    4    4    0    0  0.71777505025E+02  0.66820452167E+02  0.15851972997E+02  0.99339156949E+02  0.00000000000E+00 0.  1.
         14    1    4    4    0    0 -0.70626879193E+01  0.28471514552E+02  0.48274816892E+02  0.56488641757E+02  0.00000000000E+00 0. -1.
         -5    1    5    5    0  502 -0.60633077948E+02 -0.40664992566E+02  0.13132650300E+03  0.15032881345E+03  0.47000000000E+01 0.  1.
         13    1    6    6    0    0 -0.20537495857E+02 -0.17854507234E+01 -0.17600504588E+02  0.27106352247E+02  0.00000000000E+00 0. -1.
        -14    1    6    6    0    0 -0.13615808699E+03 -0.10932621188E+03  0.62436056491E+02  0.18544407893E+03  0.00000000000E+00 0.  1.
</event>
<event>
12    1  0.8219652E-002  0.2008745E+03  0.7818608E-02  0.1150267E+00
         21   -1    0    0  501  502  0.00000000000E+00  0.00000000000E+00  0.60797210074E+02  0.60797210074E+02  0.00000000000E+00 0. -1.
         21   -1    0    0  502  503 -0.00000000000E+00 -0.00000000000E+00 -0.73500052273E+03  0.73500052273E+03  0.00000000000E+00 0. -1.
         -6    2    1    2    0  503 -0.98663327257E+02 -0.30960539967E+02 -0.48133549636E+03  0.52156919103E+03  0.17221368644E+03 0.  0.
        -24    2    3    3    0    0 -0.57859505105E+02  0.40138896875E+02 -0.17983758690E+03  0.20909013376E+03  0.80114124860E+02 0.  0.
          6    2    1    2  501    0  0.98663327257E+02  0.30960539967E+02 -0.19286781629E+03  0.27422854177E+03  0.16525825662E+03 0.  0.
         24    2    5    5    0    0  0.95946033970E+02  0.19403720620E+02 -0.58258713022E+02  0.13901521240E+03  0.79680649013E+02 0.  0.
          5    1    5    5  501    0  0.27172932873E+01  0.11556819346E+02 -0.13460910327E+03  0.13521332937E+03  0.47000000000E+01 0. -1.
        -13    1    6    6    0    0 -0.42735499894E+01  0.22576642404E+02  0.14166587502E+00  0.22977991230E+02  0.00000000000E+00 0.  1.
         14    1    6    6    0    0  0.10021958396E+03 -0.31729217835E+01 -0.58400378897E+02  0.11603722117E+03  0.00000000000E+00 0. -1.
         -5    1    3    3    0  503 -0.40803822153E+02 -0.71099436841E+02 -0.30149790947E+03  0.31247905727E+03  0.47000000000E+01 0.  1.
         13    1    4    4    0    0 -0.49311654592E+02  0.38372969778E+02 -0.52946083720E+02  0.81898790403E+02  0.00000000000E+00 0. -1.
        -14    1    4    4    0    0 -0.85478505129E+01  0.17659270971E+01 -0.12689150318E+03  0.12719134336E+03  0.00000000000E+00 0.  1.
</event>
<event>
12    1  0.8219652E-002  0.3131610E+03  0.7818608E-02  0.1078997E+00
         21   -1    0    0  503  502  0.00000000000E+00  0.00000000000E+00  0.30155613922E+03  0.30155613922E+03  0.00000000000E+00 0. -1.
         21   -1    0    0  501  503 -0.00000000000E+00 -0.00000000000E+00 -0.63344323227E+03  0.63344323227E+03  0.00000000000E+00 0. -1.
          6    2    1    2  501    0  0.18625018412E+03  0.18575716082E+03 -0.49259916930E+03  0.58300766489E+03  0.16747878028E+03 0.  0.
         24    2    3    3    0    0  0.12458311200E+03  0.67578643148E+02 -0.35920411092E+03  0.39436694441E+03  0.80061655848E+02 0.  0.
         -6    2    1    2    0  502 -0.18625018412E+03 -0.18575716082E+03  0.16071207625E+03  0.35199170660E+03  0.16992626690E+03 0.  0.
        -24    2    5    5    0    0 -0.20643084476E+03 -0.14997404684E+03  0.15786992078E+03  0.31054465414E+03  0.80057241608E+02 0.  0.
          5    1    3    3  501    0  0.61667072118E+02  0.11817851767E+03 -0.13339505838E+03  0.18864072048E+03  0.47000000000E+01 0.  1.
        -11    1    4    4    0    0  0.17419409830E+02 -0.17944828072E+02 -0.43514294918E+02  0.50189107937E+02  0.00000000000E+00 0.  1.
         12    1    4    4    0    0  0.10716370217E+03  0.85523471220E+02 -0.31568981600E+03  0.34417783648E+03  0.00000000000E+00 0. -1.
         -5    1    5    5    0  502  0.20180660639E+02 -0.35783113979E+02  0.28421554713E+01  0.41447052460E+02  0.47000000000E+01 0.  1.
         11    1    6    6    0    0 -0.10013987554E+03 -0.11300595362E+03  0.63988460050E+02  0.16399043645E+03  0.00000000000E+00 0. -1.
        -12    1    6    6    0    0 -0.10629096922E+03 -0.36968093214E+02  0.93881460732E+02  0.14655421769E+03  0.00000000000E+00 0.  1.
</event>
<event>
12    1  0.8219652E-002  0.3672629E+03  0.7818608E-02  0.1055939E+00
         21   -1    0    0  503  502  0.00000000000E+00  0.00000000000E+00  0.12911566781E+04  0.12911566781E+04  0.00000000000E+00 0.  1.
         21   -1    0    0  501  503 -0.00000000000E+00 -0.00000000000E+00 -0.29099625000E+03  0.29099625000E+03  0.00000000000E+00 0. -1.
          6    2    1    2  501    0  0.25801188985E+03 -0.19368487585E+03 -0.13473619833E+03  0.38931079375E+03  0.17124568476E+03 0.  0.
         24    2    3    3    0    0  0.19067721589E+03 -0.16635078523E+03 -0.16018655074E+03  0.31216857920E+03  0.88085789962E+02 0.  0.
         -6    2    1    2    0  502 -0.25801188985E+03  0.19368487585E+03  0.11348966265E+04  0.11928421344E+04  0.17549369899E+03 0.  0.
        -24    2    5    5    0    0 -0.16873658490E+03  0.19121253639E+03  0.95773168947E+03  0.99438383289E+03  0.80715233631E+02 0.  0.
          5    1    3    3  501    0  0.67334673960E+02 -0.27334090618E+02  0.25450352411E+02  0.77142214546E+02  0.47000000000E+01 0. -1.
        -11    1    4    4    0    0  0.15078464786E+03 -0.89048098835E+02 -0.13644613137E+03  0.22199801959E+03  0.00000000000E+00 0.  1.
         12    1    4    4    0    0  0.39892568033E+02 -0.77302686399E+02 -0.23740419376E+02  0.90170559613E+02  0.00000000000E+00 0. -1.
         -5    1    5    5    0  502 -0.89275304946E+02  0.24723394634E+01  0.17716493700E+03  0.19845830151E+03  0.47000000000E+01 0.  1.
         13    1    6    6    0    0 -0.49364174615E+02  0.17655222980E+02  0.27281573266E+03  0.27780740202E+03  0.00000000000E+00 0. -1.
        -14    1    6    6    0    0 -0.11937241029E+03  0.17355731341E+03  0.68491595682E+03  0.71657643087E+03  0.00000000000E+00 0.  1.
</event>
<event>
12    1  0.8219652E-002  0.2175216E+03  0.7818608E-02  0.1136096E+00
         21   -1    0    0  501  502  0.00000000000E+00  0.00000000000E+00  0.93183326637E+02  0.93183326637E+02  0.00000000000E+00 0. -1.
         21   -1    0    0  502  503 -0.00000000000E+00 -0.00000000000E+00 -0.12135846037E+04  0.12135846037E+04  0.00000000000E+00 0.  1.
         -6    2    1    2    0  503  0.11512940899E+02 -0.12999839560E+03 -0.10590108375E+04  0.10807492911E+04  0.17170598625E+03 0.  0.
        -24    2    3    3    0    0 -0.63074065060E+00  0.17037927794E+02 -0.33894236493E+03  0.34570654098E+03  0.65881688736E+02 0.  0.
          6    2    1    2  501    0 -0.11512940899E+02  0.12999839560E+03 -0.61390439610E+02  0.22601863923E+03  0.17402157492E+03 0.  0.
         24    2    5    5    0    0  0.57858505562E+02  0.10186899159E+03 -0.44265186240E+02  0.14908343756E+03  0.80879951330E+02 0.  0.
          5    1    5    5  501    0 -0.69371446461E+02  0.28129404008E+02 -0.17125253369E+02  0.76935201676E+02  0.47000000000E+01 0. -1.
        -13    1    6    6    0    0  0.24337901081E+02  0.19339642890E+02 -0.51026672995E+02  0.59750117766E+02  0.00000000000E+00 0.  1.
         14    1    6    6    0    0  0.33520604481E+02  0.82529348699E+02  0.67614867542E+01  0.89333319789E+02  0.00000000000E+00 0. -1.
         -5    1    3    3    0  503  0.12143681550E+02 -0.14703632339E+03 -0.72006847255E+03  0.73504275016E+03  0.47000000000E+01 0.  1.
         11    1    4    4    0    0 -0.11189365173E+02  0.24485713898E+02 -0.52749464892E+02  0.59222108410E+02  0.00000000000E+00 0. -1.
        -12    1    4    4    0    0  0.10558624523E+02 -0.74477861040E+01 -0.28619290004E+03  0.28648443257E+03  0.00000000000E+00 0.  1.
</event>
<event>
12    1  0.8219652E-002  0.1937618E+03  0.7818608E-02  0.1155623E+00
         21   -1    0    0  503  502  0.00000000000E+00  0.00000000000E+00  0.31097272380E+03  0.31097272380E+03  0.00000000000E+00 0. -1.
         21   -1    0    0  501  503 -0.00000000000E+00 -0.00000000000E+00 -0.27119767849E+03  0.27119767849E+03  0.00000000000E+00 0. -1.
          6    2    1    2  501    0 -0.58315335218E+01  0.90116079528E+02 -0.19791019542E+03  0.27696943512E+03  0.17143135060E+03 0.  0.
         24    2    3    3    0    0 -0.58544839453E+02  0.75499099909E+02 -0.84030075974E+02  0.15054506911E+03  0.80468328256E+02 0.  0.
         -6    2    1    2    0  502  0.58315335218E+01 -0.90116079528E+02  0.23768524073E+03  0.30520096716E+03  0.16881481606E+03 0.  0.
        -24    2    5    5    0    0 -0.45710419146E+02 -0.53541810415E+02  0.69006398824E+02  0.12500970280E+03  0.76872458224E+02 0.  0.
          5    1    3    3  501    0  0.52713305931E+02  0.14616979619E+02 -0.11388011945E+03  0.12642436601E+03  0.47000000000E+01 0. -1.
        -13    1    4    4    0    0 -0.60775382589E+02  0.84234420756E+02 -0.91815438520E+02  0.13863318333E+03  0.00000000000E+00 0.  1.
         14    1    4    4    0    0  0.22305431359E+01 -0.87353208469E+01  0.77853625460E+01  0.11911885785E+02  0.00000000000E+00 0. -1.
         -5    1    5    5    0  502  0.51541952668E+02 -0.36574269113E+02  0.16867884191E+03  0.18019126437E+03  0.47000000000E+01 0.  1.
         13    1    6    6    0    0 -0.32178842374E+02 -0.13306806185E+02  0.74470958206E+02  0.82209930079E+02  0.00000000000E+00 0. -1.
        -14    1    6    6    0    0 -0.13531576772E+02 -0.40235004230E+02 -0.54645593828E+01  0.42799772716E+02  0.00000000000E+00 0.  1.
</event>
<event>
12    1  0.8219652E-002  0.4984265E+03  0.7818608E-02  0.1014218E+00
         21   -1    0    0  501  502  0.00000000000E+00  0.00000000000E+00  0.17647339438E+03  0.17647339438E+03  0.00000000000E+00 0.  1.
         21   -1    0    0  502  503 -0.00000000000E+00 -0.00000000000E+00 -0.15167581409E+04  0.15167581409E+04  0.00000000000E+00 0. -1.
         -6    2    1    2    0  503  0.40716290584E+03  0.22903938640E+03 -0.44168492972E+03  0.66565640424E+03  0.17254622264E+03 0.  0.
        -24    2    3    3    0    0  0.30664408212E+03  0.99322672028E+02 -0.26884190304E+03  0.42727171140E+03  0.79934724953E+02 0.  0.
          6    2    1    2  501    0 -0.40716290584E+03 -0.22903938640E+03 -0.89859981681E+03  0.10275751311E+04  0.17374794035E+03 0.  0.
         24    2    5    5    0    0 -0.35866973800E+03 -0.25104056451E+03 -0.81604095081E+03  0.92922018445E+03  0.76563514890E+02 0.  0.
          5    1    5    5  501    0 -0.48493167843E+02  0.22001178110E+02 -0.82558866005E+02  0.98354946605E+02  0.47000000000E+01 0. -1.
        -13    1    6    6    0    0 -0.52402619662E+02 -0.74009594374E+02 -0.16854758126E+03  0.19139420512E+03  0.00000000000E+00 0.  1.
         14    1    6    6    0    0 -0.30626711834E+03 -0.17703097014E+03 -0.64749336955E+03  0.73782597933E+03  0.00000000000E+00 0. -1.
         -5    1    3    3    0  503  0.10051882373E+03  0.12971671437E+03 -0.17284302668E+03  0.23838469284E+03  0.47000000000E+01 0.  1.
         11    1    4    4    0    0  0.30659172890E+02 -0.41774440798E+01 -0.55038452217E+02  0.63140059739E+02  0.00000000000E+00 0. -1.
        -12    1    4    4    0    0  0.27598490923E+03  0.10350011611E+03 -0.21380345083E+03  0.36413165166E+03  0.00000000000E+00 0.  1.
</event>
<event>
12    1  0.8219652E-002  0.2458031E+03  0.7818608E-02  0.1115999E+00
         21   -1    0    0  501  502  0.00000000000E+00  0.00000000000E+00  0.14489151814E+03  0.14489151814E+03  0.00000000000E+00 0. -1.
         21   -1    0    0  502  503 -0.00000000000E+00 -0.00000000000E+00 -0.44806377004E+03  0.44806377004E+03  0.00000000000E+00 0.  1.
         -6    2    1    2    0  503  0.79964423724E+02  0.15620261466E+03 -0.22985173941E+03  0.33652786834E+03  0.17212094052E+03 0.  0.
        -24    2    3    3    0    0 -0.24795259338E+02  0.35669007432E+02 -0.86463418115E+02  0.12185313216E+03  0.74062002189E+02 0.  0.
          6    2    1    2  501    0 -0.79964423724E+02 -0.15620261466E+03 -0.73320512492E+02  0.25642741985E+03  0.17200452961E+03 0.  0.
         24    2    5    5    0    0 -0.43557952410E+02 -0.88975221889E+02 -0.11315725751E+03  0.17009081263E+03  0.79450829353E+02 0.  0.
          5    1    5    5  501    0 -0.36406471314E+02 -0.67227392774E+02  0.39836745015E+02  0.86336607219E+02  0.47000000000E+01 0. -1.
        -13    1    6    6    0    0 -0.35209583473E+02 -0.16898669211E+01 -0.14544456772E+02  0.38132815807E+02  0.00000000000E+00 0.  1.
         14    1    6    6    0    0 -0.83483689368E+01 -0.87285354968E+02 -0.98612800734E+02  0.13195799682E+03  0.00000000000E+00 0. -1.
         -5    1    3    3    0  503  0.10475968306E+03  0.12053360723E+03 -0.14338832130E+03  0.21467473618E+03  0.47000000000E+01 0.  1.
         11    1    4    4    0    0  0.14511662673E+02 -0.14792602845E+02 -0.13077170315E+02  0.24503506604E+02  0.00000000000E+00 0. -1.
        -12    1    4    4    0    0 -0.39306922011E+02  0.50461610276E+02 -0.73386247800E+02  0.97349625556E+02  0.00000000000E+00 0.  1.
</event>
<event>
12    1  0.8219652E-002  0.1776733E+03  0.7818608E-02  0.1170216E+00
         21   -1    0    0  501  502  0.00000000000E+00  0.00000000000E+00  0.18111541023E+03  0.18111541023E+03  0.00000000000E+00 0.  1.
         21   -1    0    0  502  503 -0.00000000000E+00 -0.00000000000E+00 -0.23760773955E+03  0.23760773955E+03  0.00000000000E+00 0.  1.
         -6    2    1    2    0  503 -0.78453488373E+01  0.41982485625E+02 -0.13683219560E+03  0.22425622309E+03  0.17246369254E+03 0.  0.
        -24    2    3    3    0    0 -0.49056697044E+02  0.75750567855E+02 -0.11556199723E+03  0.16669608118E+03  0.79298803399E+02 0.  0.
          6    2    1    2  501    0  0.78453488373E+01 -0.41982485625E+02  0.80339866278E+02  0.19446692669E+03  0.17186859185E+03 0.  0.
         24    2    5    5    0    0  0.71762934769E+02 -0.20461157921E+02  0.51083242357E+02  0.12080102290E+03  0.80092519587E+02 0.  0.
          5    1    5    5  501    0 -0.63917585932E+02 -0.21521327704E+02  0.29256623921E+02  0.73665903787E+02  0.47000000000E+01 0. -1.
        -11    1    6    6    0    0  0.69693403403E+01 -0.26820058895E+02  0.48241820153E+02  0.55634166441E+02  0.00000000000E+00 0.  1.
         12    1    6    6    0    0  0.64793594429E+02  0.63589009737E+01  0.28414222043E+01  0.65166856459E+02  0.00000000000E+00 0. -1.
         -5    1    3    3    0  503  0.41211348207E+02 -0.33768082230E+02 -0.21270198370E+02  0.57560141914E+02  0.47000000000E+01 0.  1.
         13    1    4    4    0    0 -0.33013641264E+02  0.65179633239E+02 -0.29965210939E+02  0.78969607858E+02  0.00000000000E+00 0. -1.
        -14    1    4    4    0    0 -0.16043055780E+02  0.10570934616E+02 -0.85596786291E+02  0.87726473318E+02  0.00000000000E+00 0.  1.
</event>
<event>
12    1  0.8219652E-002  0.2376994E+03  0.7818608E-02  0.1121446E+00
         21   -1    0    0  503  502  0.00000000000E+00  0.00000000000E+00  0.17397816991E+03  0.17397816991E+03  0.00000000000E+00 0.  1.
         21   -1    0    0  501  503 -0.00000000000E+00 -0.00000000000E+00 -0.36255752643E+03  0.36255752643E+03  0.00000000000E+00 0. -1.
          6    2    1    2  501    0  0.20012429182E+01  0.16278229056E+03 -0.18181147560E+03  0.29873995613E+03  0.17230226242E+03 0.  0.
         24    2    3    3    0    0 -0.26451114065E+02  0.23125533281E+02 -0.32376204149E+02  0.92181158627E+02  0.78833341208E+02 0.  0.
         -6    2    1    2    0  502 -0.20012429182E+01 -0.16278229056E+03 -0.67678809267E+01  0.23779574021E+03  0.17320199409E+03 0.  0.
        -24    2    5    5    0    0 -0.48321667355E+02 -0.11113201417E+03 -0.51786384036E+02  0.15495801696E+03  0.81515945302E+02 0.  0.
          5    1    3    3  501    0  0.28452356983E+02  0.13965675728E+03 -0.14943527145E+03  0.20655879750E+03  0.47000000000E+01 0. -1.
        -13    1    4    4    0    0  0.73221898708E+01  0.45137004042E+02 -0.13575815821E+02  0.47699752343E+02  0.00000000000E+00 0.  1.
         14    1    4    4    0    0 -0.33773303935E+02 -0.22011470761E+02 -0.18800388328E+02  0.44481406284E+02  0.00000000000E+00 0. -1.
         -5    1    5    5    0  502  0.46320424437E+02 -0.51650276388E+02  0.45018503110E+02  0.82837723250E+02  0.47000000000E+01 0.  1.
         13    1    6    6    0    0 -0.47982294050E+02 -0.16902481994E+02 -0.98486922419E+01  0.51816900513E+02  0.00000000000E+00 0. -1.
        -14    1    6    6    0    0 -0.33937330469E+00 -0.94229532178E+02 -0.41937691794E+02  0.10314111645E+03  0.00000000000E+00 0.  1.
</event>
<event>
12    1  0.8219652E-002  0.2041852E+03  0.7818608E-02  0.1146390E+00
         21   -1    0    0  501  502  0.00000000000E+00  0.00000000000E+00  0.80901312670E+03  0.80901312670E+03  0.00000000000E+00 0. -1.
         21   -1    0    0  502  503 -0.00000000000E+00 -0.00000000000E+00 -0.78183044070E+02  0.78183044070E+02  0.00000000000E+00 0. -1.
         -6    2    1    2    0  503  0.75208851836E+02  0.80513708211E+02  0.10524541209E+03  0.22913250624E+03  0.17113234658E+03 0.  0.
        -24    2    3    3    0    0  0.11608649449E+03  0.77453501801E+02  0.95225976437E+02  0.18667281214E+03  0.79395422173E+02 0.  0.
          6    2    1    2  501    0 -0.75208851836E+02 -0.80513708211E+02  0.62558467054E+03  0.65806366453E+03  0.17190921427E+03 0.  0.
         24    2    5    5    0    0 -0.77402189508E+02 -0.10727979800E+03  0.38868445700E+03  0.41959975642E+03  0.86534932115E+02 0.  0.
          5    1    5    5  501    0  0.21933376722E+01  0.26766089789E+02  0.23690021355E+03  0.23846390811E+03  0.47000000000E+01 0. -1.
        -11    1    6    6    0    0 -0.21745131400E+02 -0.39263809985E+02  0.40365493722E+02  0.60364481258E+02  0.00000000000E+00 0.  1.
         12    1    6    6    0    0 -0.55657058108E+02 -0.68015988016E+02  0.34831896328E+03  0.35923527516E+03  0.00000000000E+00 0. -1.
         -5    1    3    3    0  503 -0.40877642650E+02  0.30602064109E+01  0.10019435648E+02  0.42459694095E+02  0.47000000000E+01 0.  1.
         11    1    4    4    0    0  0.50603116034E+02  0.72862008480E+02  0.79615528686E+02  0.11919807062E+03  0.00000000000E+00 0. -1.
        -12    1    4    4    0    0  0.65483378452E+02  0.45914933202E+01  0.15610447751E+02  0.67474741521E+02  0.00000000000E+00 0.  1.
</event>
<event>
12    1  0.8219652E-002  0.2118048E+03  0.7818608E-02  0.1140202E+00
         21   -1    0    0  501  502  0.00000000000E+00  0.00000000000E+00  0.60840774759E+03  0.60840774759E+03  0.00000000000E+00 0.  1.
         21   -1    0    0  502  503 -0.00000000000E+00 -0.00000000000E+00 -0.85257142364E+02  0.85257142364E+02  0.00000000000E+00 0.  1.
         -6    2    1    2    0  503 -0.12020309765E+03 -0.27801959426E+02  0.38979197474E+03  0.44362040515E+03  0.17216139711E+03 0.  0.
        -24    2    3    3    0    0 -0.18311909444E+02 -0.53928409713E+02  0.12555287896E+03  0.15917569105E+03  0.79559888156E+02 0.  0.
          6    2    1    2  501    0  0.12020309765E+03  0.27801959426E+02  0.13335863048E+03  0.25004448481E+03  0.17180217235E+03 0.  0.
         24    2    5    5    0    0  0.10884701902E+03  0.52391456355E+02  0.36299748473E+02  0.14916772605E+03  0.79629143573E+02 0.  0.
          5    1    5    5  501    0  0.11356078632E+02 -0.24589496929E+02  0.97058882008E+02  0.10087675876E+03  0.47000000000E+01 0. -1.
        -13    1    6    6    0    0  0.44490991999E+02 -0.13122329468E+02  0.33628733685E+02  0.57293416978E+02  0.00000000000E+00 0.  1.
         14    1    6    6    0    0  0.64356027022E+02  0.65513785823E+02  0.26710147878E+01  0.91874309069E+02  0.00000000000E+00 0. -1.
         -5    1    3    3    0  503 -0.10189118821E+03  0.26126450287E+02  0.26423909578E+03  0.28444471410E+03  0.47000000000E+01 0.  1.
         13    1    4    4    0    0  0.19395514563E+02  0.36269039261E+01  0.49790506028E+01  0.20350217743E+02  0.00000000000E+00 0. -1.
        -14    1    4    4    0    0 -0.37707424007E+02 -0.57555313639E+02  0.12057382836E+03  0.13882547330E+03  0.00000000000E+00 0.  1.
</event>
<event>
12    1  0.8219652E-002  0.1955928E+03  0.7818608E-02  0.1153578E+00
         21   -1    0    0  501  502  0.00000000000E+00  0.00000000000E+00  0.72976643193E+03  0.72976643193E+03  0.00000000000E+00 0. -1.
         21   -1    0    0  502  503 -0.00000000000E+00 -0.00000000000E+00 -0.60913929570E+02  0.60913929570E+02  0.00000000000E+00 0.  1.
         -6    2    1    2    0  503  0.53191248587E+02 -0.75493504490E+02  0.18589644518E+03  0.26962076343E+03  0.17207350055E+03 0.  0.
        -24    2    3    3    0    0 -0.34851904083E+02 -0.66670732831E+02  0.10176403544E+03  0.14743324196E+03  0.75637293003E+02 0.  0.
          6    2    1    2  501    0 -0.53191248587E+02  0.75493504490E+02  0.48295605718E+03  0.52105959807E+03  0.17241801946E+03 0.  0.
         24    2    5    5    0    0 -0.45986673784E+02  0.11562219997E+03  0.42409302338E+03  0.44930191663E+03  0.80833486320E+02 0.  0.
          5    1    5    5  501    0 -0.72045748036E+01 -0.40128695481E+02  0.58863033794E+02  0.71757681446E+02  0.47000000000E+01 0. -1.
        -11    1    6    6    0    0  0.22344473383E+02  0.42029202712E+02  0.15131725887E+03  0.15862736903E+03  0.00000000000E+00 0.  1.
         12    1    6    6    0    0 -0.68331147167E+02  0.73592997259E+02  0.27277576451E+03  0.29067454760E+03  0.00000000000E+00 0. -1.
         -5    1    3    3    0  503  0.88043152670E+02 -0.88227716593E+01  0.84132409745E+02  0.12218752146E+03  0.47000000000E+01 0.  1.
         13    1    4    4    0    0  0.16455428917E+02 -0.49513495818E+02  0.43561561083E+02  0.67970412776E+02  0.00000000000E+00 0. -1.
        -14    1    4    4    0    0 -0.51307333000E+02 -0.17157237014E+02  0.58202474353E+02  0.79462829187E+02  0.00000000000E+00 0.  1.
</event>
<event>
12    1  0.8219652E-002  0.1806584E+03  0.7818608E-02  0.1167281E+00
         21   -1    0    0  501  502  0.00000000000E+00  0.00000000000E+00  0.50672500967E+02  0.50672500967E+02  0.00000000000E+00 0.  1.
         21   -1    0    0  502  503 -0.00000000000E+00 -0.00000000000E+00 -0.72015401097E+03  0.72015401097E+03  0.00000000000E+00 0.  1.
         -6    2    1    2    0  503  0.43377350091E+02  0.29136730143E+02 -0.20849341220E+03  0.27587488285E+03  0.17293612841E+03 0.  0.
        -24    2    3    3    0    0  0.73819183504E+02  0.62868749213E+01 -0.67566160213E+02  0.12982214765E+03  0.82460944481E+02 0.  0.
          6    2    1    2  501    0 -0.43377350091E+02 -0.29136730143E+02 -0.46098809780E+03  0.49495162909E+03  0.17244287542E+03 0.  0.
         24    2    5    5    0    0 -0.16878196039E+02 -0.74123208269E+02 -0.19740876129E+03  0.22620984780E+03  0.80134591155E+02 0.  0.
          5    1    5    5  501    0 -0.26499154052E+02  0.44986478126E+02 -0.26357933651E+03  0.26874178130E+03  0.47000000000E+01 0. -1.
        -11    1    6    6    0    0 -0.45592801956E+02 -0.21562663975E+02 -0.95713618848E+02  0.10818848784E+03  0.00000000000E+00 0.  1.
         12    1    6    6    0    0  0.28714605917E+02 -0.52560544294E+02 -0.10169514245E+03  0.11802135996E+03  0.00000000000E+00 0. -1.
         -5    1    3    3    0  503 -0.30441833413E+02  0.22849855222E+02 -0.14092725199E+03  0.14605273520E+03  0.47000000000E+01 0.  1.
         11    1    4    4    0    0 -0.70089270724E+01  0.21852865116E+02  0.58596531678E+00  0.22956831834E+02  0.00000000000E+00 0. -1.
        -12    1    4    4    0    0  0.80828110576E+02 -0.15565990195E+02 -0.68152125530E+02  0.10686531582E+03  0.00000000000E+00 0.  1.
</event>
<event>
12    1  0.8219652E-002  0.1757941E+03  0.7818608E-02  0.1172313E+00
         21   -1    0    0  503  502  0.00000000000E+00  0.00000000000E+00  0.13474460562E+02  0.13474460562E+02  0.00000000000E+00 0. -1.
         21   -1    0    0  501  503 -0.00000000000E+00 -0.00000000000E+00 -0.28405909217E+04  0.28405909217E+04  0.00000000000E+00 0. -1.
          6    2    1    2  501    0  0.39362291991E-01 -0.34839856500E+02 -0.20460568242E+04  0.20534670295E+04  0.17077615793E+03 0.  0.
         24    2    3    3    0    0  0.49550800219E+02  0.40559939747E+00 -0.82839203070E+03  0.83427743635E+03  0.85615640865E+02 0.  0.
         -6    2    1    2    0  502 -0.39362291991E-01  0.34839856500E+02 -0.78105963684E+03  0.80059835270E+03  0.17230713533E+03 0.  0.
        -24    2    5    5    0    0  0.28808723657E+02  0.76039911177E+02 -0.65051292700E+03  0.66061910417E+03  0.81477125287E+02 0.  0.
          5    1    3    3  501    0 -0.49511437927E+02 -0.35245455897E+02 -0.12176647935E+04  0.12191895932E+04  0.47000000000E+01 0. -1.
        -11    1    4    4    0    0  0.33926022155E+02  0.23333602142E+02 -0.15691641749E+03  0.16222883235E+03  0.00000000000E+00 0.  1.
         12    1    4    4    0    0  0.15624778064E+02 -0.22928002745E+02 -0.67147561321E+03  0.67204860400E+03  0.00000000000E+00 0. -1.
         -5    1    5    5    0  502 -0.28848085949E+02 -0.41200054677E+02 -0.13054670984E+03  0.13997924853E+03  0.47000000000E+01 0.  1.
         11    1    6    6    0    0  0.15799536652E+02  0.43056006471E+02 -0.11320565543E+03  0.12214321705E+03  0.00000000000E+00 0. -1.
        -12    1    6    6    0    0  0.13009187006E+02  0.32983904705E+02 -0.53730727157E+03  0.53847588711E+03  0.00000000000E+00 0.  1.
</event>
<event>
12    1  0.8219652E-002  0.2648205E+03  0.7818608E-02  0.1105248E+00
         21   -1    0    0  503  502  0.00000000000E+00  0.00000000000E+00  0.17213709556E+03  0.17213709556E+03  0.00000000000E+00 0.  1.
         21   -1    0    0  501  503 -0.00000000000E+00 -0.00000000000E+00 -0.51613473832E+03  0.51613473832E+03  0.00000000000E+00 0.  1.
          6    2    1    2  501    0 -0.18822734008E+03  0.43915178935E+02 -0.33864671967E+03  0.42989705034E+03  0.18102982807E+03 0.  0.
         24    2    3    3    0    0 -0.14486182298E+03  0.99970944092E+02 -0.23414930198E+03  0.30354588420E+03  0.79593157847E+02 0.  0.
         -6    2    1    2    0  502  0.18822734008E+03 -0.43915178935E+02 -0.53509230871E+01  0.25837478354E+03  0.17137917580E+03 0.  0.
        -24    2    5    5    0    0  0.61692880148E+02 -0.94985481219E+01 -0.57902472135E+02  0.11702688177E+03  0.80289232783E+02 0.  0.
          5    1    3    3  501    0 -0.43365517100E+02 -0.56055765157E+02 -0.10449741769E+03  0.12635116614E+03  0.47000000000E+01 0. -1.
        -13    1    4    4    0    0 -0.49943141690E+01  0.80254695622E+01 -0.64622701398E+02  0.65310373385E+02  0.00000000000E+00 0.  1.
         14    1    4    4    0    0 -0.13986750881E+03  0.91945474530E+02 -0.16952660058E+03  0.23823551081E+03  0.00000000000E+00 0. -1.
         -5    1    5    5    0  502  0.12653445993E+03 -0.34416630813E+02  0.52551549048E+02  0.14134790177E+03  0.47000000000E+01 0.  1.
         13    1    6    6    0    0 -0.17350775503E+02  0.26394250669E+01 -0.25016622813E+02  0.30558916738E+02  0.00000000000E+00 0. -1.
        -14    1    6    6    0    0  0.79043655650E+02 -0.12137973189E+02 -0.32885849323E+02  0.86467965036E+02  0.00000000000E+00 0.  1.
</event>
<event>
12    1  0.8219652E-002  0.2035022E+03  0.7818608E-02  0.1147300E+00
         21   -1    0    0  501  502  0.00000000000E+00  0.00000000000E+00  0.30217177825E+03  0.30217177825E+03  0.00000000000E+00 0.  1.
         21   -1    0    0  502  503 -0.00000000000E+00 -0.00000000000E+00 -0.15068451533E+03  0.15068451533E+03  0.00000000000E+00 0.  1.
         -6    2    1    2    0  503 -0.11468131636E+02  0.10563626244E+03  0.34487115442E+01  0.20120465027E+03  0.17082411918E+03 0.  0.
        -24    2    3    3    0    0  0.16154276335E+02 -0.54297613404E+01 -0.17565109227E+02  0.84747234345E+02  0.81136414234E+02 0.  0.
          6    2    1    2  501    0  0.11468131636E+02 -0.10563626244E+03  0.14803855137E+03  0.25165164331E+03  0.17355863246E+03 0.  0.
         24    2    5    5    0    0 -0.47493870818E+02 -0.98993765953E+02  0.13669812363E+03  0.19106009444E+03  0.75908821752E+02 0.  0.
          5    1    5    5  501    0  0.58962002454E+02 -0.66424964899E+01  0.11340427744E+02  0.60591548870E+02  0.47000000000E+01 0. -1.
        -13    1    6    6    0    0 -0.66712116344E+02 -0.78617155173E+02  0.91319569564E+02  0.13773317443E+03  0.00000000000E+00 0.  1.
         14    1    6    6    0    0  0.19218245526E+02 -0.20376610781E+02  0.45378554062E+02  0.53326920001E+02  0.00000000000E+00 0. -1.
         -5    1    3    3    0  503 -0.27622407971E+02  0.11106602378E+03  0.21013820771E+02  0.11645741593E+03  0.47000000000E+01 0.  1.
         13    1    4    4    0    0 -0.12550730779E+02  0.99582697361E+01  0.25887048125E+02  0.30443837469E+02  0.00000000000E+00 0. -1.
        -14    1    4    4    0    0  0.28705007113E+02 -0.15388031077E+02 -0.43452157351E+02  0.54303396876E+02  0.00000000000E+00 0.  1.
</event>
<event>
12    1  0.8219652E-002  0.2297415E+03  0.7818608E-02  0.1127307E+00
         21   -1    0    0  503  502  0.00000000000E+00  0.00000000000E+00  0.18666261838E+03  0.18666261838E+03  0.00000000000E+00 0.  1.
         21   -1    0    0  501  503 -0.00000000000E+00 -0.00000000000E+00 -0.30545639164E+03  0.30545639164E+03  0.00000000000E+00 0.  1.
          6    2    1    2  501    0  0.86018898004E+02  0.12104001748E+03  0.12788505773E+02  0.22736432374E+03  0.17170047520E+03 0.  0.
         24    2    3    3    0    0  0.99099148316E+02  0.56847923087E+02  0.54594355167E+02  0.14950845065E+03  0.79497834212E+02 0.  0.
         -6    2    1    2    0  502 -0.86018898004E+02 -0.12104001748E+03 -0.13158227903E+03  0.26475468628E+03  0.17530319766E+03 0.  0.
        -24    2    5    5    0    0 -0.10147624534E+03 -0.29531020397E+02 -0.85995994325E+02  0.16125094004E+03  0.86238304074E+02 0.  0.
          5    1    3    3  501    0 -0.13080250312E+02  0.64192094389E+02 -0.41805849394E+02  0.77855873085E+02  0.47000000000E+01 0. -1.
        -11    1    4    4    0    0  0.11066478188E+03  0.42629522951E+02  0.37326871133E+02  0.12432725157E+03  0.00000000000E+00 0.  1.
         12    1    4    4    0    0 -0.11565633564E+02  0.14218400137E+02  0.17267484034E+02  0.25181199079E+02  0.00000000000E+00 0. -1.
         -5    1    5    5    0  502  0.15457347336E+02 -0.91508997080E+02 -0.45586284708E+02  0.10350374624E+03  0.47000000000E+01 0.  1.
         11    1    6    6    0    0 -0.71512805338E+01  0.18076146070E+02  0.68342076999E+01  0.20605685257E+02  0.00000000000E+00 0. -1.
        -12    1    6    6    0    0 -0.94324964806E+02 -0.47607166467E+02 -0.92830202025E+02  0.14064525478E+03  0.00000000000E+00 0.  1.
</event>
<event>
12    1  0.8219652E-002  0.2654091E+03  0.7818608E-02  0.1103962E+00
         21   -1    0    0  503  502  0.00000000000E+00  0.00000000000E+00  0.12920287920E+03  0.12920287920E+03  0.00000000000E+00 0.  1.
         21   -1    0    0  501  503 -0.00000000000E+00 -0.00000000000E+00 -0.60753719169E+03  0.60753719169E+03  0.00000000000E+00 0.  1.
          6    2    1    2  501    0 -0.20231308741E+03 -0.10413667243E+02 -0.35742753352E+03  0.44508880285E+03  0.17120330283E+03 0.  0.
         24    2    3    3    0    0 -0.11630258275E+03 -0.59962087243E+01 -0.94455067764E+02  0.16833272144E+03  0.76497712438E+02 0.  0.
         -6    2    1    2    0  502  0.20231308741E+03  0.10413667243E+02 -0.12090677897E+03  0.29165126805E+03  0.17147298082E+03 0.  0.
        -24    2    5    5    0    0  0.19066275416E+03 -0.37965977508E+02 -0.11955099804E+03  0.24164878378E+03  0.79422870131E+02 0.  0.
          5    1    3    3  501    0 -0.86010504664E+02 -0.44174585183E+01 -0.26297246575E+03  0.27675608141E+03  0.47000000000E+01 0. -1.
        -13    1    4    4    0    0 -0.11124784985E+03 -0.19344766519E+02 -0.10201964508E+03  0.15217855325E+03  0.00000000000E+00 0.  1.
         14    1    4    4    0    0 -0.50547328968E+01  0.13348557795E+02  0.75645773152E+01  0.16154168187E+02  0.00000000000E+00 0. -1.
         -5    1    5    5    0  502  0.11650333250E+02  0.48379644750E+02 -0.13557809362E+01  0.50002484268E+02  0.47000000000E+01 0.  1.
         11    1    6    6    0    0  0.45813680681E+02 -0.26864336768E+02  0.62100120836E+00  0.53112819262E+02  0.00000000000E+00 0. -1.
        -12    1    6    6    0    0  0.14484907348E+03 -0.11101640740E+02 -0.12017199924E+03  0.18853596452E+03  0.00000000000E+00 0.  1.
</event>
<event>
12    1  0.8219652E-002  0.1946842E+03  0.7818608E-02  0.1154829E+00
         21   -1    0    0  503  502  0.00000000000E+00  0.00000000000E+00  0.78542663591E+03  0.78542663591E+03  0.00000000000E+00 0. -1.
         21   -1    0    0  501  503 -0.00000000000E+00 -0.00000000000E+00 -0.60986897180E+02  0.60986897180E+02  0.00000000000E+00 0.  1.
          6    2    1    2  501    0 -0.39268851723E+02 -0.80232451974E+02  0.16267557226E+03  0.25187093210E+03  0.17028310415E+03 0.  0.
         24    2    3    3    0    0 -0.51637560047E+02 -0.84939950800E+02  0.46124853745E+02  0.13447712699E+03  0.77944613038E+02 0.  0.
         -6    2    1    2    0  502  0.39268851723E+02  0.80232451974E+02  0.56176416647E+03  0.59454260099E+03  0.17298160769E+03 0.  0.
        -24    2    5    5    0    0  0.47343643159E+02  0.45911475729E+02  0.54559374993E+03  0.55546954073E+03  0.80774912993E+02 0.  0.
          5    1    3    3  501    0  0.12368708324E+02  0.47074988263E+01  0.11655071851E+03  0.11739380510E+03  0.47000000000E+01 0. -1.
        -13    1    4    4    0    0  0.66913874564E+01 -0.39752217315E+02 -0.10281017309E+02  0.41601836071E+02  0.00000000000E+00 0.  1.
         14    1    4    4    0    0 -0.58328947504E+02 -0.45187733485E+02  0.56405871054E+02  0.92875290922E+02  0.00000000000E+00 0. -1.
         -5    1    5    5    0  502 -0.80747914358E+01  0.34320976245E+02  0.16170416546E+02  0.39073060264E+02  0.47000000000E+01 0.  1.
         13    1    6    6    0    0 -0.23095744931E+02  0.13310461991E+02  0.14139513253E+03  0.14388594558E+03  0.00000000000E+00 0. -1.
        -14    1    6    6    0    0  0.70439388090E+02  0.32601013738E+02  0.40419861740E+03  0.41158359515E+03  0.00000000000E+00 0.  1.
</event>
<event>
12    1  0.8219652E-002  0.1976196E+03  0.7818608E-02  0.1152149E+00
         21   -1    0    0  503  502  0.00000000000E+00  0.00000000000E+00  0.25374592574E+03  0.25374592574E+03  0.00000000000E+00 0.  1.
         21   -1    0    0  501  503 -0.00000000000E+00 -0.00000000000E+00 -0.39076878180E+03  0.39076878180E+03  0.00000000000E+00 0.  1.
          6    2    1    2  501    0 -0.45268565288E+02  0.81622169431E+02 -0.32026178830E+03  0.37632579842E+03  0.17418975848E+03 0.  0.
         24    2    3    3    0    0 -0.80087917682E+02  0.90433140712E+02 -0.17426120319E+03  0.22589880160E+03  0.77917097809E+02 0.  0.
         -6    2    1    2    0  502  0.45268565288E+02 -0.81622169431E+02  0.18323893225E+03  0.26818890912E+03  0.17215505551E+03 0.  0.
        -24    2    5    5    0    0 -0.40220793510E+02 -0.25438114195E+02  0.81870900291E+02  0.12409641649E+03  0.80201411372E+02 0.  0.
          5    1    3    3  501    0  0.34819352394E+02 -0.88109712811E+01 -0.14600058512E+03  0.15042699682E+03  0.47000000000E+01 0. -1.
        -13    1    4    4    0    0  0.19787580629E+01  0.18890506617E+02 -0.78944105325E+02  0.81196911822E+02  0.00000000000E+00 0.  1.
         14    1    4    4    0    0 -0.82066675745E+02  0.71542634095E+02 -0.95317097861E+02  0.14470188978E+03  0.00000000000E+00 0. -1.
         -5    1    5    5    0  502  0.85489358798E+02 -0.56184055236E+02  0.10136803196E+03  0.14409249263E+03  0.47000000000E+01 0.  1.
         11    1    6    6    0    0  0.46827171784E+01  0.14967069362E+02 -0.65633680800E+01  0.17000553109E+02  0.00000000000E+00 0. -1.
        -12    1    6    6    0    0 -0.44903510688E+02 -0.40405183557E+02  0.88434268371E+02  0.10709586338E+03  0.00000000000E+00 0.  1.
</event>
<event>
12    1  0.8219652E-002  0.1728915E+03  0.7818608E-02  0.1175524E+00
         21   -1    0    0  503  502  0.00000000000E+00  0.00000000000E+00  0.12859925231E+03  0.12859925231E+03  0.00000000000E+00 0.  1.
         21   -1    0    0  501  503 -0.00000000000E+00 -0.00000000000E+00 -0.12134042955E+04  0.12134042955E+04  0.00000000000E+00 0.  1.
          6    2    1    2  501    0 -0.15527605558E+02 -0.58496508033E+01 -0.11460096571E+04  0.11585982840E+04  0.16951850823E+03 0.  0.
         24    2    3    3    0    0  0.26524636661E+02 -0.19869089857E+02 -0.10446996179E+04  0.10479151788E+04  0.75037278473E+02 0.  0.
         -6    2    1    2    0  502  0.15527605558E+02  0.58496508033E+01  0.61204613878E+02  0.18340526381E+03  0.17209346613E+03 0.  0.
        -24    2    5    5    0    0 -0.38040884500E+02  0.44953893129E+02  0.62698676566E+02  0.11689927071E+03  0.79160306014E+02 0.  0.
          5    1    3    3  501    0 -0.42052242220E+02  0.14019439054E+02 -0.10131003915E+03  0.11068310521E+03  0.47000000000E+01 0. -1.
        -11    1    4    4    0    0  0.41486411697E+02  0.78359545176E+01 -0.35577151728E+03  0.35826791239E+03  0.00000000000E+00 0.  1.
         12    1    4    4    0    0 -0.14961775035E+02 -0.27705044375E+02 -0.68892810066E+03  0.68964726641E+03  0.00000000000E+00 0. -1.
         -5    1    5    5    0  502  0.53568490058E+02 -0.39104242326E+02 -0.14940626882E+01  0.66505993101E+02  0.47000000000E+01 0.  1.
         11    1    6    6    0    0 -0.61506486775E+02  0.25040411608E+02  0.51900364887E+02  0.84283557141E+02  0.00000000000E+00 0. -1.
        -12    1    6    6    0    0  0.23465602275E+02  0.19913481522E+02  0.10798311679E+02  0.32615713568E+02  0.00000000000E+00 0.  1.
</event>
<event>
12    1  0.8219652E-002  0.2356615E+03  0.7818608E-02  0.1122727E+00
         21   -1    0    0  503  502  0.00000000000E+00  0.00000000000E+00  0.60415983945E+03  0.60415983945E+03  0.00000000000E+00 0.  1.
         21   -1    0    0  501  503 -0.00000000000E+00 -0.00000000000E+00 -0.12098634136E+03  0.12098634136E+03  0.00000000000E+00 0.  1.
          6    2    1    2  501    0  0.14153617185E+02  0.15838386916E+03  0.63793412955E+02  0.24408902751E+03  0.17385073749E+03 0.  0.
         24    2    3    3    0    0 -0.40519539134E+02  0.84469343190E+02 -0.18368092657E+02  0.12069893806E+03  0.73850821454E+02 0.  0.
         -6    2    1    2    0  502 -0.14153617185E+02 -0.15838386916E+03  0.41938008513E+03  0.48105715330E+03  0.17392686410E+03 0.  0.
        -24    2    5    5    0    0 -0.73669216028E+02 -0.11557118693E+03  0.23618924308E+03  0.28368439207E+03  0.76861063756E+02 0.  0.
          5    1    3    3  501    0  0.54673156318E+02  0.73914525966E+02  0.82161505612E+02  0.12339008945E+03  0.47000000000E+01 0. -1.
        -11    1    4    4    0    0 -0.29745425615E+02  0.95469565575E+02 -0.26273984890E+02  0.10339028280E+03  0.00000000000E+00 0.  1.
         12    1    4    4    0    0 -0.10774113519E+02 -0.11000222385E+02  0.79058922334E+01  0.17308655252E+02  0.00000000000E+00 0. -1.
         -5    1    5    5    0  502  0.59515598843E+02 -0.42812682229E+02  0.18319084205E+03  0.19737276123E+03  0.47000000000E+01 0.  1.
         11    1    6    6    0    0 -0.61809464873E+02 -0.45784140167E+02  0.74070218877E+02  0.10678480586E+03  0.00000000000E+00 0. -1.
        -12    1    6    6    0    0 -0.11859751155E+02 -0.69787046760E+02  0.16211902420E+03  0.17689958621E+03  0.00000000000E+00 0.  1.
</event>
<event>
12    1  0.8219652E-002  0.2111611E+03  0.7818608E-02  0.1141117E+00
         21   -1    0    0  503  502  0.00000000000E+00  0.00000000000E+00  0.12940139109E+04  0.12940139109E+04  0.00000000000E+00 0. -1.
         21   -1    0    0  501  503 -0.00000000000E+00 -0.00000000000E+00 -0.35258916297E+02  0.35258916297E+02  0.00000000000E+00 0.  1.
          6    2    1    2  501    0 -0.58903991057E+02  0.10599214272E+03  0.74783762495E+03  0.77643868749E+03  0.16997619731E+03 0.  0.
         24    2    3    3    0    0 -0.91553129146E+02  0.45515184348E+02  0.58994652943E+03  0.60417401683E+03  0.80843846759E+02 0.  0.
         -6    2    1    2    0  502  0.58903991057E+02 -0.10599214272E+03  0.51091736962E+03  0.55283413968E+03  0.17287282301E+03 0.  0.
        -24    2    5    5    0    0  0.55953632697E+02 -0.14287228449E+03  0.41453684886E+03  0.44948935629E+03  0.81587889248E+02 0.  0.
          5    1    3    3  501    0  0.32649138090E+02  0.60476958377E+02  0.15789109552E+03  0.17226467066E+03  0.47000000000E+01 0. -1.
        -11    1    4    4    0    0 -0.66861564337E+01  0.26869350118E+01  0.62298961214E+00  0.72327327940E+01  0.00000000000E+00 0.  1.
         12    1    4    4    0    0 -0.84866972713E+02  0.42828249336E+02  0.58932353982E+03  0.59694128404E+03  0.00000000000E+00 0. -1.
         -5    1    5    5    0  502  0.29503583591E+01  0.36880141764E+02  0.96380520763E+02  0.10334478339E+03  0.47000000000E+01 0.  1.
         13    1    6    6    0    0  0.15301962086E+02 -0.43625840944E+02  0.24169334486E+03  0.24607526692E+03  0.00000000000E+00 0. -1.
        -14    1    6    6    0    0  0.40651670612E+02 -0.99246443544E+02  0.17284350400E+03  0.20341408937E+03  0.00000000000E+00 0.  1.
</event>
<event>
12    1  0.8219652E-002  0.3026938E+03  0.7818608E-02  0.1084249E+00
         21   -1    0    0  501  502  0.00000000000E+00  0.00000000000E+00  0.77571581326E+03  0.77571581326E+03  0.00000000000E+00 0.  1.
         21   -1    0    0  502  503 -0.00000000000E+00 -0.00000000000E+00 -0.18136125600E+03  0.18136125600E+03  0.00000000000E+00 0. -1.
         -6    2    1    2    0  503 -0.63415729301E+02 -0.24090897912E+03  0.11277235971E+02  0.30011232715E+03  0.16697766890E+03 0.  0.
        -24    2    3    3    0    0 -0.20748412448E+02 -0.23419326435E+03 -0.18005227204E+02  0.24771811562E+03  0.75915050633E+02 0.  0.
          6    2    1    2  501    0  0.63415729301E+02  0.24090897912E+03  0.58307732128E+03  0.65696474211E+03  0.17194423176E+03 0.  0.
         24    2    5    5    0    0  0.25809271567E+02  0.16763285278E+03  0.52950259606E+03  0.55859819526E+03  0.53777808515E+02 0.  0.
          5    1    5    5  501    0  0.37606457734E+02  0.73276126347E+02  0.53574725222E+02  0.98366546846E+02  0.47000000000E+01 0. -1.
        -11    1    6    6    0    0  0.25268687002E+02  0.45996276056E+02  0.11107168660E+03  0.12284577126E+03  0.00000000000E+00 0.  1.
         12    1    6    6    0    0  0.54058456523E+00  0.12163657672E+03  0.41843090946E+03  0.43575242400E+03  0.00000000000E+00 0. -1.
         -5    1    3    3    0  503 -0.42667316853E+02 -0.67157147687E+01  0.29282463175E+02  0.52394211530E+02  0.47000000000E+01 0.  1.
         11    1    4    4    0    0  0.37415480445E+01 -0.52257460299E+02 -0.35536447539E+02  0.63306243313E+02  0.00000000000E+00 0. -1.
        -12    1    4    4    0    0 -0.24489960493E+02 -0.18193580406E+03  0.17531220336E+02  0.18441187231E+03  0.00000000000E+00 0.  1.
</event>
<event>
12    1  0.8219652E-002  0.1881711E+03  0.7818608E-02  0.1160586E+00
         21   -1    0    0  503  502  0.00000000000E+00  0.00000000000E+00  0.11345966609E+03  0.11345966609E+03  0.00000000000E+00 0.  1.
         21   -1    0    0  501  503 -0.00000000000E+00 -0.00000000000E+00 -0.37515956363E+03  0.37515956363E+03  0.00000000000E+00 0.  1.
          6    2    1    2  501    0 -0.55065599511E+02  0.49214056882E+02 -0.28631472966E+02  0.19033685674E+03  0.17307256902E+03 0.  0.
         24    2    3    3    0    0 -0.65246265202E+02  0.93493878276E+02 -0.35249013335E+02  0.14418243792E+03  0.80919108158E+02 0.  0.
         -6    2    1    2    0  502  0.55065599511E+02 -0.49214056882E+02 -0.23306842458E+03  0.29828237298E+03  0.17087199845E+03 0.  0.
        -24    2    5    5    0    0  0.31171351444E+02 -0.95897021428E+02 -0.19329609617E+03  0.23229629584E+03  0.80189128929E+02 0.  0.
          5    1    3    3  501    0  0.10180665691E+02 -0.44279821395E+02  0.66175403695E+01  0.46154418827E+02  0.47000000000E+01 0. -1.
        -13    1    4    4    0    0 -0.58376051360E+02  0.30421561165E+02  0.95476591268E+01  0.66516107454E+02  0.00000000000E+00 0.  1.
         14    1    4    4    0    0 -0.68702138417E+01  0.63072317112E+02 -0.44796672462E+02  0.77666330464E+02  0.00000000000E+00 0. -1.
         -5    1    5    5    0  502  0.23894248067E+02  0.46682964546E+02 -0.39772328407E+02  0.65986077141E+02  0.47000000000E+01 0.  1.
         11    1    6    6    0    0  0.13657514416E+02  0.36300494659E+01 -0.76744152841E+02  0.78034415192E+02  0.00000000000E+00 0. -1.
        -12    1    6    6    0    0  0.17513837028E+02 -0.99527070894E+02 -0.11655194333E+03  0.15426188065E+03  0.00000000000E+00 0.  1.
</event>
<event>
12    1  0.8219652E-002  0.2090052E+03  0.7818608E-02  0.1143619E+00
         21   -1    0    0  501  502  0.00000000000E+00  0.00000000000E+00  0.76942090887E+02  0.76942090887E+02  0.00000000000E+00 0. -1.
         21   -1    0    0  502  503 -0.00000000000E+00 -0.00000000000E+00 -0.57929148854E+03  0.57929148854E+03  0.00000000000E+00 0. -1.
         -6    2    1    2    0  503 -0.26719210562E+02  0.11833323313E+03 -0.17494787917E+03  0.26780735999E+03  0.16247261727E+03 0.  0.
        -24    2    3    3    0    0 -0.56768704910E+02  0.54622815907E+02 -0.47384964825E+02  0.12201169308E+03  0.80219576679E+02 0.  0.
          6    2    1    2  501    0  0.26719210562E+02 -0.11833323313E+03 -0.32740151849E+03  0.38842621944E+03  0.17019548573E+03 0.  0.
         24    2    5    5    0    0  0.82712983123E+01  0.11698310915E+00 -0.18909093299E+03  0.20533420089E+03  0.79613598437E+02 0.  0.
          5    1    5    5  501    0  0.18447912249E+02 -0.11845021624E+03 -0.13831058549E+03  0.18309201854E+03  0.47000000000E+01 0. -1.
        -13    1    6    6    0    0  0.26963622094E+02  0.25167134625E+02 -0.46470130314E+02  0.59328699573E+02  0.00000000000E+00 0.  1.
         14    1    6    6    0    0 -0.18692323782E+02 -0.25050151516E+02 -0.14262080268E+03  0.14600550132E+03  0.00000000000E+00 0. -1.
         -5    1    3    3    0  503  0.30049494348E+02  0.63710417228E+02 -0.12756291434E+03  0.14579566691E+03  0.47000000000E+01 0.  1.
         13    1    4    4    0    0  0.95289883901E+01 -0.13134102274E+02 -0.45151331962E+00  0.16232994997E+02  0.00000000000E+00 0. -1.
        -14    1    4    4    0    0 -0.66297693300E+02  0.67756918181E+02 -0.46933451505E+02  0.10577869808E+03  0.00000000000E+00 0.  1.
</event>
<event>
12    1  0.8219652E-002  0.2511833E+03  0.7818608E-02  0.1112577E+00
         21   -1    0    0  501  502  0.00000000000E+00  0.00000000000E+00  0.13662003444E+04  0.13662003444E+04  0.00000000000E+00 0.  1.
         21   -1    0    0  502  503 -0.00000000000E+00 -0.00000000000E+00 -0.58225888261E+02  0.58225888261E+02  0.00000000000E+00 0. -1.
         -6    2    1    2    0  503 -0.11823270674E+03  0.13979250390E+03  0.32990196518E+03  0.41464246697E+03  0.17196555381E+03 0.  0.
        -24    2    3    3    0    0 -0.11061340404E+03  0.13030493065E+03  0.16899171905E+03  0.25320435149E+03  0.79621243395E+02 0.  0.
          6    2    1    2  501    0  0.11823270674E+03 -0.13979250390E+03  0.97807249101E+03  0.10097837657E+04  0.17180377991E+03 0.  0.
         24    2    5    5    0    0  0.36044622094E+02 -0.41064598148E+02  0.65405997017E+03  0.66120338147E+03  0.80062170185E+02 0.  0.
          5    1    5    5  501    0  0.82188084646E+02 -0.98727905752E+02  0.32401252084E+03  0.34858038426E+03  0.47000000000E+01 0. -1.
        -13    1    6    6    0    0 -0.17901947102E+02  0.10195591876E+02  0.94703337261E+02  0.96918274294E+02  0.00000000000E+00 0.  1.
         14    1    6    6    0    0  0.53946569195E+02 -0.51260190024E+02  0.55935663290E+03  0.56428510718E+03  0.00000000000E+00 0. -1.
         -5    1    3    3    0  503 -0.76193026944E+01  0.94875732454E+01  0.16091024614E+03  0.16143811548E+03  0.47000000000E+01 0.  1.
         13    1    4    4    0    0 -0.90772121840E+02  0.82113096561E+02  0.15812989777E+03  0.19996800569E+03  0.00000000000E+00 0. -1.
        -14    1    4    4    0    0 -0.19841282205E+02  0.48191834094E+02  0.10861821277E+02  0.53236345801E+02  0.00000000000E+00 0.  1.
</event>
<event>
12    1  0.8219652E-002  0.2225474E+03  0.7818608E-02  0.1132326E+00
         21   -1    0    0  501  502  0.00000000000E+00  0.00000000000E+00  0.26277770030E+03  0.26277770030E+03  0.00000000000E+00 0. -1.
         21   -1    0    0  502  503 -0.00000000000E+00 -0.00000000000E+00 -0.19410482932E+03  0.19410482932E+03  0.00000000000E+00 0. -1.
         -6    2    1    2    0  503  0.10996966255E+03 -0.85653419157E+02  0.78262033264E+02  0.23590740268E+03  0.17348637380E+03 0.  0.
        -24    2    3    3    0    0  0.11013624225E+03 -0.11997270308E+03  0.82310322844E+02  0.20103162819E+03  0.84352148447E+02 0.  0.
          6    2    1    2  501    0 -0.10996966255E+03  0.85653419157E+02 -0.95891622861E+01  0.22097512694E+03  0.17119643629E+03 0.  0.
         24    2    5    5    0    0 -0.11136163684E+03  0.41310493842E+01 -0.19455746928E+02  0.13871168513E+03  0.80274066641E+02 0.  0.
          5    1    5    5  501    0  0.13919742921E+01  0.81522369773E+02  0.98665846422E+01  0.82263441809E+02  0.47000000000E+01 0. -1.
        -13    1    6    6    0    0 -0.82200497978E+02  0.30241545313E+02 -0.37907452878E+02  0.95438188973E+02  0.00000000000E+00 0.  1.
         14    1    6    6    0    0 -0.29161138863E+02 -0.26110495929E+02  0.18451705950E+02  0.43273496160E+02  0.00000000000E+00 0. -1.
         -5    1    3    3    0  503 -0.16657969784E+00  0.34319283920E+02 -0.40482895800E+01  0.34875774488E+02  0.47000000000E+01 0.  1.
         11    1    4    4    0    0  0.50195211112E+02 -0.98482884784E+02  0.20759473977E+02  0.11246952287E+03  0.00000000000E+00 0. -1.
        -12    1    4    4    0    0  0.59941031134E+02 -0.21489818293E+02  0.61550848867E+02  0.88562105327E+02  0.00000000000E+00 0.  1.
</event>
<event>
12    1  0.8219652E-002  0.1942988E+03  0.7818608E-02  0.1154721E+00
         21   -1    0    0  503  502  0.00000000000E+00  0.00000000000E+00  0.13335144663E+03  0.13335144663E+03  0.00000000000E+00 0.  1.
         21   -1    0    0  501  503 -0.00000000000E+00 -0.00000000000E+00 -0.49016666039E+03  0.49016666039E+03  0.00000000000E+00 0.  1.
          6    2    1    2  501    0  0.58054206955E+02 -0.67756041592E+02 -0.38139655301E+03  0.42803663387E+03  0.17260028147E+03 0.  0.
         24    2    3    3    0    0 -0.51557587491E+01 -0.49996343058E+02 -0.34507653028E+03  0.35285591355E+03  0.53881980365E+02 0.  0.
         -6    2    1    2    0  502 -0.58054206955E+02  0.67756041592E+02  0.24581339248E+02  0.19548147315E+03  0.17218476120E+03 0.  0.
        -24    2    5    5    0    0  0.19661730380E+02  0.12931922881E+02 -0.26241009739E+02  0.87544213300E+02  0.80134764112E+02 0.  0.
          5    1    3    3  501    0  0.63209965704E+02 -0.17759698534E+02 -0.36320022732E+02  0.75180720319E+02  0.47000000000E+01 0. -1.
        -13    1    4    4    0    0  0.13638209059E+02 -0.51635419832E+02 -0.28224565710E+03  0.28725394389E+03  0.00000000000E+00 0.  1.
         14    1    4    4    0    0 -0.18793967808E+02  0.16390767742E+01 -0.62830873178E+02  0.65601969657E+02  0.00000000000E+00 0. -1.
         -5    1    5    5    0  502 -0.77715937335E+02  0.54824118711E+02  0.50822348987E+02  0.10793725985E+03  0.47000000000E+01 0.  1.
         13    1    6    6    0    0 -0.97584541694E+01  0.39465866362E+02 -0.25361186486E+02  0.47916300102E+02  0.00000000000E+00 0. -1.
        -14    1    6    6    0    0  0.29420184549E+02 -0.26533943481E+02 -0.87982325335E+00  0.39627913199E+02  0.00000000000E+00 0.  1.
</event>
<event>
12    1  0.8219652E-002  0.1801801E+03  0.7818608E-02  0.1167817E+00
         21   -1    0    0  501  502  0.00000000000E+00  0.00000000000E+00  0.36408435972E+03  0.36408435972E+03  0.00000000000E+00 0.  1.
         21   -1    0    0  502  503 -0.00000000000E+00 -0.00000000000E+00 -0.18310275473E+03  0.18310275473E+03  0.00000000000E+00 0.  1.
         -6    2    1    2    0  503  0.52878472826E+02  0.74784234943E+01 -0.10596588477E+03  0.20836011341E+03  0.17126911110E+03 0.  0.
        -24    2    3    3    0    0 -0.35439491154E+02 -0.44162752696E+01 -0.36922052375E+02  0.95529765484E+02  0.80543386577E+02 0.  0.
          6    2    1    2  501    0 -0.52878472826E+02 -0.74784234943E+01  0.28694748975E+03  0.33882700105E+03  0.17208374431E+03 0.  0.
         24    2    5    5    0    0  0.22117703033E+02 -0.41492326249E+02  0.19576497153E+03  0.21587288926E+03  0.77886932905E+02 0.  0.
          5    1    5    5  501    0 -0.74996175859E+02  0.34013902754E+02  0.91182518225E+02  0.12295411178E+03  0.47000000000E+01 0. -1.
        -13    1    6    6    0    0  0.35235745865E+01  0.60973972993E+01  0.14024226030E+03  0.14041896384E+03  0.00000000000E+00 0.  1.
         14    1    6    6    0    0  0.18594128447E+02 -0.47589723548E+02  0.55522711228E+02  0.75453925426E+02  0.00000000000E+00 0. -1.
         -5    1    3    3    0  503  0.88317963980E+02  0.11894698764E+02 -0.69043832395E+02  0.11283034792E+03  0.47000000000E+01 0.  1.
         11    1    4    4    0    0 -0.23870356913E+02  0.56070652584E+01  0.23039028291E+02  0.33645652684E+02  0.00000000000E+00 0. -1.
        -12    1    4    4    0    0 -0.11569134241E+02 -0.10023340528E+02 -0.59961080666E+02  0.61884112800E+02  0.00000000000E+00 0.  1.
</event>
<event>
12    1  0.8219652E-002  0.2050700E+03  0.7818608E-02  0.1145617E+00
         21   -1    0    0  503  502  0.00000000000E+00  0.00000000000E+00  0.86492052364E+03  0.86492052364E+03  0.00000000000E+00 0. -1.
         21   -1    0    0  501  503 -0.00000000000E+00 -0.00000000000E+00 -0.17158063475E+03  0.17158063475E+03  0.00000000000E+00 0. -1.
          6    2    1    2  501    0 -0.79844119620E+02 -0.77061855539E+02 -0.92125778041E+02  0.22481298265E+03  0.17245319705E+03 0.  0.
         24    2    3    3    0    0 -0.20009634705E+02 -0.77461240247E+02  0.23099374224E+01  0.11291785565E+03  0.79652225902E+02 0.  0.
         -6    2    1    2    0  502  0.79844119620E+02  0.77061855539E+02  0.78546566693E+03  0.81168817573E+03  0.17195280653E+03 0.  0.
        -24    2    5    5    0    0  0.11074781041E+03  0.22316482778E+02  0.60131678829E+03  0.61704749795E+03  0.80016447840E+02 0.  0.
          5    1    3    3  501    0 -0.59834484914E+02  0.39938470779E+00 -0.94435715463E+02  0.11189512701E+03  0.47000000000E+01 0. -1.
        -11    1    4    4    0    0  0.25203574797E+02 -0.54547824372E+01  0.97492932756E+01  0.27568524686E+02  0.00000000000E+00 0.  1.
         12    1    4    4    0    0 -0.45213209502E+02 -0.72006457810E+02 -0.74393558532E+01  0.85349330960E+02  0.00000000000E+00 0. -1.
         -5    1    5    5    0  502 -0.30903690794E+02  0.54745372761E+02  0.18414887864E+03  0.19464067778E+03  0.47000000000E+01 0.  1.
         11    1    6    6    0    0  0.51510392036E+01  0.30241437380E+02  0.18193661559E+03  0.18450476914E+03  0.00000000000E+00 0. -1.
        -12    1    6    6    0    0  0.10559677121E+03 -0.79249546017E+01  0.41938017270E+03  0.43254272881E+03  0.00000000000E+00 0.  1.
</event>
<event>
12    1  0.8219652E-002  0.2723838E+03  0.7818608E-02  0.1099957E+00
         21   -1    0    0  501  502  0.00000000000E+00  0.00000000000E+00  0.29848673887E+03  0.29848673887E+03  0.00000000000E+00 0. -1.
         21   -1    0    0  502  503 -0.00000000000E+00 -0.00000000000E+00 -0.46829749577E+03  0.46829749577E+03  0.00000000000E+00 0.  1.
         -6    2    1    2    0  503  0.17820173260E+03 -0.11079561823E+03 -0.34767837380E+03  0.44167091407E+03  0.17367042987E+03 0.  0.
        -24    2    3    3    0    0  0.13321631697E+03 -0.45498275302E+01 -0.17604503167E+03  0.23480876241E+03  0.79849944839E+02 0.  0.
          6    2    1    2  501    0 -0.17820173260E+03  0.11079561823E+03  0.17786761690E+03  0.32511332057E+03  0.17329239900E+03 0.  0.
         24    2    5    5    0    0 -0.16116321442E+02  0.63898994038E+02  0.64760496416E+02  0.12192305364E+03  0.79551818695E+02 0.  0.
          5    1    5    5  501    0 -0.16208541115E+03  0.46896624192E+02  0.11310712048E+03  0.20319026692E+03  0.47000000000E+01 0. -1.
        -11    1    6    6    0    0  0.20107759155E+02  0.11785628034E+01 -0.56397844961E+01  0.20916934710E+02  0.00000000000E+00 0.  1.
         12    1    6    6    0    0 -0.36224080596E+02  0.62720431234E+02  0.70400280912E+02  0.10100611893E+03  0.00000000000E+00 0. -1.
         -5    1    3    3    0  503  0.44985415630E+02 -0.10624579070E+03 -0.17163334213E+03  0.20686215167E+03  0.47000000000E+01 0.  1.
         11    1    4    4    0    0  0.79944271490E+02 -0.41608980302E+02 -0.94374689496E+02  0.13049511793E+03  0.00000000000E+00 0. -1.
        -12    1    4    4    0    0  0.53272045475E+02  0.37059152772E+02 -0.81670342176E+02  0.10431364448E+03  0.00000000000E+00 0.  1.
</event>
<event>
12    1  0.8219652E-002  0.1894271E+03  0.7818608E-02  0.1160228E+00
         21   -1    0    0  503  502  0.00000000000E+00  0.00000000000E+00  0.33557948210E+03  0.33557948210E+03  0.00000000000E+00 0.  1.
         21   -1    0    0  501  503 -0.00000000000E+00 -0.00000000000E+00 -0.12072449626E+03  0.12072449626E+03  0.00000000000E+00 0.  1.
          6    2    1    2  501    0 -0.41181451040E+02 -0.66444834327E+02  0.23566121814E+02  0.19088735929E+03  0.17254504896E+03 0.  0.
         24    2    3    3    0    0  0.82087846498E+01 -0.66725767035E+02 -0.40226724773E+02  0.11007219004E+03  0.77317433373E+02 0.  0.
         -6    2    1    2    0  502  0.41181451040E+02  0.66444834327E+02  0.19128886403E+03  0.26541661907E+03  0.16656447478E+03 0.  0.
        -24    2    5    5    0    0  0.82815390531E+02  0.36712723638E+02  0.15702469670E+03  0.20366302414E+03  0.92820574468E+02 0.  0.
          5    1    3    3  501    0 -0.49390235690E+02  0.28093270855E+00  0.63792846587E+02  0.80815169247E+02  0.47000000000E+01 0. -1.
        -13    1    4    4    0    0 -0.50106535286E+01 -0.97779192430E+01 -0.49653907946E+02  0.50854940054E+02  0.00000000000E+00 0.  1.
         14    1    4    4    0    0  0.13219438178E+02 -0.56947847792E+02  0.94271831732E+01  0.59217249991E+02  0.00000000000E+00 0. -1.
         -5    1    5    5    0  502 -0.41633939491E+02  0.29732110689E+02  0.34264167327E+02  0.61753594925E+02  0.47000000000E+01 0.  1.
         11    1    6    6    0    0  0.28525877144E+02  0.25501111979E+02  0.12110727015E+01  0.38281837418E+02  0.00000000000E+00 0. -1.
        -12    1    6    6    0    0  0.54289513387E+02  0.11211611658E+02  0.15581362400E+03  0.16538118673E+03  0.00000000000E+00 0.  1.
</event>
<event>
12    1  0.8219652E-002  0.1937199E+03  0.7818608E-02  0.1155207E+00
         21   -1    0    0  501  502  0.00000000000E+00  0.00000000000E+00  0.14554195300E+03  0.14554195300E+03  0.00000000000E+00 0. -1.
         21   -1    0    0  502  503 -0.00000000000E+00 -0.00000000000E+00 -0.30354020456E+03  0.30354020456E+03  0.00000000000E+00 0. -1.
         -6    2    1    2    0  503 -0.34411029669E+02  0.79622311948E+02 -0.16649968067E+03  0.25543991600E+03  0.17321540204E+03 0.  0.
        -24    2    3    3    0    0  0.23684924953E+02  0.97617584750E+02 -0.13194184197E+03  0.18533068693E+03  0.82756542525E+02 0.  0.
          6    2    1    2  501    0  0.34411029669E+02 -0.79622311948E+02  0.85014291161E+01  0.19364224155E+03  0.17291966891E+03 0.  0.
         24    2    5    5    0    0 -0.32533772845E+01  0.33114418048E+01  0.49332213655E+02  0.93712976427E+02  0.79541841418E+02 0.  0.
          5    1    5    5  501    0  0.37664406954E+02 -0.82933753753E+02 -0.40830784539E+02  0.99929265127E+02  0.47000000000E+01 0. -1.
        -13    1    6    6    0    0  0.35595004336E+02 -0.96057175493E+00  0.39958451960E+02  0.53522004024E+02  0.00000000000E+00 0.  1.
         14    1    6    6    0    0 -0.38848381620E+02  0.42720135598E+01  0.93737616952E+01  0.40190972403E+02  0.00000000000E+00 0. -1.
         -5    1    3    3    0  503 -0.58095954622E+02 -0.17995272801E+02 -0.34557838695E+02  0.70109229078E+02  0.47000000000E+01 0.  1.
         13    1    4    4    0    0 -0.28190613042E+02  0.13788853125E+02 -0.27722535831E+02  0.41873405964E+02  0.00000000000E+00 0. -1.
        -14    1    4    4    0    0  0.51875537994E+02  0.83828731625E+02 -0.10421930614E+03  0.14345728096E+03  0.00000000000E+00 0.  1.
</event>
<event>
12    1  0.8219652E-002  0.1839019E+03  0.7818608E-02  0.1164288E+00
         21   -1    0    0  503  502  0.00000000000E+00  0.00000000000E+00  0.66012190753E+02  0.66012190753E+02  0.00000000000E+00 0.  1.
         21   -1    0    0  501  503 -0.00000000000E+00 -0.00000000000E+00 -0.52262804618E+03  0.52262804618E+03  0.00000000000E+00 0.  1.
          6    2    1    2  501    0  0.60656221630E+02  0.21696691784E+02 -0.18284974440E+03  0.25933361093E+03  0.17224972881E+03 0.  0.
         24    2    3    3    0    0  0.64057107398E+02  0.76494260287E+02 -0.11708366915E+03  0.17353380795E+03  0.80316324959E+02 0.  0.
         -6    2    1    2    0  502 -0.60656221630E+02 -0.21696691784E+02 -0.27376611102E+03  0.32930662600E+03  0.17130396004E+03 0.  0.
        -24    2    5    5    0    0 -0.88317604775E+02  0.13886043466E+02 -0.25009603131E+03  0.27818279751E+03  0.82733442090E+02 0.  0.
          5    1    3    3  501    0 -0.34008857675E+01 -0.54797568503E+02 -0.65766075250E+02  0.85799802982E+02  0.47000000000E+01 0. -1.
        -13    1    4    4    0    0  0.12270481041E+02  0.33802531580E+02  0.28760183031E+01  0.36075577992E+02  0.00000000000E+00 0.  1.
         14    1    4    4    0    0  0.51786626357E+02  0.42691728707E+02 -0.11995968745E+03  0.13745822996E+03  0.00000000000E+00 0. -1.
         -5    1    5    5    0  502  0.27661383145E+02 -0.35582735250E+02 -0.23670079719E+02  0.51123828488E+02  0.47000000000E+01 0.  1.
         11    1    6    6    0    0 -0.66301995945E+02 -0.16852222577E+02 -0.86541359695E+02  0.11031481773E+03  0.00000000000E+00 0. -1.
        -12    1    6    6    0    0 -0.22015608830E+02  0.30738266043E+02 -0.16355467161E+03  0.16786797979E+03  0.00000000000E+00 0.  1.
</event>
<event>
12    1  0.8219652E-002  0.1778977E+03  0.7818608E-02  0.1171156E+00
         21   -1    0    0  501  502  0.00000000000E+00  0.00000000000E+00  0.11898264605E+03  0.11898264605E+03  0.00000000000E+00 0.  1.
         21   -1    0    0  502  503 -0.00000000000E+00 -0.00000000000E+00 -0.30886855160E+03  0.30886855160E+03  0.00000000000E+00 0.  1.
         -6    2    1    2    0  503 -0.34379627107E+02 -0.25312240856E+02 -0.18273032318E+03  0.25502543155E+03  0.17269896186E+03 0.  0.
        -24    2    3    3    0    0  0.32559735619E+01 -0.56711099753E+02 -0.47068862186E+02  0.11070478584E+03  0.82542847188E+02 0.  0.
          6    2    1    2  501    0  0.34379627107E+02  0.25312240856E+02 -0.71555823730E+01  0.17282576611E+03  0.16731669007E+03 0.  0.
         24    2    5    5    0    0 -0.27670564005E+02 -0.27958681692E+02  0.11285783811E+02  0.88860348275E+02  0.78876134445E+02 0.  0.
          5    1    5    5  501    0  0.62050191112E+02  0.53270922548E+02 -0.18441366184E+02  0.83965417840E+02  0.47000000000E+01 0. -1.
        -11    1    6    6    0    0 -0.16643606011E+02  0.24860460298E+02  0.17314789814E+02  0.34566661013E+02  0.00000000000E+00 0.  1.
         12    1    6    6    0    0 -0.11026957994E+02 -0.52819141990E+02 -0.60290060030E+01  0.54293687262E+02  0.00000000000E+00 0. -1.
         -5    1    3    3    0  503 -0.37635600669E+02  0.31398858897E+02 -0.13566146099E+03  0.14432064570E+03  0.47000000000E+01 0.  1.
         13    1    4    4    0    0  0.40018563252E+01 -0.57734095016E+02  0.54883884618E+01  0.58132288698E+02  0.00000000000E+00 0. -1.
        -14    1    4    4    0    0 -0.74588276329E+00  0.10229952620E+01 -0.52557250648E+02  0.52572497145E+02  0.00000000000E+00 0.  1.
</event>
<event>
12    1  0.8219652E-002  0.1794085E+03  0.7818608E-02  0.1169049E+00
         21   -1    0    0  501  502  0.00000000000E+00  0.00000000000E+00  0.87876870099E+02  0.87876870099E+02  0.00000000000E+00 0.  1.
         21   -1    0    0  502  503 -0.00000000000E+00 -0.00000000000E+00 -0.39287242392E+03  0.39287242392E+03  0.00000000000E+00 0.  1.
         -6    2    1    2    0  503  0.42937653330E+02 -0.33133498523E+02 -0.22236726700E+03  0.28571770717E+03  0.17101443203E+03 0.  0.
        -24    2    3    3    0    0 -0.33794295092E+02 -0.45525451929E+02 -0.14912746060E+03  0.17881816714E+03  0.80760858339E+02 0.  0.
          6    2    1    2  501    0 -0.42937653330E+02  0.33133498523E+02 -0.82628286823E+02  0.19503158685E+03  0.16813213639E+03 0.  0.
         24    2    5    5    0    0  0.19330721049E+02 -0.21024977981E+02 -0.73626197089E+02  0.11188341402E+03  0.79254999584E+02 0.  0.
          5    1    5    5  501    0 -0.62268374380E+02  0.54158476504E+02 -0.90020897337E+01  0.83148172828E+02  0.47000000000E+01 0. -1.
        -11    1    6    6    0    0 -0.26682234065E+02 -0.17175730617E+02 -0.10004519274E+02  0.33272176707E+02  0.00000000000E+00 0.  1.
         12    1    6    6    0    0  0.46012955114E+02 -0.38492473635E+01 -0.63621677815E+02  0.78611237311E+02  0.00000000000E+00 0. -1.
         -5    1    3    3    0  503  0.76731948422E+02  0.12391953406E+02 -0.73239806395E+02  0.10689954003E+03  0.47000000000E+01 0.  1.
         13    1    4    4    0    0  0.76709170803E+01 -0.54938487576E+02 -0.94702542858E+02  0.10975268566E+03  0.00000000000E+00 0. -1.
        -14    1    4    4    0    0 -0.41465212172E+02  0.94130356466E+01 -0.54424917744E+02  0.69065481480E+02  0.00000000000E+00 0.  1.
</event>
<event>
12    1  0.8219652E-002  0.2232955E+03  0.7818608E-02  0.1131692E+00
         21   -1    0    0  503  502  0.00000000000E+00  0.00000000000E+00  0.16285524363E+03  0.16285524363E+03  0.00000000000E+00 0.  1.
         21   -1    0    0  501  503 -0.00000000000E+00 -0.00000000000E+00 -0.32316785843E+03  0.32316785843E+03  0.00000000000E+00 0.  1.
          6    2    1    2  501    0  0.13279545418E+03 -0.51863868004E+02 -0.13901081708E+03  0.26303023611E+03  0.17186158497E+03 0.  0.
         24    2    3    3    0    0  0.50568435792E+02 -0.65066484608E+02 -0.16830639269E+02  0.11509214944E+03  0.78562830437E+02 0.  0.
         -6    2    1    2    0  502 -0.13279545418E+03  0.51863868004E+02 -0.21301797720E+02  0.22299286596E+03  0.17013981964E+03 0.  0.
        -24    2    5    5    0    0 -0.52667868715E+02  0.97081773335E+01 -0.71115598698E+02  0.11954704934E+03  0.79786687643E+02 0.  0.
          5    1    3    3  501    0  0.82227018387E+02  0.13202616604E+02 -0.12218017781E+03  0.14793808667E+03  0.47000000000E+01 0. -1.
        -11    1    4    4    0    0  0.57663266587E+02 -0.13920061812E+02 -0.21842675527E+02  0.63213312748E+02  0.00000000000E+00 0.  1.
         12    1    4    4    0    0 -0.70948307955E+01 -0.51146422796E+02  0.50120362583E+01  0.51878836690E+02  0.00000000000E+00 0. -1.
         -5    1    5    5    0  502 -0.80127585464E+02  0.42155690670E+02  0.49813800979E+02  0.10344581662E+03  0.47000000000E+01 0.  1.
         13    1    6    6    0    0 -0.68411616862E+02 -0.82235484210E+01 -0.65422057935E+02  0.95014850075E+02  0.00000000000E+00 0. -1.
        -14    1    6    6    0    0  0.15743748147E+02  0.17931725754E+02 -0.56935407638E+01  0.24532199263E+02  0.00000000000E+00 0.  1.
</event>
<event>
12    1  0.8219652E-002  0.1990755E+03  0.7818608E-02  0.1150559E+00
         21   -1    0    0  501  502  0.00000000000E+00  0.00000000000E+00  0.14089833412E+03  0.14089833412E+03  0.00000000000E+00 0.  1.
         21   -1    0    0  502  503 -0.00000000000E+00 -0.00000000000E+00 -0.35816958114E+03  0.35816958114E+03  0.00000000000E+00 0.  1.
         -6    2    1    2    0  503 -0.25247492500E+02  0.96892885914E+02 -0.22448033249E+03  0.30003742596E+03  0.17206211111E+03 0.  0.
        -24    2    3    3    0    0 -0.47930185886E+02 -0.81373347182E+01 -0.12078574841E+03  0.15063692866E+03  0.75754658742E+02 0.  0.
          6    2    1    2  501    0  0.25247492500E+02 -0.96892885914E+02  0.72090854730E+01  0.19903048930E+03  0.17185894664E+03 0.  0.
         24    2    5    5    0    0  0.59220284939E+00 -0.73071760248E+02 -0.58841605957E+02  0.12446432288E+03  0.81787531009E+02 0.  0.
          5    1    5    5  501    0  0.24655289650E+02 -0.23821125666E+02  0.66050691430E+02  0.74566166417E+02  0.47000000000E+01 0. -1.
        -13    1    6    6    0    0 -0.12273827016E+02 -0.53804842012E+02  0.60912225744E+01  0.55522165358E+02  0.00000000000E+00 0.  1.
         14    1    6    6    0    0  0.12866029865E+02 -0.19266918236E+02 -0.64932828532E+02  0.68942157523E+02  0.00000000000E+00 0. -1.
         -5    1    3    3    0  503  0.22682693386E+02  0.10503022063E+03 -0.10369458408E+03  0.14940049730E+03  0.47000000000E+01 0.  1.
         11    1    4    4    0    0 -0.36133865566E+02 -0.21247135653E+02 -0.16788160992E+02  0.45154616195E+02  0.00000000000E+00 0. -1.
        -12    1    4    4    0    0 -0.11796320320E+02  0.13109800935E+02 -0.10399758742E+03  0.10548231246E+03  0.00000000000E+00 0.  1.
</event>
<event>
12    1  0.8219652E-002  0.1824201E+03  0.7818608E-02  0.1165521E+00
         21   -1    0    0  503  502  0.00000000000E+00  0.00000000000E+00  0.88798058491E+03  0.88798058491E+03  0.00000000000E+00 0. -1.
         21   -1    0    0  501  503 -0.00000000000E+00 -0.00000000000E+00 -0.51098665331E+02  0.51098665331E+02  0.00000000000E+00 0. -1.
          6    2    1    2  501    0  0.57875083792E+02 -0.17924392380E+02  0.17555515495E+03  0.25305434571E+03  0.17188973294E+03 0.  0.
         24    2    3    3    0    0  0.87443686497E+00  0.17348563332E+02  0.24673248037E+02  0.87885659253E+02  0.82543216826E+02 0.  0.
         -6    2    1    2    0  502 -0.57875083792E+02  0.17924392380E+02  0.66132676463E+03  0.68602490453E+03  0.17206472865E+03 0.  0.
        -24    2    5    5    0    0  0.25928469835E+01  0.29776623407E+02  0.56593347204E+03  0.57236393364E+03  0.80164877548E+02 0.  0.
          5    1    3    3  501    0  0.57000646927E+02 -0.35272955712E+02  0.15088190691E+03  0.16516868646E+03  0.47000000000E+01 0. -1.
        -13    1    4    4    0    0 -0.18962560451E+02  0.39497291960E+02  0.35347414314E+02  0.56294355576E+02  0.00000000000E+00 0.  1.
         14    1    4    4    0    0  0.19836997315E+02 -0.22148728628E+02 -0.10674166277E+02  0.31591303677E+02  0.00000000000E+00 0. -1.
         -5    1    5    5    0  502 -0.60467930776E+02 -0.11852231027E+02  0.95393292590E+02  0.11366097089E+03  0.47000000000E+01 0.  1.
         11    1    6    6    0    0  0.34664893468E+01  0.57518806171E+02  0.39876742782E+03  0.40290928396E+03  0.00000000000E+00 0. -1.
        -12    1    6    6    0    0 -0.87364236324E+00 -0.27742182764E+02  0.16716604423E+03  0.16945464968E+03  0.00000000000E+00 0.  1.
</event>
<event>
12    1  0.8219652E-002  0.1976941E+03  0.7818608E-02  0.1152340E+00
         21   -1    0    0  501  502  0.00000000000E+00  0.00000000000E+00  0.80386143848E+02  0.80386143848E+02  0.00000000000E+00 0.  1.
         21   -1    0    0  502  503 -0.00000000000E+00 -0.00000000000E+00 -0.58645735575E+03  0.58645735575E+03  0.00000000000E+00 0.  1.
         -6    2    1    2    0  503  0.37635391780E+01  0.91441056779E+02 -0.39424648812E+03  0.43971416707E+03  0.17187967953E+03 0.  0.
        -24    2    3    3    0    0  0.58509002743E+02  0.71956678631E+02 -0.33501946331E+03  0.35660798655E+03  0.79562228942E+02 0.  0.
          6    2    1    2  501    0 -0.37635391780E+01 -0.91441056779E+02 -0.11182472377E+03  0.22712933252E+03  0.17523508139E+03 0.  0.
         24    2    5    5    0    0 -0.75963310026E+01 -0.96100394745E+02 -0.14675861197E+03  0.19136809278E+03  0.76096429833E+02 0.  0.
          5    1    5    5  501    0  0.38327918246E+01  0.46593379657E+01  0.34933888192E+02  0.35761239739E+02  0.47000000000E+01 0. -1.
        -13    1    6    6    0    0  0.90510758196E+01 -0.65311956564E+02 -0.35816962029E+02  0.75036180691E+02  0.00000000000E+00 0.  1.
         14    1    6    6    0    0 -0.16647406822E+02 -0.30788438181E+02 -0.11094164994E+03  0.11633191209E+03  0.00000000000E+00 0. -1.
         -5    1    3    3    0  503 -0.54745463565E+02  0.19484378149E+02 -0.59227024812E+02  0.83106180522E+02  0.47000000000E+01 0.  1.
         11    1    4    4    0    0  0.95929130218E+01 -0.17432493479E+02 -0.44808046054E+02  0.49027306680E+02  0.00000000000E+00 0. -1.
        -12    1    4    4    0    0  0.48916089721E+02  0.89389172110E+02 -0.29021141726E+03  0.30758067987E+03  0.00000000000E+00 0.  1.
</event>
<event>
12    1  0.8219652E-002  0.1794812E+03  0.7818608E-02  0.1169573E+00
         21   -1    0    0  501  502  0.00000000000E+00  0.00000000000E+00  0.12446343532E+03  0.12446343532E+03  0.00000000000E+00 0.  1.
         21   -1    0    0  502  503 -0.00000000000E+00 -0.00000000000E+00 -0.38154118827E+03  0.38154118827E+03  0.00000000000E+00 0.  1.
         -6    2    1    2    0  503 -0.45153461590E+02 -0.26539605222E+02 -0.27502202299E+03  0.32562864276E+03  0.16629405916E+03 0.  0.
        -24    2    3    3    0    0 -0.39054191610E+02  0.53301254622E+01 -0.58349949697E+02  0.10648996936E+03  0.79885898793E+02 0.  0.
          6    2    1    2  501    0  0.45153461590E+02  0.26539605222E+02  0.17944270050E+02  0.18037598083E+03  0.17166919320E+03 0.  0.
         24    2    5    5    0    0 -0.96896369318E+01 -0.27005569041E+02  0.47290338699E+02  0.98168116928E+02  0.81101252912E+02 0.  0.
          5    1    5    5  501    0  0.54843098522E+02  0.53545174263E+02 -0.29346068648E+02  0.82207863903E+02  0.47000000000E+01 0. -1.
        -11    1    6    6    0    0  0.10410243770E+02  0.25960525535E+02  0.24220017236E+02  0.36999071560E+02  0.00000000000E+00 0.  1.
         12    1    6    6    0    0 -0.20099880702E+02 -0.52966094576E+02  0.23070321463E+02  0.61169045368E+02  0.00000000000E+00 0. -1.
         -5    1    3    3    0  503 -0.60992699804E+01 -0.31869730685E+02 -0.21667207330E+03  0.21913867339E+03  0.47000000000E+01 0.  1.
         11    1    4    4    0    0  0.15894567505E+02  0.10836620651E+02  0.74123483323E+01  0.20615832050E+02  0.00000000000E+00 0. -1.
        -12    1    4    4    0    0 -0.54948759115E+02 -0.55064951892E+01 -0.65762298029E+02  0.85874137315E+02  0.00000000000E+00 0.  1.
</event>
<event>
12    1  0.8219652E-002  0.1776378E+03  0.7818608E-02  0.1170164E+00
         21   -1    0    0  503  502  0.00000000000E+00  0.00000000000E+00  0.10135241481E+03  0.10135241481E+03  0.00000000000E+00 0.  1.
         21   -1    0    0  501  503 -0.00000000000E+00 -0.00000000000E+00 -0.37844109266E+03  0.37844109266E+03  0.00000000000E+00 0.  1.
          6    2    1    2  501    0  0.30190246725E+01 -0.39773868265E+02 -0.23992579886E+03  0.29852899926E+03  0.17310141345E+03 0.  0.
         24    2    3    3    0    0 -0.51129874619E+02 -0.44424847916E+02 -0.21390952335E+03  0.23809166397E+03  0.79639971634E+02 0.  0.
         -6    2    1    2    0  502 -0.30190246725E+01  0.39773868265E+02 -0.37162878999E+02  0.18126450820E+03  0.17287182319E+03 0.  0.
        -24    2    5    5    0    0 -0.24911997846E+01 -0.31646105278E+02 -0.59908856825E+02  0.10616084167E+03  0.81690704010E+02 0.  0.
          5    1    3    3  501    0  0.54148899291E+02  0.46509796518E+01 -0.26016275507E+02  0.60437335294E+02  0.47000000000E+01 0. -1.
        -13    1    4    4    0    0 -0.26276477309E+02 -0.63036801494E+02 -0.17781804597E+03  0.19048188647E+03  0.00000000000E+00 0.  1.
         14    1    4    4    0    0 -0.24853397310E+02  0.18611953578E+02 -0.36091477381E+02  0.47609777497E+02  0.00000000000E+00 0. -1.
         -5    1    5    5    0  502 -0.52782488785E+00  0.71419973543E+02  0.22745977826E+02  0.75103666537E+02  0.47000000000E+01 0.  1.
         13    1    6    6    0    0 -0.30291248963E+02 -0.33930745232E+02 -0.63422569679E+02  0.78046637214E+02  0.00000000000E+00 0. -1.
        -14    1    6    6    0    0  0.27800049178E+02  0.22846399541E+01  0.35137128532E+01  0.28114204453E+02  0.00000000000E+00 0.  1.
</event>
<event>
12    1  0.8219652E-002  0.2461522E+03  0.7818608E-02  0.1115773E+00
         21   -1    0    0  501  502  0.00000000000E+00  0.00000000000E+00  0.23976038995E+03  0.23976038995E+03  0.00000000000E+00 0. -1.
         21   -1    0    0  502  503 -0.00000000000E+00 -0.00000000000E+00 -0.42365930313E+03  0.42365930313E+03  0.00000000000E+00 0. -1.
         -6    2    1    2    0  503  0.17347353539E+03 -0.28534933559E+02 -0.30269418527E+03  0.39010080036E+03  0.17218465301E+03 0.  0.
        -24    2    3    3    0    0  0.12206053098E+03  0.24582317952E+02 -0.11445192408E+03  0.18780898558E+03  0.81669508135E+02 0.  0.
          6    2    1    2  501    0 -0.17347353539E+03  0.28534933559E+02  0.11879527209E+03  0.27331889271E+03  0.17228926412E+03 0.  0.
         24    2    5    5    0    0 -0.11206989325E+03 -0.23976405292E+02  0.13118635938E+03  0.19144412847E+03  0.79413251127E+02 0.  0.
          5    1    5    5  501    0 -0.61403642141E+02  0.52511338851E+02 -0.12391087287E+02  0.81874764246E+02  0.47000000000E+01 0. -1.
        -13    1    6    6    0    0 -0.58957805636E+01  0.73325755196E+01 -0.88662950872E+01  0.12928189385E+02  0.00000000000E+00 0.  1.
         14    1    6    6    0    0 -0.10617411269E+03 -0.31308980812E+02  0.14005265447E+03  0.17851593908E+03  0.00000000000E+00 0. -1.
         -5    1    3    3    0  503  0.51413004405E+02 -0.53117251511E+02 -0.18824226119E+03  0.20229181478E+03  0.47000000000E+01 0.  1.
         13    1    4    4    0    0  0.97700289290E+02  0.26706812152E+02 -0.12525008757E+03  0.16107819461E+03  0.00000000000E+00 0. -1.
        -14    1    4    4    0    0  0.24360241695E+02 -0.21244941999E+01  0.10798163491E+02  0.26730790969E+02  0.00000000000E+00 0.  1.
</event>
<event>
12    1  0.8219652E-002  0.2117018E+03  0.7818608E-02  0.1145128E+00
         21   -1    0    0  503  502  0.00000000000E+00  0.00000000000E+00  0.25037267941E+03  0.25037267941E+03  0.00000000000E+00 0.  1.
         21   -1    0    0  501  503 -0.00000000000E+00 -0.00000000000E+00 -0.18358848099E+03  0.18358848099E+03  0.00000000000E+00 0.  1.
          6    2    1    2  501    0 -0.89708707457E+02  0.35266931854E+02  0.11328065376E+03  0.24010447158E+03  0.18848406320E+03 0.  0.
         24    2    3    3    0    0 -0.12679775948E+03  0.37555459702E+02  0.12730452536E+03  0.20010954547E+03  0.79682517825E+02 0.  0.
         -6    2    1    2    0  502  0.89708707457E+02 -0.35266931854E+02 -0.46496455332E+02  0.19385668883E+03  0.16163875392E+03 0.  0.
        -24    2    5    5    0    0  0.35131929373E+01  0.20830063016E+02 -0.37410595813E+02  0.90506882827E+02  0.79659959266E+02 0.  0.
          5    1    3    3  501    0  0.37089052026E+02 -0.22885278487E+01 -0.14023871599E+02  0.39994926109E+02  0.47000000000E+01 0. -1.
        -11    1    4    4    0    0 -0.13220495697E+03  0.48341495911E+02  0.10833273414E+03  0.17762610214E+03  0.00000000000E+00 0.  1.
         12    1    4    4    0    0  0.54071974907E+01 -0.10786036209E+02  0.18971791218E+02  0.22483443326E+02  0.00000000000E+00 0. -1.
         -5    1    5    5    0  502  0.86195514519E+02 -0.56096994870E+02 -0.90858595193E+01  0.10334980600E+03  0.47000000000E+01 0.  1.
         11    1    6    6    0    0  0.42280476287E+01  0.40150542326E+02  0.79949477951E+01  0.41156550221E+02  0.00000000000E+00 0. -1.
        -12    1    6    6    0    0 -0.71485469140E+00 -0.19320479310E+02 -0.45405543608E+02  0.49350332606E+02  0.00000000000E+00 0.  1.
</event>
<event>
12    1  0.8219652E-002  0.2197969E+03  0.7818608E-02  0.1134075E+00
         21   -1    0    0  503  502  0.00000000000E+00  0.00000000000E+00  0.28187702287E+03  0.28187702287E+03  0.00000000000E+00 0.  1.
         21   -1    0    0  501  503 -0.00000000000E+00 -0.00000000000E+00 -0.18600641273E+03  0.18600641273E+03  0.00000000000E+00 0.  1.
          6    2    1    2  501    0 -0.13595393886E+03  0.10850733453E+02 -0.18042531695E+02  0.22032159624E+03  0.17208968858E+03 0.  0.
         24    2    3    3    0    0 -0.76923375740E+02  0.15803942907E+02 -0.77698234766E+02  0.13611925320E+03  0.79526505382E+02 0.  0.
         -6    2    1    2    0  502  0.13595393886E+03 -0.10850733453E+02  0.11391314183E+03  0.24756183936E+03  0.17236429015E+03 0.  0.
        -24    2    5    5    0    0  0.76152123057E+02 -0.69719014067E+02  0.42634728347E+02  0.13736005233E+03  0.79938583591E+02 0.  0.
          5    1    3    3  501    0 -0.59030563116E+02 -0.49532094538E+01  0.59655703071E+02  0.84202343047E+02  0.47000000000E+01 0. -1.
        -13    1    4    4    0    0 -0.67366754760E+02 -0.23330713657E+02 -0.53401221334E+02  0.89074644465E+02  0.00000000000E+00 0.  1.
         14    1    4    4    0    0 -0.95566209799E+01  0.39134656564E+02 -0.24297013432E+02  0.47044608731E+02  0.00000000000E+00 0. -1.
         -5    1    5    5    0  502  0.59801815799E+02  0.58868280613E+02  0.71278413485E+02  0.11020178703E+03  0.47000000000E+01 0.  1.
         13    1    6    6    0    0  0.15406904595E+02 -0.12373734292E+02 -0.23578670068E+02  0.30764194963E+02  0.00000000000E+00 0. -1.
        -14    1    6    6    0    0  0.60745218462E+02 -0.57345279775E+02  0.66213398415E+02  0.10659585737E+03  0.00000000000E+00 0.  1.
</event>
<event>
12    1  0.8219652E-002  0.1888927E+03  0.7818608E-02  0.1159584E+00
         21   -1    0    0  503  502  0.00000000000E+00  0.00000000000E+00  0.28115808359E+03  0.28115808359E+03  0.00000000000E+00 0. -1.
         21   -1    0    0  501  503 -0.00000000000E+00 -0.00000000000E+00 -0.49234040608E+03  0.49234040608E+03  0.00000000000E+00 0. -1.
          6    2    1    2  501    0  0.76662363389E+02  0.54917293945E+01 -0.43891209585E+03  0.47762471744E+03  0.17197170050E+03 0.  0.
         24    2    3    3    0    0  0.85018457072E+01 -0.49885778082E+02 -0.28239791423E+03  0.29809393024E+03  0.80935388108E+02 0.  0.
         -6    2    1    2    0  502 -0.76662363389E+02 -0.54917293945E+01  0.22772977337E+03  0.29587377223E+03  0.17254901438E+03 0.  0.
        -24    2    5    5    0    0 -0.10854131411E+03 -0.20063775492E+02  0.22131930931E+03  0.25993220749E+03  0.79992148742E+02 0.  0.
          5    1    3    3  501    0  0.68160517682E+02  0.55377507476E+02 -0.15651418162E+03  0.17953078720E+03  0.47000000000E+01 0. -1.
        -13    1    4    4    0    0 -0.76480767446E+01  0.15982378860E+02 -0.13109344470E+03  0.13228537619E+03  0.00000000000E+00 0.  1.
         14    1    4    4    0    0  0.16149922452E+02 -0.65868156942E+02 -0.15130446954E+03  0.16580855405E+03  0.00000000000E+00 0. -1.
         -5    1    5    5    0  502  0.31878950724E+02  0.14572046098E+02  0.64104640586E+01  0.35941564743E+02  0.47000000000E+01 0.  1.
         13    1    6    6    0    0 -0.45888870369E+02  0.86804290552E+01  0.16325685970E+03  0.16980559623E+03  0.00000000000E+00 0. -1.
        -14    1    6    6    0    0 -0.62652443744E+02 -0.28744204547E+02  0.58062449609E+02  0.90126611258E+02  0.00000000000E+00 0.  1.
</event>
<event>
12    1  0.8219652E-002  0.2762137E+03  0.7818608E-02  0.1097807E+00
         21   -1    0    0  501  502  0.00000000000E+00  0.00000000000E+00  0.72051161296E+03  0.72051161296E+03  0.00000000000E+00 0.  1.
         21   -1    0    0  502  503 -0.00000000000E+00 -0.00000000000E+00 -0.11972186939E+03  0.11972186939E+03  0.00000000000E+00 0. -1.
         -6    2    1    2    0  503 -0.42875438622E+02  0.21115326790E+03  0.15702678331E+03  0.31752939518E+03  0.17246304052E+03 0.  0.
        -24    2    3    3    0    0 -0.44236834893E+02  0.19795305126E+03  0.18609560874E+03  0.28523100929E+03  0.74718438154E+02 0.  0.
          6    2    1    2  501    0  0.42875438622E+02 -0.21115326790E+03  0.44376296026E+03  0.52270408717E+03  0.17282937268E+03 0.  0.
         24    2    5    5    0    0  0.54060892655E+02 -0.30653319987E+02  0.12783942549E+03  0.15865036118E+03  0.70461423873E+02 0.  0.
          5    1    5    5  501    0 -0.11185454033E+02 -0.18049994791E+03  0.31592353477E+03  0.36405372598E+03  0.47000000000E+01 0. -1.
        -11    1    6    6    0    0  0.27083772417E+02 -0.48950522835E+02  0.53187153383E+02  0.77191694495E+02  0.00000000000E+00 0.  1.
         12    1    6    6    0    0  0.26977120238E+02  0.18297202848E+02  0.74652272104E+02  0.81458666689E+02  0.00000000000E+00 0. -1.
         -5    1    3    3    0  503  0.13613962713E+01  0.13200216636E+02 -0.29068825434E+02  0.32298385891E+02  0.47000000000E+01 0.  1.
         13    1    4    4    0    0 -0.18130800196E+02  0.53164947323E+02  0.12258940543E+02  0.57493644543E+02  0.00000000000E+00 0. -1.
        -14    1    4    4    0    0 -0.26106034698E+02  0.14478810394E+03  0.17383666820E+03  0.22773736474E+03  0.00000000000E+00 0.  1.
</event>
<event>
12    1  0.8219652E-002  0.2320881E+03  0.7818608E-02  0.1125538E+00
         21   -1    0    0  501  502  0.00000000000E+00  0.00000000000E+00  0.50037390072E+02  0.50037390072E+02  0.00000000000E+00 0. -1.
         21   -1    0    0  502  503 -0.00000000000E+00 -0.00000000000E+00 -0.10727391728E+04  0.10727391728E+04  0.00000000000E+00 0. -1.
         -6    2    1    2    0  503 -0.13933962057E+03  0.64033822926E+02 -0.46791377724E+03  0.52139928997E+03  0.17145861398E+03 0.  0.
        -24    2    3    3    0    0 -0.11061327252E+03  0.28768483668E+02 -0.45210360628E+03  0.47301645488E+03  0.79271521151E+02 0.  0.
          6    2    1    2  501    0  0.13933962057E+03 -0.64033822926E+02 -0.55478800551E+03  0.60137727293E+03  0.17420973852E+03 0.  0.
         24    2    5    5    0    0  0.13108723397E+03 -0.10785561618E+03 -0.44660017633E+03  0.48426558337E+03  0.79023672950E+02 0.  0.
          5    1    5    5  501    0  0.82523866041E+01  0.43821793252E+02 -0.10818782919E+03  0.11711168956E+03  0.47000000000E+01 0. -1.
        -11    1    6    6    0    0  0.26530605263E+02 -0.22621532673E+02 -0.20151670871E+03  0.20451061255E+03  0.00000000000E+00 0.  1.
         12    1    6    6    0    0  0.10455662871E+03 -0.85234083505E+02 -0.24508346762E+03  0.27975497082E+03  0.00000000000E+00 0. -1.
         -5    1    3    3    0  503 -0.28726348052E+02  0.35265339258E+02 -0.15810170960E+02  0.48382835088E+02  0.47000000000E+01 0.  1.
         11    1    4    4    0    0 -0.10024173631E+03 -0.82912819159E+01 -0.33099978071E+03  0.34594509086E+03  0.00000000000E+00 0. -1.
        -12    1    4    4    0    0 -0.10371536214E+02  0.37059765584E+02 -0.12110382556E+03  0.12707136402E+03  0.00000000000E+00 0.  1.
</event>
<event>
12    1  0.8219652E-002  0.2238192E+03  0.7818608E-02  0.1131344E+00
         21   -1    0    0  503  502  0.00000000000E+00  0.00000000000E+00  0.27832371913E+03  0.27832371913E+03  0.00000000000E+00 0. -1.
         21   -1    0    0  501  503 -0.00000000000E+00 -0.00000000000E+00 -0.31274383306E+03  0.31274383306E+03  0.00000000000E+00 0.  1.
          6    2    1    2  501    0 -0.13089390123E+03 -0.56542638738E+02 -0.21066908557E+03  0.30737030566E+03  0.17252465855E+03 0.  0.
         24    2    3    3    0    0 -0.25572874462E+02 -0.10466162957E+02 -0.13546373871E+02  0.79126984246E+02  0.72897619409E+02 0.  0.
         -6    2    1    2    0  502  0.13089390123E+03  0.56542638738E+02  0.17624897164E+03  0.28369724654E+03  0.17055833112E+03 0.  0.
        -24    2    5    5    0    0  0.92424342001E+02  0.81506056777E+02  0.18562182774E+03  0.23665450364E+03  0.79777157603E+02 0.  0.
          5    1    3    3  501    0 -0.10532102677E+03 -0.46076475781E+02 -0.19712271170E+03  0.22824332141E+03  0.47000000000E+01 0. -1.
        -11    1    4    4    0    0  0.25898930695E+01 -0.15796199415E+02 -0.38137736862E+02  0.41360783782E+02  0.00000000000E+00 0.  1.
         12    1    4    4    0    0 -0.28162767532E+02  0.53300364587E+01  0.24591362991E+02  0.37766200463E+02  0.00000000000E+00 0. -1.
         -5    1    5    5    0  502  0.38469559233E+02 -0.24963418039E+02 -0.93728561008E+01  0.47042742897E+02  0.47000000000E+01 0.  1.
         11    1    6    6    0    0 -0.53591262937E+01  0.39870916939E+02  0.57785628499E+02  0.70410149220E+02  0.00000000000E+00 0. -1.
        -12    1    6    6    0    0  0.97783468294E+02  0.41635139838E+02  0.12783619924E+03  0.16624435442E+03  0.00000000000E+00 0.  1.
</event>
<event>
12    1  0.8219652E-002  0.1859057E+03  0.7818608E-02  0.1163630E+00
         21   -1    0    0  503  502  0.00000000000E+00  0.00000000000E+00  0.13104771648E+03  0.13104771648E+03  0.00000000000E+00 0.  1.
         21   -1    0    0  501  503 -0.00000000000E+00 -0.00000000000E+00 -0.32123831502E+03  0.32123831502E+03  0.00000000000E+00 0.  1.
          6    2    1    2  501    0  0.41138372562E+02 -0.24316146790E+02 -0.19882525293E+03  0.27219918872E+03  0.17965877782E+03 0.  0.
         24    2    3    3    0    0 -0.14081469329E+02 -0.72427826401E+02 -0.14632891264E+03  0.18196659817E+03  0.79092441877E+02 0.  0.
         -6    2    1    2    0  502 -0.41138372562E+02  0.24316146790E+02  0.86346543894E+01  0.18008684277E+03  0.17341589602E+03 0.  0.
        -24    2    5    5    0    0  0.76263964191E+01  0.74352512286E+02 -0.38573030702E+01  0.10895471524E+03  0.79182025620E+02 0.  0.
          5    1    3    3  501    0  0.55219841891E+02  0.48111679612E+02 -0.52496340291E+02  0.90232590550E+02  0.47000000000E+01 0. -1.
        -13    1    4    4    0    0  0.20324986161E+02  0.29945939234E+00 -0.62730791325E+02  0.65941996623E+02  0.00000000000E+00 0.  1.
         14    1    4    4    0    0 -0.34406455490E+02 -0.72727285794E+02 -0.83598121312E+02  0.11602460155E+03  0.00000000000E+00 0. -1.
         -5    1    5    5    0  502 -0.48764768981E+02 -0.50036365496E+02  0.12491957460E+02  0.71132127531E+02  0.47000000000E+01 0.  1.
         13    1    6    6    0    0 -0.15488509884E+02  0.13763295116E+02 -0.32113206153E+02  0.38217538387E+02  0.00000000000E+00 0. -1.
        -14    1    6    6    0    0  0.23114906303E+02  0.60589217170E+02  0.28255903083E+02  0.70737176857E+02  0.00000000000E+00 0.  1.
</event>
<event>
12    1  0.8219652E-002  0.2718412E+03  0.7818608E-02  0.1101396E+00
         21   -1    0    0  501  502  0.00000000000E+00  0.00000000000E+00  0.39873787489E+02  0.39873787489E+02  0.00000000000E+00 0. -1.
         21   -1    0    0  502  503 -0.00000000000E+00 -0.00000000000E+00 -0.19457077666E+04  0.19457077666E+04  0.00000000000E+00 0.  1.
         -6    2    1    2    0  503 -0.69483988991E+02 -0.18083841016E+03 -0.12392084208E+04  0.12686745669E+04  0.19070157621E+03 0.  0.
        -24    2    3    3    0    0  0.24889116249E+01 -0.13829877704E+03 -0.51206868409E+03  0.53672920997E+03  0.82043654215E+02 0.  0.
          6    2    1    2  501    0  0.69483988991E+02  0.18083841016E+03 -0.66662555824E+03  0.71690698713E+03  0.17898446297E+03 0.  0.
         24    2    5    5    0    0  0.30756174158E+02  0.15792900606E+03 -0.32104803267E+03  0.36838066012E+03  0.82127694899E+02 0.  0.
          5    1    5    5  501    0  0.38727814833E+02  0.22909404107E+02 -0.34557752557E+03  0.34852632701E+03  0.47000000000E+01 0. -1.
        -11    1    6    6    0    0  0.26602245137E+02  0.24398802534E+02 -0.13231051138E+03  0.13714609886E+03  0.00000000000E+00 0.  1.
         12    1    6    6    0    0  0.41539290214E+01  0.13353020352E+03 -0.18873752128E+03  0.23123456126E+03  0.00000000000E+00 0. -1.
         -5    1    3    3    0  503 -0.71972900616E+02 -0.42539633125E+02 -0.72713973676E+03  0.73194535696E+03  0.47000000000E+01 0.  1.
         11    1    4    4    0    0  0.40173032824E+02 -0.47886997109E+02 -0.21736881087E+03  0.22617744582E+03  0.00000000000E+00 0. -1.
        -12    1    4    4    0    0 -0.37684121199E+02 -0.90411779930E+02 -0.29469987323E+03  0.31055176416E+03  0.00000000000E+00 0.  1.
</event>
<event>
12    1  0.8219652E-002  0.1915004E+03  0.7818608E-02  0.1157478E+00
         21   -1    0    0  501  502  0.00000000000E+00  0.00000000000E+00  0.34217423525E+03  0.34217423525E+03  0.00000000000E+00 0.  1.
         21   -1    0    0  502  503 -0.00000000000E+00 -0.00000000000E+00 -0.18503140046E+03  0.18503140046E+03  0.00000000000E+00 0.  1.
         -6    2    1    2    0  503  0.51999697968E+02  0.62778701585E+02  0.25074310823E+03  0.31550673039E+03  0.17328374602E+03 0.  0.
        -24    2    3    3    0    0  0.91102711948E+02  0.82310132075E+02  0.17591185297E+03  0.22871773775E+03  0.79323146558E+02 0.  0.
          6    2    1    2  501    0 -0.51999697968E+02 -0.62778701585E+02 -0.93600273432E+02  0.21169890532E+03  0.17149426045E+03 0.  0.
         24    2    5    5    0    0 -0.90603368771E+02 -0.41109912671E+02 -0.25834071076E+02  0.13061790882E+03  0.80589351179E+02 0.  0.
          5    1    5    5  501    0  0.38603670803E+02 -0.21668788915E+02 -0.67766202356E+02  0.81080996505E+02  0.47000000000E+01 0. -1.
        -13    1    6    6    0    0 -0.70999127248E+02  0.75509086209E+01 -0.31128187680E+02  0.77890027342E+02  0.00000000000E+00 0.  1.
         14    1    6    6    0    0 -0.19604241522E+02 -0.48660821292E+02  0.52941166044E+01  0.52727881477E+02  0.00000000000E+00 0. -1.
         -5    1    3    3    0  503 -0.39103013981E+02 -0.19531430490E+02  0.74831255261E+02  0.86788992639E+02  0.47000000000E+01 0.  1.
         11    1    4    4    0    0  0.88608555288E+02  0.78553734706E+02  0.10681192927E+03  0.15947085483E+03  0.00000000000E+00 0. -1.
        -12    1    4    4    0    0  0.24941566603E+01  0.37563973691E+01  0.69099923699E+02  0.69246882918E+02  0.00000000000E+00 0.  1.
</event>
<event>
12    1  0.8219652E-002  0.2056296E+03  0.7818608E-02  0.1145342E+00
         21   -1    0    0  503  502  0.00000000000E+00  0.00000000000E+00  0.43687340156E+03  0.43687340156E+03  0.00000000000E+00 0. -1.
         21   -1    0    0  501  503 -0.00000000000E+00 -0.00000000000E+00 -0.18527721726E+03  0.18527721726E+03  0.00000000000E+00 0. -1.
          6    2    1    2  501    0 -0.41837404579E+02 -0.10452748038E+03 -0.89722819914E+02  0.22435172707E+03  0.17206728466E+03 0.  0.
         24    2    3    3    0    0  0.47231178543E+00 -0.51042978419E+02  0.18958871172E+02  0.95959733450E+02  0.79014067883E+02 0.  0.
         -6    2    1    2    0  502  0.41837404579E+02  0.10452748038E+03  0.34131900422E+03  0.39779889175E+03  0.17049613797E+03 0.  0.
        -24    2    5    5    0    0  0.70438548125E+01  0.13312307239E+03  0.22767667441E+03  0.27546750530E+03  0.79210542931E+02 0.  0.
          5    1    3    3  501    0 -0.42309716365E+02 -0.53484501964E+02 -0.10868169109E+03  0.12839199362E+03  0.47000000000E+01 0. -1.
        -13    1    4    4    0    0 -0.12711747741E+02 -0.69240599969E+02  0.76771999963E+01  0.70815172206E+02  0.00000000000E+00 0.  1.
         14    1    4    4    0    0  0.13184059526E+02  0.18197621550E+02  0.11281671175E+02  0.25144561245E+02  0.00000000000E+00 0. -1.
         -5    1    5    5    0  502  0.34793549767E+02 -0.28595592007E+02  0.11364232980E+03  0.12233138645E+03  0.47000000000E+01 0.  1.
         11    1    6    6    0    0  0.42985668100E+02  0.78771250323E+02  0.13821051132E+03  0.16478720514E+03  0.00000000000E+00 0. -1.
        -12    1    6    6    0    0 -0.35941813288E+02  0.54351822067E+02  0.89466163097E+02  0.11068030016E+03  0.00000000000E+00 0.  1.
</event>
<event>
12    1  0.8219652E-002  0.1718931E+03  0.7818608E-02  0.1176310E+00
         21   -1    0    0  503  502  0.00000000000E+00  0.00000000000E+00  0.73599947322E+03  0.73599947322E+03  0.00000000000E+00 0. -1.
         21   -1    0    0  501  503 -0.00000000000E+00 -0.00000000000E+00 -0.26882387995E+03  0.26882387995E+03  0.00000000000E+00 0. -1.
          6    2    1    2  501    0 -0.15468228478E+01  0.15374375603E+02 -0.23001313483E+03  0.28714680316E+03  0.17119719706E+03 0.  0.
         24    2    3    3    0    0 -0.32747995799E+02  0.68434281731E+02 -0.11736555918E+03  0.15869279141E+03  0.75186737000E+02 0.  0.
         -6    2    1    2    0  502  0.15468228478E+01 -0.15374375603E+02  0.69718872810E+03  0.71767655001E+03  0.16955454505E+03 0.  0.
        -24    2    5    5    0    0 -0.36472946392E+02  0.42178844234E+02  0.32788855847E+03  0.34196045871E+03  0.79477781972E+02 0.  0.
          5    1    3    3  501    0  0.31201172952E+02 -0.53059906127E+02 -0.11264757565E+03  0.12845401174E+03  0.47000000000E+01 0. -1.
        -11    1    4    4    0    0  0.17983670946E+02  0.29575992478E+02 -0.14360130420E+02  0.37474859539E+02  0.00000000000E+00 0.  1.
         12    1    4    4    0    0 -0.50731666746E+02  0.38858289253E+02 -0.10300542876E+03  0.12121793188E+03  0.00000000000E+00 0. -1.
         -5    1    5    5    0  502  0.38019769240E+02 -0.57553219838E+02  0.36930016964E+03  0.37571609130E+03  0.47000000000E+01 0.  1.
         11    1    6    6    0    0  0.10874959747E+02  0.11541075497E+02  0.21677469540E+03  0.21735392736E+03  0.00000000000E+00 0. -1.
        -12    1    6    6    0    0 -0.47347906139E+02  0.30637768737E+02  0.11111386306E+03  0.12460653134E+03  0.00000000000E+00 0.  1.
</event>
<event>
12    1  0.8219652E-002  0.2100462E+03  0.7818608E-02  0.1141706E+00
         21   -1    0    0  503  502  0.00000000000E+00  0.00000000000E+00  0.48006101793E+03  0.48006101793E+03  0.00000000000E+00 0. -1.
         21   -1    0    0  501  503 -0.00000000000E+00 -0.00000000000E+00 -0.99517761582E+02  0.99517761582E+02  0.00000000000E+00 0. -1.
          6    2    1    2  501    0  0.74087282844E+02  0.95763733744E+02  0.10846539975E+03  0.23639826617E+03  0.17163851295E+03 0.  0.
         24    2    3    3    0    0  0.36736114596E+02  0.17020595032E+02  0.11752062459E+03  0.14865045275E+03  0.81526787802E+02 0.  0.
         -6    2    1    2    0  502 -0.74087282844E+02 -0.95763733744E+02  0.27207785659E+03  0.34318051333E+03  0.17054878042E+03 0.  0.
        -24    2    5    5    0    0 -0.54992548398E+02 -0.13335746738E+03  0.19815672353E+03  0.25794952363E+03  0.80395741024E+02 0.  0.
          5    1    3    3  501    0  0.37351168248E+02  0.78743138712E+02 -0.90552248369E+01  0.87747813423E+02  0.47000000000E+01 0. -1.
        -11    1    4    4    0    0  0.35231322543E+02 -0.26250635257E+02  0.37922115964E+02  0.58038166914E+02  0.00000000000E+00 0.  1.
         12    1    4    4    0    0  0.15047920524E+01  0.43271230289E+02  0.79598508622E+02  0.90612285838E+02  0.00000000000E+00 0. -1.
         -5    1    5    5    0  502 -0.19094734445E+02  0.37593733638E+02  0.73921133062E+02  0.85230989702E+02  0.47000000000E+01 0.  1.
         11    1    6    6    0    0  0.17769656806E+02 -0.54752443073E+02  0.78667910209E+02  0.97479386653E+02  0.00000000000E+00 0. -1.
        -12    1    6    6    0    0 -0.72762205204E+02 -0.78605024309E+02  0.11948881332E+03  0.16047013698E+03  0.00000000000E+00 0.  1.
</event>
<event>
12    1  0.8219652E-002  0.2411829E+03  0.7818608E-02  0.1119570E+00
         21   -1    0    0  501  502  0.00000000000E+00  0.00000000000E+00  0.42605619846E+02  0.42605619846E+02  0.00000000000E+00 0.  1.
         21   -1    0    0  502  503 -0.00000000000E+00 -0.00000000000E+00 -0.14852602709E+04  0.14852602709E+04  0.00000000000E+00 0.  1.
         -6    2    1    2    0  503 -0.16367525417E+03  0.22219883743E+02 -0.95964319956E+03  0.98948687511E+03  0.17574382917E+03 0.  0.
        -24    2    3    3    0    0 -0.61819641589E+02 -0.53595127915E+02 -0.48357774227E+03  0.49675683601E+03  0.78903836920E+02 0.  0.
          6    2    1    2  501    0  0.16367525417E+03 -0.22219883743E+02 -0.48301145155E+03  0.53837901569E+03  0.17108065394E+03 0.  0.
         24    2    5    5    0    0  0.17568165110E+03 -0.24228411845E+02 -0.48739765360E+03  0.52461251573E+03  0.78808378054E+02 0.  0.
          5    1    5    5  501    0 -0.12006396939E+02  0.20085281024E+01  0.43862020562E+01  0.13766499957E+02  0.47000000000E+01 0. -1.
        -13    1    6    6    0    0  0.25381966343E+02 -0.34024410847E+02 -0.13063424675E+03  0.13735796727E+03  0.00000000000E+00 0.  1.
         14    1    6    6    0    0  0.15029968476E+03  0.97959990016E+01 -0.35676340686E+03  0.38725454847E+03  0.00000000000E+00 0. -1.
         -5    1    3    3    0  503 -0.10185561258E+03  0.75815011658E+02 -0.47606545729E+03  0.49273003910E+03  0.47000000000E+01 0.  1.
         13    1    4    4    0    0 -0.14109174447E+01  0.12532866883E+02 -0.17471585447E+03  0.17517046910E+03  0.00000000000E+00 0. -1.
        -14    1    4    4    0    0 -0.60408724144E+02 -0.66127994798E+02 -0.30886188780E+03  0.32158636691E+03  0.00000000000E+00 0.  1.
</event>
<event>
12    1  0.8219652E-002  0.2765596E+03  0.7818608E-02  0.1097728E+00
         21   -1    0    0  501  502  0.00000000000E+00  0.00000000000E+00  0.29397239091E+04  0.29397239091E+04  0.00000000000E+00 0. -1.
         21   -1    0    0  502  503 -0.00000000000E+00 -0.00000000000E+00 -0.79427362108E+02  0.79427362108E+02  0.00000000000E+00 0.  1.
         -6    2    1    2    0  503 -0.17202960113E+03  0.13138696946E+03  0.19201334495E+03  0.33668136767E+03  0.17212930978E+03 0.  0.
        -24    2    3    3    0    0 -0.12866702291E+03  0.15885732764E+02  0.11138649169E+03  0.18922415918E+03  0.81186652817E+02 0.  0.
          6    2    1    2  501    0  0.17202960113E+03 -0.13138696946E+03  0.26682832020E+04  0.26824699035E+04  0.17044887124E+03 0.  0.
         24    2    5    5    0    0  0.19513078335E+03 -0.94291382579E+02  0.23093610932E+04  0.23208666438E+04  0.79413049517E+02 0.  0.
          5    1    5    5  501    0 -0.23101182221E+02 -0.37095586880E+02  0.35892210885E+03  0.36160325967E+03  0.47000000000E+01 0. -1.
        -11    1    6    6    0    0  0.17942480234E+02 -0.33033327483E+02  0.22790972979E+03  0.23098913017E+03  0.00000000000E+00 0.  1.
         12    1    6    6    0    0  0.17718830312E+03 -0.61258055096E+02  0.20814513634E+04  0.20898775137E+04  0.00000000000E+00 0. -1.
         -5    1    3    3    0  503 -0.43362578217E+02  0.11550123669E+03  0.80626853258E+02  0.14745720848E+03  0.47000000000E+01 0.  1.
         13    1    4    4    0    0  0.89328831355E+01 -0.62709963307E+01  0.19316310664E+02  0.22186519641E+02  0.00000000000E+00 0. -1.
        -14    1    4    4    0    0 -0.13759990605E+03  0.22156729095E+02  0.92070181028E+02  0.16703763954E+03  0.00000000000E+00 0.  1.
</event>
<event>
12    1  0.8219652E-002  0.2271595E+03  0.7818608E-02  0.1128684E+00
         21   -1    0    0  503  502  0.00000000000E+00  0.00000000000E+00  0.91218346681E+02  0.91218346681E+02  0.00000000000E+00 0. -1.
         21   -1    0    0  501  503 -0.00000000000E+00 -0.00000000000E+00 -0.76352692884E+03  0.76352692884E+03  0.00000000000E+00 0.  1.
          6    2    1    2  501    0  0.12121368283E+03 -0.85620577442E+02 -0.55383124027E+03  0.59854551988E+03  0.17176744886E+03 0.  0.
         24    2    3    3    0    0  0.52196488732E+02 -0.77632892729E+02 -0.48604375335E+03  0.50136316772E+03  0.79844575964E+02 0.  0.
         -6    2    1    2    0  502 -0.12121368283E+03  0.85620577442E+02 -0.11847734190E+03  0.25619975565E+03  0.17198195854E+03 0.  0.
        -24    2    5    5    0    0 -0.73465586810E+02  0.82966013705E+02 -0.94183086380E+01  0.13702387672E+03  0.80039280224E+02 0.  0.
          5    1    3    3  501    0  0.69017194095E+02 -0.79876847135E+01 -0.67787486917E+02  0.97182352155E+02  0.47000000000E+01 0. -1.
        -11    1    4    4    0    0 -0.24869971738E+01  0.99206354518E+01 -0.10175088262E+02  0.14426939518E+02  0.00000000000E+00 0.  1.
         12    1    4    4    0    0  0.54683485906E+02 -0.87553528180E+02 -0.47586866509E+03  0.48693622821E+03  0.00000000000E+00 0. -1.
         -5    1    5    5    0  502 -0.47748096017E+02  0.26545637375E+01 -0.10905903326E+03  0.11917587892E+03  0.47000000000E+01 0.  1.
         13    1    6    6    0    0 -0.52179539802E+02  0.29392407962E+02  0.30202971176E+02  0.67073373910E+02  0.00000000000E+00 0. -1.
        -14    1    6    6    0    0 -0.21286047008E+02  0.53573605743E+02 -0.39621279814E+02  0.69950502812E+02  0.00000000000E+00 0.  1.
</event>
<event>
12    1  0.8219652E-002  0.2397245E+03  0.7818608E-02  0.1120183E+00
         21   -1    0    0  501  502  0.00000000000E+00  0.00000000000E+00  0.20756736600E+04  0.20756736600E+04  0.00000000000E+00 0. -1.
         21   -1    0    0  502  503 -0.00000000000E+00 -0.00000000000E+00 -0.29519479910E+02  0.29519479910E+02  0.00000000000E+00 0.  1.
         -6    2    1    2    0  503 -0.15197326881E+03  0.64979477762E+02  0.74828715706E+03  0.78537245611E+03  0.17192445563E+03 0.  0.
        -24    2    3    3    0    0 -0.95490787594E+02  0.93748444664E+02  0.64986043039E+03  0.66820661355E+03  0.79210087855E+02 0.  0.
          6    2    1    2  501    0  0.15197326881E+03 -0.64979477762E+02  0.12978670230E+04  0.13198206838E+04  0.17363646199E+03 0.  0.
         24    2    5    5    0    0  0.10706604821E+03 -0.11654959084E+02  0.46383266037E+03  0.48286454943E+03  0.80115288908E+02 0.  0.
          5    1    5    5  501    0  0.44907220598E+02 -0.53324518678E+02  0.83403436265E+03  0.83695613435E+03  0.47000000000E+01 0. -1.
        -11    1    6    6    0    0  0.25643691256E+02 -0.38549310456E+02  0.12343835749E+03  0.13183579308E+03  0.00000000000E+00 0.  1.
         12    1    6    6    0    0  0.81422356952E+02  0.26894351372E+02  0.34039430288E+03  0.35102875635E+03  0.00000000000E+00 0. -1.
         -5    1    3    3    0  503 -0.56482481212E+02 -0.28768966902E+02  0.98426726666E+02  0.11716584256E+03  0.47000000000E+01 0.  1.
         11    1    4    4    0    0 -0.47193699671E+02  0.18704794771E+02  0.39341606765E+03  0.39667785031E+03  0.00000000000E+00 0. -1.
        -12    1    4    4    0    0 -0.48297087922E+02  0.75043649893E+02  0.25644436274E+03  0.27152876325E+03  0.00000000000E+00 0.  1.
</event>
<event>
12    1  0.8219652E-002  0.1802248E+03  0.7818608E-02  0.1168212E+00
         21   -1    0    0  503  502  0.00000000000E+00  0.00000000000E+00  0.39354239303E+02  0.39354239303E+02  0.00000000000E+00 0.  1.
         21   -1    0    0  501  503 -0.00000000000E+00 -0.00000000000E+00 -0.12480436981E+04  0.12480436981E+04  0.00000000000E+00 0.  1.
          6    2    1    2  501    0 -0.41443086992E+02  0.12210619968E+02 -0.98128515405E+03  0.99723642217E+03  0.17231743803E+03 0.  0.
         24    2    3    3    0    0 -0.60425333316E+02  0.66971590784E+02 -0.67645108730E+03  0.68690597273E+03  0.78213342746E+02 0.  0.
         -6    2    1    2    0  502  0.41443086992E+02 -0.12210619968E+02 -0.22740430471E+03  0.29016151519E+03  0.17496959278E+03 0.  0.
        -24    2    5    5    0    0  0.28930926098E+02  0.26485499830E+01 -0.24706182603E+03  0.26212836970E+03  0.82630037023E+02 0.  0.
          5    1    3    3  501    0  0.18982246324E+02 -0.54760970816E+02 -0.30483406675E+03  0.31033044944E+03  0.47000000000E+01 0. -1.
        -11    1    4    4    0    0 -0.88433927360E+01  0.83390600712E+01 -0.38446687242E+03  0.38465896780E+03  0.00000000000E+00 0.  1.
         12    1    4    4    0    0 -0.51581940580E+02  0.58632530713E+02 -0.29198421488E+03  0.30224700494E+03  0.00000000000E+00 0. -1.
         -5    1    5    5    0  502  0.12512160895E+02 -0.14859169951E+02  0.19657521319E+02  0.28033145494E+02  0.47000000000E+01 0.  1.
         13    1    6    6    0    0 -0.50180451507E+01  0.36193825243E+02 -0.72892108402E+02  0.81537925103E+02  0.00000000000E+00 0. -1.
        -14    1    6    6    0    0  0.33948971249E+02 -0.33545275260E+02 -0.17416971762E+03  0.18059044459E+03  0.00000000000E+00 0.  1.
</event>
<event>
12    1  0.8219652E-002  0.2655858E+03  0.7818608E-02  0.1103844E+00
         21   -1    0    0  501  502  0.00000000000E+00  0.00000000000E+00  0.48116354656E+03  0.48116354656E+03  0.00000000000E+00 0. -1.
         21   -1    0    0  502  503 -0.00000000000E+00 -0.00000000000E+00 -0.16239677583E+03  0.16239677583E+03  0.00000000000E+00 0.  1.
         -6    2    1    2    0  503 -0.10730070784E+03 -0.17216273900E+03  0.58897294505E+02  0.27203804117E+03  0.17141281731E+03 0.  0.
        -24    2    3    3    0    0 -0.11187358732E+03 -0.19189008385E+03  0.73718525172E+02  0.24650691820E+03  0.77419222057E+02 0.  0.
          6    2    1    2  501    0  0.10730070784E+03  0.17216273900E+03  0.25986947622E+03  0.37152228122E+03  0.17129859944E+03 0.  0.
         24    2    5    5    0    0 -0.25326953260E+01  0.89074144231E+02  0.16618258283E+03  0.20488970630E+03  0.80140646337E+02 0.  0.
          5    1    5    5  501    0  0.10983340317E+03  0.83088594768E+02  0.93686893395E+02  0.16663257492E+03  0.47000000000E+01 0. -1.
        -13    1    6    6    0    0 -0.13462487967E+01  0.71417026582E+02  0.49576709767E+02  0.86948572289E+02  0.00000000000E+00 0.  1.
         14    1    6    6    0    0 -0.11864465293E+01  0.17657117649E+02  0.11660587306E+03  0.11794113401E+03  0.00000000000E+00 0. -1.
         -5    1    3    3    0  503  0.45728794813E+01  0.19727344852E+02 -0.14821230667E+02  0.25531122971E+02  0.47000000000E+01 0.  1.
         13    1    4    4    0    0 -0.62393839082E+02 -0.81540773543E+02 -0.40012598796E+01  0.10275163739E+03  0.00000000000E+00 0. -1.
        -14    1    4    4    0    0 -0.49479748240E+02 -0.11034931031E+03  0.77719785052E+02  0.14375528081E+03  0.00000000000E+00 0.  1.
</event>
<event>
12    1  0.8219652E-002  0.1856869E+03  0.7818608E-02  0.1163244E+00
         21   -1    0    0  501  502  0.00000000000E+00  0.00000000000E+00  0.59138767890E+02  0.59138767890E+02  0.00000000000E+00 0. -1.
         21   -1    0    0  502  503 -0.00000000000E+00 -0.00000000000E+00 -0.63499346460E+03  0.63499346460E+03  0.00000000000E+00 0. -1.
         -6    2    1    2    0  503 -0.82616170257E+01  0.60844682913E+02 -0.39479533299E+03  0.43478285477E+03  0.17147141479E+03 0.  0.
        -24    2    3    3    0    0 -0.35896199977E+02  0.92827985588E+02 -0.21068862688E+03  0.24582791024E+03  0.78333210552E+02 0.  0.
          6    2    1    2  501    0  0.82616170257E+01 -0.60844682913E+02 -0.18105936371E+03  0.25934937772E+03  0.17524062537E+03 0.  0.
         24    2    5    5    0    0 -0.68187667343E+02 -0.14752832769E+02 -0.12111986300E+03  0.15172138194E+03  0.59009765906E+02 0.  0.
          5    1    5    5  501    0  0.76449284368E+02 -0.46091850144E+02 -0.59939500714E+02  0.10762799578E+03  0.47000000000E+01 0. -1.
        -11    1    6    6    0    0 -0.44610066407E+02  0.13859742006E+02 -0.96511975546E+02  0.10722272099E+03  0.00000000000E+00 0.  1.
         12    1    6    6    0    0 -0.23577600936E+02 -0.28612574774E+02 -0.24607887453E+02  0.44498660946E+02  0.00000000000E+00 0. -1.
         -5    1    3    3    0  503  0.27634582952E+02 -0.31983302675E+02 -0.18410670611E+03  0.18895494453E+03  0.47000000000E+01 0.  1.
         13    1    4    4    0    0  0.19807609667E+02  0.55866446381E+02 -0.87849126563E+02  0.10597580040E+03  0.00000000000E+00 0. -1.
        -14    1    4    4    0    0 -0.55703809644E+02  0.36961539207E+02 -0.12283950032E+03  0.13985210984E+03  0.00000000000E+00 0.  1.
</event>
<event>
12    1  0.8219652E-002  0.2821291E+03  0.7818608E-02  0.1095038E+00
         21   -1    0    0  503  502  0.00000000000E+00  0.00000000000E+00  0.30552637210E+03  0.30552637210E+03  0.00000000000E+00 0.  1.
         21   -1    0    0  501  503 -0.00000000000E+00 -0.00000000000E+00 -0.46714860573E+03  0.46714860573E+03  0.00000000000E+00 0. -1.
          6    2    1    2  501    0 -0.20037257847E+03 -0.97026874123E+02  0.17794862413E+03  0.33356042822E+03  0.17330165014E+03 0.  0.
         24    2    3    3    0    0 -0.10369874046E+03 -0.68078678826E+02  0.17942875308E+03  0.23252523758E+03  0.80530574300E+02 0.  0.
         -6    2    1    2    0  502  0.20037257847E+03  0.97026874123E+02 -0.33957085776E+03  0.43911454961E+03  0.16718204370E+03 0.  0.
        -24    2    5    5    0    0  0.22116163494E+03  0.10085139285E+03 -0.32756259391E+03  0.41435368910E+03  0.72857769200E+02 0.  0.
          5    1    3    3  501    0 -0.96673838007E+02 -0.28948195297E+02 -0.14801289465E+01  0.10103519064E+03  0.47000000000E+01 0. -1.
        -11    1    4    4    0    0 -0.11009466698E+03 -0.46468705825E+02  0.17066900807E+03  0.20834607420E+03  0.00000000000E+00 0.  1.
         12    1    4    4    0    0  0.63959265238E+01 -0.21609973001E+02  0.87597450114E+01  0.24179163382E+02  0.00000000000E+00 0. -1.
         -5    1    5    5    0  502 -0.20789056473E+02 -0.38245187232E+01 -0.12008263851E+02  0.24760860510E+02  0.47000000000E+01 0.  1.
         11    1    6    6    0    0  0.12334197034E+03  0.95019361488E+02 -0.20553710209E+03  0.25785154845E+03  0.00000000000E+00 0. -1.
        -12    1    6    6    0    0  0.97819664605E+02  0.58320313583E+01 -0.12202549182E+03  0.15650214065E+03  0.00000000000E+00 0.  1.
</event>
<event>
12    1  0.8219652E-002  0.1758277E+03  0.7818608E-02  0.1172067E+00
         21   -1    0    0  501  502  0.00000000000E+00  0.00000000000E+00  0.43655541389E+02  0.43655541389E+02  0.00000000000E+00 0.  1.
         21   -1    0    0  502  503 -0.00000000000E+00 -0.00000000000E+00 -0.80631619251E+03  0.80631619251E+03  0.00000000000E+00 0.  1.
         -6    2    1    2    0  503 -0.16252569143E+02  0.34233375688E+02 -0.23046205621E+03  0.28948022013E+03  0.17102622161E+03 0.  0.
        -24    2    3    3    0    0 -0.77023838475E+02  0.19425124722E+02 -0.15412131293E+03  0.19067520732E+03  0.79332518055E+02 0.  0.
          6    2    1    2  501    0  0.16252569143E+02 -0.34233375688E+02 -0.53219859491E+03  0.56049151377E+03  0.17169543549E+03 0.  0.
         24    2    5    5    0    0 -0.34443017763E+01  0.28016147188E+02 -0.14806611123E+03  0.17082136500E+03  0.80371622656E+02 0.  0.
          5    1    5    5  501    0  0.19696870919E+02 -0.62249522877E+02 -0.38413248368E+03  0.38967014876E+03  0.47000000000E+01 0. -1.
        -11    1    6    6    0    0 -0.34434561380E+02  0.11291999859E+02 -0.28283563455E+02  0.45969644766E+02  0.00000000000E+00 0.  1.
         12    1    6    6    0    0  0.30990259604E+02  0.16724147330E+02 -0.11978254777E+03  0.12485172023E+03  0.00000000000E+00 0. -1.
         -5    1    3    3    0  503  0.60771269332E+02  0.14808250966E+02 -0.76340743283E+02  0.98805012818E+02  0.47000000000E+01 0.  1.
         11    1    4    4    0    0 -0.54588192760E+02  0.20804577792E+02 -0.32211487966E+02  0.66710427992E+02  0.00000000000E+00 0. -1.
        -12    1    4    4    0    0 -0.22435645715E+02 -0.13794530700E+01 -0.12190982497E+03  0.12396477932E+03  0.00000000000E+00 0.  1.
</event>
<event>
12    1  0.8219652E-002  0.2279613E+03  0.7818608E-02  0.1128332E+00
         21   -1    0    0  501  502  0.00000000000E+00  0.00000000000E+00  0.64803344634E+02  0.64803344634E+02  0.00000000000E+00 0. -1.
         21   -1    0    0  502  503 -0.00000000000E+00 -0.00000000000E+00 -0.79738935045E+03  0.79738935045E+03  0.00000000000E+00 0. -1.
         -6    2    1    2    0  503 -0.14815170395E+03  0.18889665744E+02 -0.37460213480E+03  0.43778865537E+03  0.17037136062E+03 0.  0.
        -24    2    3    3    0    0 -0.10257098514E+03  0.60063578647E+02 -0.16202813952E+03  0.21646832982E+03  0.80479682826E+02 0.  0.
          6    2    1    2  501    0  0.14815170395E+03 -0.18889665744E+02 -0.35798387102E+03  0.42440403971E+03  0.17222250191E+03 0.  0.
         24    2    5    5    0    0  0.13015138902E+02 -0.18216656960E+02 -0.20108347210E+03  0.21727565119E+03  0.79201675594E+02 0.  0.
          5    1    5    5  501    0  0.13513656504E+03 -0.67300878393E+00 -0.15690039891E+03  0.20712838852E+03  0.47000000000E+01 0. -1.
        -11    1    6    6    0    0 -0.18060883070E+02  0.22057482368E+02 -0.10183203477E+03  0.10574729940E+03  0.00000000000E+00 0.  1.
         12    1    6    6    0    0  0.31076021972E+02 -0.40274139329E+02 -0.99251437335E+02  0.11152835179E+03  0.00000000000E+00 0. -1.
         -5    1    3    3    0  503 -0.45580718808E+02 -0.41173912903E+02 -0.21257399528E+03  0.22132032555E+03  0.47000000000E+01 0.  1.
         13    1    4    4    0    0 -0.17225892784E+02  0.38291931650E+02 -0.10081057064E+03  0.10920519477E+03  0.00000000000E+00 0. -1.
        -14    1    4    4    0    0 -0.85345092354E+02  0.21771646998E+02 -0.61217568879E+02  0.10726313505E+03  0.00000000000E+00 0.  1.
</event>
<event>
12    1  0.8219652E-002  0.1821328E+03  0.7818608E-02  0.1166114E+00
         21   -1    0    0  501  502  0.00000000000E+00  0.00000000000E+00  0.32079164337E+03  0.32079164337E+03  0.00000000000E+00 0.  1.
         21   -1    0    0  502  503 -0.00000000000E+00 -0.00000000000E+00 -0.11495782297E+03  0.11495782297E+03  0.00000000000E+00 0.  1.
         -6    2    1    2    0  503  0.51280196981E+02 -0.34801897488E+01  0.31739504453E+02  0.18487762153E+03  0.17472998735E+03 0.  0.
        -24    2    3    3    0    0  0.68440465700E+02 -0.52646653335E+02  0.34042556901E+02  0.13254015871E+03  0.94616227669E+02 0.  0.
          6    2    1    2  501    0 -0.51280196981E+02  0.34801897488E+01  0.17409431595E+03  0.25087184481E+03  0.17316489641E+03 0.  0.
         24    2    5    5    0    0 -0.39126157743E+02 -0.68430142374E+02  0.10225789692E+03  0.14839561520E+03  0.73150806714E+02 0.  0.
          5    1    5    5  501    0 -0.12154039237E+02  0.71910332123E+02  0.71836419022E+02  0.10247622960E+03  0.47000000000E+01 0. -1.
        -11    1    6    6    0    0 -0.15482279143E+02  0.82574954477E+01  0.49088494981E+02  0.52130293861E+02  0.00000000000E+00 0.  1.
         12    1    6    6    0    0 -0.23643878601E+02 -0.76687637822E+02  0.53169401942E+02  0.96265321341E+02  0.00000000000E+00 0. -1.
         -5    1    3    3    0  503 -0.17160268720E+02  0.49166463586E+02 -0.23030524478E+01  0.52337462822E+02  0.47000000000E+01 0.  1.
         11    1    4    4    0    0  0.23536613233E+02  0.17356349879E+02  0.39553755963E+02  0.49190595182E+02  0.00000000000E+00 0. -1.
        -12    1    4    4    0    0  0.44903852467E+02 -0.70003003214E+02 -0.55111990616E+01  0.83349563529E+02  0.00000000000E+00 0.  1.
</event>
<event>
12    1  0.8219652E-002  0.2016777E+03  0.7818608E-02  0.1148395E+00
         21   -1    0    0  503  502  0.00000000000E+00  0.00000000000E+00  0.23682563858E+04  0.23682563858E+04  0.00000000000E+00 0. -1.
         21   -1    0    0  501  503 -0.00000000000E+00 -0.00000000000E+00 -0.19039791759E+02  0.19039791759E+02  0.00000000000E+00 0. -1.
          6    2    1    2  501    0 -0.66588726076E+02  0.81418517608E+02  0.79759736820E+03  0.82262492756E+03  0.17171830486E+03 0.  0.
         24    2    3    3    0    0  0.23627569978E+02  0.55220723011E+02  0.52451329112E+03  0.53379572600E+03  0.78842210912E+02 0.  0.
         -6    2    1    2    0  502  0.66588726076E+02 -0.81418517608E+02  0.15516192258E+04  0.15646712500E+04  0.17207807863E+03 0.  0.
        -24    2    5    5    0    0  0.26658987815E+02 -0.32442074082E+02  0.36273091868E+03  0.37409551830E+03  0.81305274400E+02 0.  0.
          5    1    3    3  501    0 -0.90216296054E+02  0.26197794596E+02  0.27308407708E+03  0.28882920155E+03  0.47000000000E+01 0. -1.
        -13    1    4    4    0    0  0.14328752364E+02 -0.16538326151E+02  0.64124262767E+02  0.67755076944E+02  0.00000000000E+00 0.  1.
         14    1    4    4    0    0  0.92988176144E+01  0.71759049162E+02  0.46038902835E+03  0.46604064906E+03  0.00000000000E+00 0. -1.
         -5    1    5    5    0  502  0.39929738262E+02 -0.48976443526E+02  0.11888883071E+04  0.11905757317E+04  0.47000000000E+01 0.  1.
         11    1    6    6    0    0  0.55852109718E+02 -0.16488783652E+02  0.23275457021E+03  0.23992921477E+03  0.00000000000E+00 0. -1.
        -12    1    6    6    0    0 -0.29193121903E+02 -0.15953290431E+02  0.12997634847E+03  0.13416630353E+03  0.00000000000E+00 0.  1.
</event>
<event>
12    1  0.8219652E-002  0.2049732E+03  0.7818608E-02  0.1146798E+00
         21   -1    0    0  501  502  0.00000000000E+00  0.00000000000E+00  0.36959665426E+03  0.36959665426E+03  0.00000000000E+00 0.  1.
         21   -1    0    0  502  503 -0.00000000000E+00 -0.00000000000E+00 -0.11505876433E+03  0.11505876433E+03  0.00000000000E+00 0. -1.
         -6    2    1    2    0  503 -0.10177640516E+02  0.10228845289E+03  0.80880018208E+02  0.22035334071E+03  0.17733444521E+03 0.  0.
        -24    2    3    3    0    0  0.33167175881E+02 -0.16512479212E+01  0.57450345799E+02  0.10523047564E+03  0.81670818507E+02 0.  0.
          6    2    1    2  501    0  0.10177640516E+02 -0.10228845289E+03  0.17365787172E+03  0.26430207788E+03  0.17068104758E+03 0.  0.
         24    2    5    5    0    0 -0.44924107478E+02 -0.10945805072E+03  0.11302610576E+03  0.18192546222E+03  0.79515614323E+02 0.  0.
          5    1    5    5  501    0  0.55101747994E+02  0.71695978282E+01  0.60631765957E+02  0.82376615663E+02  0.47000000000E+01 0. -1.
        -11    1    6    6    0    0  0.18162377730E+02 -0.20897216856E+02  0.47483221407E+02  0.54965643381E+02  0.00000000000E+00 0.  1.
         12    1    6    6    0    0 -0.63086485208E+02 -0.88560833861E+02  0.65542884353E+02  0.12695981884E+03  0.00000000000E+00 0. -1.
         -5    1    3    3    0  503 -0.43344816397E+02  0.10393970081E+03  0.23429672409E+02  0.11512286507E+03  0.47000000000E+01 0.  1.
         13    1    4    4    0    0  0.13391109094E+02 -0.33042082116E+02 -0.13791296218E+01  0.35679167477E+02  0.00000000000E+00 0. -1.
        -14    1    4    4    0    0  0.19776066787E+02  0.31390834195E+02  0.58829475421E+02  0.69551308164E+02  0.00000000000E+00 0.  1.
</event>
<event>
12    1  0.8219652E-002  0.2070817E+03  0.7818608E-02  0.1144021E+00
         21   -1    0    0  501  502  0.00000000000E+00  0.00000000000E+00  0.23560469951E+03  0.23560469951E+03  0.00000000000E+00 0.  1.
         21   -1    0    0  502  503 -0.00000000000E+00 -0.00000000000E+00 -0.18160480338E+03  0.18160480338E+03  0.00000000000E+00 0.  1.
         -6    2    1    2    0  503  0.11444393476E+03 -0.18689444476E+01  0.21519746697E+02  0.20819683126E+03  0.17257437206E+03 0.  0.
        -24    2    3    3    0    0  0.82365018520E+02 -0.33623023339E+02 -0.43976021376E+02  0.12851518953E+03  0.81656350092E+02 0.  0.
          6    2    1    2  501    0 -0.11444393476E+03  0.18689444476E+01  0.32480149428E+02  0.20901267163E+03  0.17184420164E+03 0.  0.
         24    2    5    5    0    0 -0.90637838016E+02  0.48879325708E+02  0.67811610479E+02  0.14539578450E+03  0.77052666869E+02 0.  0.
          5    1    5    5  501    0 -0.23806096746E+02 -0.47010381260E+02 -0.35331461051E+02  0.63616887133E+02  0.47000000000E+01 0. -1.
        -13    1    6    6    0    0 -0.51286334121E+02  0.66655729464E+01  0.70718492640E+02  0.87611775074E+02  0.00000000000E+00 0.  1.
         14    1    6    6    0    0 -0.39351503895E+02  0.42213752761E+02 -0.29068821615E+01  0.57784009422E+02  0.00000000000E+00 0. -1.
         -5    1    3    3    0  503  0.32078916242E+02  0.31754078891E+02  0.65495768073E+02  0.79681641731E+02  0.47000000000E+01 0.  1.
         11    1    4    4    0    0 -0.56337335077E+01 -0.14218463142E+01 -0.33757966135E+02  0.34254355603E+02  0.00000000000E+00 0. -1.
        -12    1    4    4    0    0  0.87998752028E+02 -0.32201177025E+02 -0.10218055241E+02  0.94260833930E+02  0.00000000000E+00 0.  1.
</event>
<event>
12    1  0.8219652E-002  0.1989912E+03  0.7818608E-02  0.1150780E+00
         21   -1    0    0  501  502  0.00000000000E+00  0.00000000000E+00  0.12471282795E+03  0.12471282795E+03  0.00000000000E+00 0. -1.
         21   -1    0    0  502  503 -0.00000000000E+00 -0.00000000000E+00 -0.63456206059E+03  0.63456206059E+03  0.00000000000E+00 0. -1.
         -6    2    1    2    0  503  0.59324449122E+01  0.98685428993E+02 -0.52414562194E+03  0.56064796755E+03  0.17269482541E+03 0.  0.
        -24    2    3    3    0    0  0.31552512003E+02 -0.71426657028E+01 -0.19993259100E+03  0.21860681082E+03  0.82275865892E+02 0.  0.
          6    2    1    2  501    0 -0.59324449122E+01 -0.98685428993E+02  0.14296389302E+02  0.19862692099E+03  0.17168068964E+03 0.  0.
         24    2    5    5    0    0  0.35288859312E+02 -0.11056449931E+03  0.49623175185E+02  0.14285613980E+03  0.66899963103E+02 0.  0.
          5    1    5    5  501    0 -0.41221304224E+02  0.11879070318E+02 -0.35326785883E+02  0.55770781189E+02  0.47000000000E+01 0. -1.
        -13    1    6    6    0    0 -0.10416042677E+02 -0.67024502939E+02  0.10623006610E+02  0.68655853419E+02  0.00000000000E+00 0.  1.
         14    1    6    6    0    0  0.45704901989E+02 -0.43539996372E+02  0.39000168575E+02  0.74200286379E+02  0.00000000000E+00 0. -1.
         -5    1    3    3    0  503 -0.25620067091E+02  0.10582809470E+03 -0.32421303094E+03  0.34204115673E+03  0.47000000000E+01 0.  1.
         13    1    4    4    0    0  0.50446053739E+02  0.22793305213E+01 -0.18733458458E+03  0.19402125210E+03  0.00000000000E+00 0. -1.
        -14    1    4    4    0    0 -0.18893541736E+02 -0.94219962241E+01 -0.12598006417E+02  0.24585558726E+02  0.00000000000E+00 0.  1.
</event>
<event>
12    1  0.8219652E-002  0.1791787E+03  0.7818608E-02  0.1169993E+00
         21   -1    0    0  503  502  0.00000000000E+00  0.00000000000E+00  0.89615365589E+02  0.89615365589E+02  0.00000000000E+00 0. -1.
         21   -1    0    0  501  503 -0.00000000000E+00 -0.00000000000E+00 -0.10730604355E+04  0.10730604355E+04  0.00000000000E+00 0. -1.
          6    2    1    2  501    0 -0.47531094959E+02  0.15198088301E+02 -0.97240263543E+03  0.98877292916E+03  0.17208960795E+03 0.  0.
         24    2    3    3    0    0 -0.50837094186E+01  0.37023564476E+02 -0.87778729957E+03  0.88269614692E+03  0.85119657395E+02 0.  0.
         -6    2    1    2    0  502  0.47531094959E+02 -0.15198088301E+02 -0.11042434477E+02  0.17390287193E+03  0.16622300271E+03 0.  0.
        -24    2    5    5    0    0 -0.51971244287E+01 -0.60570270122E+02 -0.26739297845E+02  0.10243692534E+03  0.77990806496E+02 0.  0.
          5    1    3    3  501    0 -0.42447385540E+02 -0.21825476175E+02 -0.94615335860E+02  0.10607678224E+03  0.47000000000E+01 0. -1.
        -13    1    4    4    0    0 -0.75822219187E+01 -0.78945748056E+01 -0.14157966502E+02  0.17895877069E+02  0.00000000000E+00 0.  1.
         14    1    4    4    0    0  0.24985125001E+01  0.44918139281E+02 -0.86362933307E+03  0.86480026986E+03  0.00000000000E+00 0. -1.
         -5    1    5    5    0  502  0.52728219387E+02  0.45372181821E+02  0.15696863368E+02  0.71465946594E+02  0.47000000000E+01 0.  1.
         11    1    6    6    0    0 -0.14897608164E+02 -0.18920989600E+02  0.25401350115E+02  0.35002445116E+02  0.00000000000E+00 0. -1.
        -12    1    6    6    0    0  0.97004837353E+01 -0.41649280522E+02 -0.52140647960E+02  0.67434480219E+02  0.00000000000E+00 0.  1.
</event>
<event>
12    1  0.8219652E-002  0.2298160E+03  0.7818608E-02  0.1127010E+00
         21   -1    0    0  503  502  0.00000000000E+00  0.00000000000E+00  0.77726884679E+02  0.77726884679E+02  0.00000000000E+00 0.  1.
         21   -1    0    0  501  503 -0.00000000000E+00 -0.00000000000E+00 -0.23397736121E+04  0.23397736121E+04  0.00000000000E+00 0. -1.
          6    2    1    2  501    0  0.14132928226E+03  0.54842623837E+02 -0.21494985048E+04  0.21616050208E+04  0.17091156962E+03 0.  0.
         24    2    3    3    0    0  0.88603789224E+02  0.10027486100E+03 -0.16273573305E+04  0.16348246476E+04  0.80337213796E+02 0.  0.
         -6    2    1    2    0  502 -0.14132928226E+03 -0.54842623837E+02 -0.11254822261E+03  0.25589547591E+03  0.17272438382E+03 0.  0.
        -24    2    5    5    0    0 -0.10123859274E+02 -0.26869362524E+02 -0.10070827398E+02  0.87013644743E+02  0.81519921724E+02 0.  0.
          5    1    3    3  501    0  0.52725493039E+02 -0.45432237159E+02 -0.52214117425E+03  0.52678037324E+03  0.47000000000E+01 0. -1.
        -13    1    4    4    0    0  0.17604553307E+02  0.22103742204E+02 -0.10275968705E+03  0.10657414789E+03  0.00000000000E+00 0.  1.
         14    1    4    4    0    0  0.70999235918E+02  0.78171118792E+02 -0.15245976435E+04  0.15282504997E+04  0.00000000000E+00 0. -1.
         -5    1    5    5    0  502 -0.13120542299E+03 -0.27973261313E+02 -0.10247739521E+03  0.16888183117E+03  0.47000000000E+01 0.  1.
         13    1    6    6    0    0 -0.98123055067E+01 -0.11680035882E+01 -0.43634055795E+02  0.44738980731E+02  0.00000000000E+00 0. -1.
        -14    1    6    6    0    0 -0.31155376748E+00 -0.25701358935E+02  0.33563228397E+02  0.42274664012E+02  0.00000000000E+00 0.  1.
</event>
<event>
12    1  0.8219652E-002  0.2766298E+03  0.7818608E-02  0.1097727E+00
         21   -1    0    0  503  502  0.00000000000E+00  0.00000000000E+00  0.11550144154E+04  0.11550144154E+04  0.00000000000E+00 0.  1.
         21   -1    0    0  501  503 -0.00000000000E+00 -0.00000000000E+00 -0.83599655845E+02  0.83599655845E+02  0.00000000000E+00 0. -1.
          6    2    1    2  501    0  0.78256546956E+02  0.19946902535E+03  0.25004362837E+03  0.37191078735E+03  0.17286942600E+03 0.  0.
         24    2    3    3    0    0  0.10661682863E+03  0.20292157725E+03  0.23945618810E+03  0.34108207374E+03  0.80333058864E+02 0.  0.
         -6    2    1    2    0  502 -0.78256546956E+02 -0.19946902535E+03  0.82137113117E+03  0.86670328388E+03  0.17496304737E+03 0.  0.
        -24    2    5    5    0    0  0.23087208418E+02 -0.54703220639E+02  0.29798659443E+03  0.31427124438E+03  0.80280402593E+02 0.  0.
          5    1    3    3  501    0 -0.28360281679E+02 -0.34525518984E+01  0.10587440272E+02  0.30828713613E+02  0.47000000000E+01 0. -1.
        -13    1    4    4    0    0  0.95268749263E+02  0.12329670512E+03  0.11819336978E+03  0.19557066431E+03  0.00000000000E+00 0.  1.
         14    1    4    4    0    0  0.11348079371E+02  0.79624872137E+02  0.12126281832E+03  0.14551140943E+03  0.00000000000E+00 0. -1.
         -5    1    5    5    0  502 -0.10134375537E+03 -0.14476580471E+03  0.52338453674E+03  0.55243203950E+03  0.47000000000E+01 0.  1.
         13    1    6    6    0    0  0.94536015556E+01 -0.39817948776E+02  0.28949358366E+03  0.29237197986E+03  0.00000000000E+00 0. -1.
        -14    1    6    6    0    0  0.13633606863E+02 -0.14885271863E+02  0.84930107765E+01  0.21899264521E+02  0.00000000000E+00 0.  1.
</event>
<event>
12    1  0.8219652E-002  0.2117874E+03  0.7818608E-02  0.1141245E+00
         21   -1    0    0  501  502  0.00000000000E+00  0.00000000000E+00  0.95533237126E+03  0.95533237126E+03  0.00000000000E+00 0. -1.
         21   -1    0    0  502  503 -0.00000000000E+00 -0.00000000000E+00 -0.52432945833E+02  0.52432945833E+02  0.00000000000E+00 0. -1.
         -6    2    1    2    0  503 -0.10311862182E+03  0.45531869333E+02  0.63654442494E+03  0.67085221311E+03  0.17929664141E+03 0.  0.
        -24    2    3    3    0    0 -0.60091436454E+02 -0.23868724232E+02  0.18250296197E+03  0.20950253969E+03  0.80020536597E+02 0.  0.
          6    2    1    2  501    0  0.10311862182E+03 -0.45531869333E+02  0.26635500049E+03  0.33691310399E+03  0.17279714135E+03 0.  0.
         24    2    5    5    0    0  0.63913519071E+02 -0.35161191853E+01  0.51758737727E+02  0.11470597239E+03  0.79882364486E+02 0.  0.
          5    1    5    5  501    0  0.39205102753E+02 -0.42015750148E+02  0.21459626276E+03  0.22220713160E+03  0.47000000000E+01 0. -1.
        -13    1    6    6    0    0  0.47359941376E+02  0.85283803014E+01  0.71553056962E+02  0.86229561510E+02  0.00000000000E+00 0.  1.
         14    1    6    6    0    0  0.16553577696E+02 -0.12044499487E+02 -0.19794319235E+02  0.28476410876E+02  0.00000000000E+00 0. -1.
         -5    1    3    3    0  503 -0.43027185371E+02  0.69400593565E+02  0.45404146297E+03  0.46134967342E+03  0.47000000000E+01 0.  1.
         13    1    4    4    0    0 -0.11883666274E+02  0.51830408269E+01  0.13565157475E+03  0.13626971478E+03  0.00000000000E+00 0. -1.
        -14    1    4    4    0    0 -0.48207770180E+02 -0.29051765059E+02  0.46851387220E+02  0.73232824903E+02  0.00000000000E+00 0.  1.
</event>
<event>
12    1  0.8219652E-002  0.1941363E+03  0.7818608E-02  0.1155873E+00
         21   -1    0    0  501  502  0.00000000000E+00  0.00000000000E+00  0.40806446939E+02  0.40806446939E+02  0.00000000000E+00 0. -1.
         21   -1    0    0  502  503 -0.00000000000E+00 -0.00000000000E+00 -0.15242283126E+04  0.15242283126E+04  0.00000000000E+00 0.  1.
         -6    2    1    2    0  503  0.48027101910E+02  0.67545732159E+02 -0.12366869835E+04  0.12510809114E+04  0.17011679351E+03 0.  0.
        -24    2    3    3    0    0  0.36684252174E+02  0.10903973558E+03 -0.87135046075E+03  0.88319060524E+03  0.86825235092E+02 0.  0.
          6    2    1    2  501    0 -0.48027101910E+02 -0.67545732159E+02 -0.24673488224E+03  0.31395384814E+03  0.17555594038E+03 0.  0.
         24    2    5    5    0    0 -0.26125715258E+02  0.11071223097E+02 -0.44618468567E+02  0.95932218332E+02  0.80044099085E+02 0.  0.
          5    1    5    5  501    0 -0.21901386651E+02 -0.78616955256E+02 -0.20211641367E+03  0.21802162981E+03  0.47000000000E+01 0. -1.
        -11    1    6    6    0    0 -0.25592651943E+02 -0.30331367886E+02 -0.36121830265E+02  0.53663417083E+02  0.00000000000E+00 0.  1.
         12    1    6    6    0    0 -0.53306331565E+00  0.41402590983E+02 -0.84966383013E+01  0.42268801249E+02  0.00000000000E+00 0. -1.
         -5    1    3    3    0  503  0.11342849736E+02 -0.41494003418E+02 -0.36533652271E+03  0.36789030619E+03  0.47000000000E+01 0.  1.
         11    1    4    4    0    0  0.41584189680E+02  0.43275145359E+02 -0.20556437427E+03  0.21414643356E+03  0.00000000000E+00 0. -1.
        -12    1    4    4    0    0 -0.48999375058E+01  0.65764590219E+02 -0.66578608648E+03  0.66904417168E+03  0.00000000000E+00 0.  1.
</event>
<event>
12    1  0.8219652E-002  0.1855121E+03  0.7818608E-02  0.1162919E+00
         21   -1    0    0  503  502  0.00000000000E+00  0.00000000000E+00  0.15200765863E+03  0.15200765863E+03  0.00000000000E+00 0.  1.
         21   -1    0    0  501  503 -0.00000000000E+00 -0.00000000000E+00 -0.22515517655E+03  0.22515517655E+03  0.00000000000E+00 0.  1.
          6    2    1    2  501    0 -0.15202285575E+02  0.65958183275E+02 -0.46104835973E+02  0.19115542781E+03  0.17272275546E+03 0.  0.
         24    2    3    3    0    0  0.20095947795E+02  0.77045811661E+02  0.21312721976E+02  0.11410922153E+03  0.78909936693E+02 0.  0.
         -6    2    1    2    0  502  0.15202285575E+02 -0.65958183275E+02 -0.27042681941E+02  0.18600740736E+03  0.17113111207E+03 0.  0.
        -24    2    5    5    0    0  0.44673291581E+02 -0.85007349128E+02 -0.59197285484E+02  0.13818043335E+03  0.79796999721E+02 0.  0.
          5    1    3    3  501    0 -0.35298233370E+02 -0.11087628386E+02 -0.67417557949E+02  0.77046206279E+02  0.47000000000E+01 0. -1.
        -13    1    4    4    0    0  0.55616796427E+01  0.82823431842E+02  0.37950848590E+02  0.91273873870E+02  0.00000000000E+00 0.  1.
         14    1    4    4    0    0  0.14534268152E+02 -0.57776201813E+01 -0.16638126615E+02  0.22835347664E+02  0.00000000000E+00 0. -1.
         -5    1    5    5    0  502 -0.29471006006E+02  0.19049165853E+02  0.32154603543E+02  0.47826974018E+02  0.47000000000E+01 0.  1.
         13    1    6    6    0    0  0.13820189157E+02 -0.28605597322E+02 -0.66282016521E+02  0.73502268948E+02  0.00000000000E+00 0. -1.
        -14    1    6    6    0    0  0.30853102424E+02 -0.56401751806E+02  0.70847310366E+01  0.64678164397E+02  0.00000000000E+00 0.  1.
</event>
<event>
12    1  0.8219652E-002  0.1733320E+03  0.7818608E-02  0.1174698E+00
         21   -1    0    0  501  502  0.00000000000E+00  0.00000000000E+00  0.71620152161E+03  0.71620152161E+03  0.00000000000E+00 0.  1.
         21   -1    0    0  502  503 -0.00000000000E+00 -0.00000000000E+00 -0.57596863956E+02  0.57596863956E+02  0.00000000000E+00 0.  1.
         -6    2    1    2    0  503  0.26367629610E+02 -0.32488107530E+00  0.12669190211E+03  0.21469705670E+03  0.17131442045E+03 0.  0.
        -24    2    3    3    0    0  0.58622002851E+02 -0.41785277541E+02  0.12055521729E+03  0.16160225499E+03  0.79994873350E+02 0.  0.
          6    2    1    2  501    0 -0.26367629610E+02  0.32488107530E+00  0.53191275554E+03  0.55910132887E+03  0.17019917449E+03 0.  0.
         24    2    5    5    0    0 -0.41629654889E+02  0.54329740432E+02  0.43243761673E+03  0.44479101660E+03  0.78434732246E+02 0.  0.
          5    1    5    5  501    0  0.15262025279E+02 -0.54004859357E+02  0.99475138815E+02  0.11431031227E+03  0.47000000000E+01 0. -1.
        -11    1    6    6    0    0 -0.29381162050E+02  0.10170259691E+02  0.45257829862E+02  0.54908633469E+02  0.00000000000E+00 0.  1.
         12    1    6    6    0    0 -0.12248492839E+02  0.44159480741E+02  0.38717978687E+03  0.38988238313E+03  0.00000000000E+00 0. -1.
         -5    1    3    3    0  503 -0.32254373241E+02  0.41460396466E+02  0.61366848193E+01  0.53094801712E+02  0.47000000000E+01 0.  1.
         11    1    4    4    0    0 -0.29167956276E+01  0.13747133942E+02  0.52514324755E+02  0.54362171525E+02  0.00000000000E+00 0. -1.
        -12    1    4    4    0    0  0.61538798479E+02 -0.55532411483E+02  0.68040892537E+02  0.10724008346E+03  0.00000000000E+00 0.  1.
</event>
<event>
12    1  0.8219652E-002  0.2799498E+03  0.7818608E-02  0.1096250E+00
         21   -1    0    0  501  502  0.00000000000E+00  0.00000000000E+00  0.25521503794E+03  0.25521503794E+03  0.00000000000E+00 0. -1.
         21   -1    0    0  502  503 -0.00000000000E+00 -0.00000000000E+00 -0.38323425080E+03  0.38323425080E+03  0.00000000000E+00 0.  1.
         -6    2    1    2    0  503 -0.21525045694E+03  0.17699353727E+02 -0.21056997231E+03  0.35030213692E+03  0.17811751054E+03 0.  0.
        -24    2    3    3    0    0 -0.22778375808E+02  0.19006112945E+01 -0.64550247223E+02  0.10814732613E+03  0.83705692788E+02 0.  0.
          6    2    1    2  501    0  0.21525045694E+03 -0.17699353727E+02  0.82550759449E+02  0.28814715181E+03  0.17195385100E+03 0.  0.
         24    2    5    5    0    0  0.20219338859E+03 -0.14528677732E+02  0.13860332773E+02  0.21799727699E+03  0.78977560640E+02 0.  0.
          5    1    5    5  501    0  0.13057068348E+02 -0.31706759942E+01  0.68690426676E+02  0.70149874818E+02  0.47000000000E+01 0. -1.
        -13    1    6    6    0    0 -0.14597581093E+01  0.69887922272E+01 -0.94985776507E+01  0.11882638088E+02  0.00000000000E+00 0.  1.
         14    1    6    6    0    0  0.20365314670E+03 -0.21517469960E+02  0.23358910424E+02  0.20611463890E+03  0.00000000000E+00 0. -1.
         -5    1    3    3    0  503 -0.19247208113E+03  0.15798742432E+02 -0.14601972509E+03  0.24215481079E+03  0.47000000000E+01 0.  1.
         13    1    4    4    0    0  0.78890249559E+01  0.37643264033E+02 -0.20141277700E+02  0.43415701183E+02  0.00000000000E+00 0. -1.
        -14    1    4    4    0    0 -0.30667400764E+02 -0.35742652738E+02 -0.44408969523E+02  0.64731624948E+02  0.00000000000E+00 0.  1.
</event>
<event>
12    1  0.8219652E-002  0.2056087E+03  0.7818608E-02  0.1145219E+00
         21   -1    0    0  503  502  0.00000000000E+00  0.00000000000E+00  0.11552004501E+04  0.11552004501E+04  0.00000000000E+00 0.  1.
         21   -1    0    0  501  503 -0.00000000000E+00 -0.00000000000E+00 -0.69743938818E+02  0.69743938818E+02  0.00000000000E+00 0.  1.
          6    2    1    2  501    0 -0.48200535337E+02 -0.10163855360E+03  0.11933793927E+03  0.23718933998E+03  0.17135796469E+03 0.  0.
         24    2    3    3    0    0 -0.25913703441E+02 -0.13802775214E+03  0.87497442513E+02  0.18374044962E+03  0.79884729421E+02 0.  0.
         -6    2    1    2    0  502  0.48200535337E+02  0.10163855360E+03  0.96611857203E+03  0.98775504896E+03  0.17210826343E+03 0.  0.
        -24    2    5    5    0    0 -0.19725018870E+02  0.53628220032E+02  0.74600079456E+03  0.75239830060E+03  0.79504433192E+02 0.  0.
          5    1    3    3  501    0 -0.22286831896E+02  0.36389198539E+02  0.31840496757E+02  0.53448890354E+02  0.47000000000E+01 0. -1.
        -11    1    4    4    0    0 -0.37034262894E+02 -0.10925931339E+03  0.97780083742E+02  0.15122856531E+03  0.00000000000E+00 0.  1.
         12    1    4    4    0    0  0.11120559453E+02 -0.28768438749E+02 -0.10282641229E+02  0.32511884308E+02  0.00000000000E+00 0. -1.
         -5    1    5    5    0  502  0.67925554208E+02  0.48010333568E+02  0.22011777746E+03  0.23535674836E+03  0.47000000000E+01 0.  1.
         11    1    6    6    0    0 -0.48421798655E+02  0.17361372362E+02  0.41796791567E+03  0.42112143898E+03  0.00000000000E+00 0. -1.
        -12    1    6    6    0    0  0.28696779785E+02  0.36266847670E+02  0.32803287889E+03  0.33127686162E+03  0.00000000000E+00 0.  1.
</event>
<event>
12    1  0.8219652E-002  0.1750534E+03  0.7818608E-02  0.1172890E+00
         21   -1    0    0  501  502  0.00000000000E+00  0.00000000000E+00  0.14071557799E+03  0.14071557799E+03  0.00000000000E+00 0. -1.
         21   -1    0    0  502  503 -0.00000000000E+00 -0.00000000000E+00 -0.48240203677E+03  0.48240203677E+03  0.00000000000E+00 0. -1.
         -6    2    1    2    0  503  0.13519358232E+01  0.26301226597E+02 -0.40224142272E+03  0.43868194370E+03  0.17306098150E+03 0.  0.
        -24    2    3    3    0    0 -0.58487339542E+02  0.14752908883E+02 -0.33153446971E+03  0.34521716036E+03  0.74975769411E+02 0.  0.
          6    2    1    2  501    0 -0.13519358232E+01 -0.26301226597E+02  0.60554963942E+02  0.18443567107E+03  0.17220926471E+03 0.  0.
         24    2    5    5    0    0 -0.13286627745E+02 -0.69943174690E+02 -0.23874359735E+01  0.10677685179E+03  0.79542529911E+02 0.  0.
          5    1    5    5  501    0  0.11934691922E+02  0.43641948094E+02  0.62942399916E+02  0.77658819279E+02  0.47000000000E+01 0. -1.
        -11    1    6    6    0    0  0.11172002475E+02 -0.15303687825E+02 -0.34115836439E+02  0.39024438449E+02  0.00000000000E+00 0.  1.
         12    1    6    6    0    0 -0.24458630220E+02 -0.54639486865E+02  0.31728400466E+02  0.67752413339E+02  0.00000000000E+00 0. -1.
         -5    1    3    3    0  503  0.59839275365E+02  0.11548317714E+02 -0.70706953018E+02  0.93464783332E+02  0.47000000000E+01 0.  1.
         11    1    4    4    0    0 -0.58995132561E+02  0.94397694613E+01 -0.12429122197E+03  0.13790519487E+03  0.00000000000E+00 0. -1.
        -12    1    4    4    0    0  0.50779301884E+00  0.53131394214E+01 -0.20724324774E+03  0.20731196550E+03  0.00000000000E+00 0.  1.
</event>
<event>
12    1  0.8219652E-002  0.1822509E+03  0.7818608E-02  0.1168578E+00
         21   -1    0    0  501  502  0.00000000000E+00  0.00000000000E+00  0.21082399356E+03  0.21082399356E+03  0.00000000000E+00 0. -1.
         21   -1    0    0  502  503 -0.00000000000E+00 -0.00000000000E+00 -0.24148896738E+03  0.24148896738E+03  0.00000000000E+00 0. -1.
         -6    2    1    2    0  503 -0.35897337410E+02  0.75010514229E+01 -0.15673957006E+03  0.24038027397E+03  0.17852310407E+03 0.  0.
        -24    2    3    3    0    0 -0.69450769627E+02 -0.10004154900E+02 -0.31953877359E+02  0.10989723230E+03  0.78312571610E+02 0.  0.
          6    2    1    2  501    0  0.35897337410E+02 -0.75010514229E+01  0.12607459624E+03  0.21193268697E+03  0.16636037805E+03 0.  0.
         24    2    5    5    0    0  0.24544385886E+02 -0.40711677919E+02  0.14395193052E+03  0.17226501372E+03  0.81812034897E+02 0.  0.
          5    1    5    5  501    0  0.11352951525E+02  0.33210626496E+02 -0.17877334277E+02  0.39667673255E+02  0.47000000000E+01 0. -1.
        -13    1    6    6    0    0 -0.18771737251E+02 -0.43074556244E+02  0.49081798242E+02  0.67947173846E+02  0.00000000000E+00 0.  1.
         14    1    6    6    0    0  0.43316123136E+02  0.23628783247E+01  0.94870132274E+02  0.10431783987E+03  0.00000000000E+00 0. -1.
         -5    1    3    3    0  503  0.33553432217E+02  0.17505206323E+02 -0.12478569270E+03  0.13048304167E+03  0.47000000000E+01 0.  1.
         13    1    4    4    0    0 -0.83667192151E+02 -0.90210371337E+01 -0.40383545240E+02  0.93340285405E+02  0.00000000000E+00 0. -1.
        -14    1    4    4    0    0  0.14216422524E+02 -0.98311776646E+00  0.84296678808E+01  0.16556946896E+02  0.00000000000E+00 0.  1.
</event>
<event>
12    1  0.8219652E-002  0.1901437E+03  0.7818608E-02  0.1158415E+00
         21   -1    0    0  503  502  0.00000000000E+00  0.00000000000E+00  0.51905386024E+03  0.51905386024E+03  0.00000000000E+00 0. -1.
         21   -1    0    0  501  503 -0.00000000000E+00 -0.00000000000E+00 -0.16262965517E+03  0.16262965517E+03  0.00000000000E+00 0. -1.
          6    2    1    2  501    0 -0.37605449025E+02 -0.69650797852E+02 -0.79762421120E+02  0.20585433149E+03  0.17247770445E+03 0.  0.
         24    2    3    3    0    0 -0.51909499056E+01 -0.10783374479E+03 -0.32838702485E+02  0.13706070852E+03  0.77795854417E+02 0.  0.
         -6    2    1    2    0  502  0.37605449025E+02  0.69650797852E+02  0.43618662619E+03  0.47582918393E+03  0.17288503686E+03 0.  0.
        -24    2    5    5    0    0  0.33644501928E+02  0.42423552554E+02  0.10317436278E+03  0.14164918816E+03  0.80547085919E+02 0.  0.
          5    1    3    3  501    0 -0.32414499119E+02  0.38182946935E+02 -0.46923718635E+02  0.68793622962E+02  0.47000000000E+01 0. -1.
        -11    1    4    4    0    0  0.29603149140E+02 -0.69400263088E+02  0.44675306617E+00  0.75451590732E+02  0.00000000000E+00 0.  1.
         12    1    4    4    0    0 -0.34794099045E+02 -0.38433481699E+02 -0.33285455551E+02  0.61609117792E+02  0.00000000000E+00 0. -1.
         -5    1    5    5    0  502  0.39609470971E+01  0.27227245298E+02  0.33301226341E+03  0.33417999576E+03  0.47000000000E+01 0.  1.
         13    1    6    6    0    0  0.12796525982E+02  0.51745093200E+02  0.10599036067E+03  0.11863921065E+03  0.00000000000E+00 0. -1.
        -14    1    6    6    0    0  0.20847975946E+02 -0.93215406461E+01 -0.28159978913E+01  0.23009977514E+02  0.00000000000E+00 0.  1.
</event>
<event>
12    1  0.8219652E-002  0.2157887E+03  0.7818608E-02  0.1137460E+00
         21   -1    0    0  501  502  0.00000000000E+00  0.00000000000E+00  0.35119700407E+03  0.35119700407E+03  0.00000000000E+00 0. -1.
         21   -1    0    0  502  503 -0.00000000000E+00 -0.00000000000E+00 -0.17882931772E+03  0.17882931772E+03  0.00000000000E+00 0.  1.
         -6    2    1    2    0  503  0.12802642095E+03  0.10440188967E+02 -0.50105411951E+02  0.22152949957E+03  0.17339263210E+03 0.  0.
        -24    2    3    3    0    0  0.12227965816E+03  0.60217150518E+02 -0.10757421994E+02  0.15764581231E+03  0.78473307536E+02 0.  0.
          6    2    1    2  501    0 -0.12802642095E+03 -0.10440188967E+02  0.22247309830E+03  0.30849682223E+03  0.17081056129E+03 0.  0.
         24    2    5    5    0    0 -0.10689341941E+03  0.36900206639E+02  0.21751126530E+03  0.25620507721E+03  0.74445031347E+02 0.  0.
          5    1    5    5  501    0 -0.21133001547E+02 -0.47340395606E+02  0.49618330008E+01  0.52291745020E+02  0.47000000000E+01 0. -1.
        -11    1    6    6    0    0 -0.27236609749E+02  0.23065852321E+02  0.16065036432E+02  0.39140156483E+02  0.00000000000E+00 0.  1.
         12    1    6    6    0    0 -0.79656809656E+02  0.13834354318E+02  0.20144622887E+03  0.21706492072E+03  0.00000000000E+00 0. -1.
         -5    1    3    3    0  503  0.57467627918E+01 -0.49776961551E+02 -0.39347989957E+02  0.63883687257E+02  0.47000000000E+01 0.  1.
         13    1    4    4    0    0  0.12011535087E+03  0.48867599769E+02 -0.31909469381E+02  0.13354382823E+03  0.00000000000E+00 0. -1.
        -14    1    4    4    0    0  0.21643072932E+01  0.11349550748E+02  0.21152047387E+02  0.24101984087E+02  0.00000000000E+00 0.  1.
</event>
<event>
12    1  0.8219652E-002  0.2082668E+03  0.7818608E-02  0.1143192E+00
         21   -1    0    0  503  502  0.00000000000E+00  0.00000000000E+00  0.74898816029E+02  0.74898816029E+02  0.00000000000E+00 0. -1.
         21   -1    0    0  501  503 -0.00000000000E+00 -0.00000000000E+00 -0.57716338442E+03  0.57716338442E+03  0.00000000000E+00 0. -1.
          6    2    1    2  501    0  0.74286962042E+02  0.88271736139E+02 -0.23551759042E+03  0.31439402006E+03  0.17339150015E+03 0.  0.
         24    2    3    3    0    0  0.10811724684E+03  0.69721782613E+02 -0.12370576974E+03  0.19601935136E+03  0.81055552611E+02 0.  0.
         -6    2    1    2    0  502 -0.74286962042E+02 -0.88271736139E+02 -0.26674697797E+03  0.33766818038E+03  0.17191683355E+03 0.  0.
        -24    2    5    5    0    0 -0.73899843051E+02 -0.30063026471E+02 -0.25339207801E+03  0.27776119335E+03  0.81109573861E+02 0.  0.
          5    1    3    3  501    0 -0.33830284793E+02  0.18549953525E+02 -0.11181182068E+03  0.11837466870E+03  0.47000000000E+01 0. -1.
        -11    1    4    4    0    0 -0.70525118699E+01  0.20637033015E+02 -0.39566908490E+02  0.45179257439E+02  0.00000000000E+00 0.  1.
         12    1    4    4    0    0  0.11516975871E+03  0.49084749598E+02 -0.84138861247E+02  0.15084009393E+03  0.00000000000E+00 0. -1.
         -5    1    5    5    0  502 -0.38711899079E+00 -0.58208709668E+02 -0.13354899963E+02  0.59906987033E+02  0.47000000000E+01 0.  1.
         11    1    6    6    0    0 -0.44360165878E+02 -0.57273212771E+02 -0.14326644779E+03  0.16054071222E+03  0.00000000000E+00 0. -1.
        -12    1    6    6    0    0 -0.29539677174E+02  0.27210186301E+02 -0.11012563022E+03  0.11722048113E+03  0.00000000000E+00 0.  1.
</event>
<event>
12    1  0.8219652E-002  0.1927002E+03  0.7818608E-02  0.1156496E+00
         21   -1    0    0  501  502  0.00000000000E+00  0.00000000000E+00  0.36077373021E+03  0.36077373021E+03  0.00000000000E+00 0. -1.
         21   -1    0    0  502  503 -0.00000000000E+00 -0.00000000000E+00 -0.10326047261E+03  0.10326047261E+03  0.00000000000E+00 0. -1.
         -6    2    1    2    0  503  0.49845142327E+02 -0.65067960371E+02  0.10236013500E+03  0.21819934033E+03  0.17439890253E+03 0.  0.
        -24    2    3    3    0    0 -0.43526616855E+01 -0.63260530909E+02  0.12313145108E+03  0.15993952286E+03  0.79990351249E+02 0.  0.
          6    2    1    2  501    0 -0.49845142327E+02  0.65067960371E+02  0.15515312259E+03  0.24583486248E+03  0.17217407029E+03 0.  0.
         24    2    5    5    0    0 -0.28555008263E+02 -0.25492585422E+02  0.11321761616E+03  0.14368223666E+03  0.79756480076E+02 0.  0.
          5    1    5    5  501    0 -0.21290134064E+02  0.90560545793E+02  0.41935506438E+02  0.10215262583E+03  0.47000000000E+01 0. -1.
        -11    1    6    6    0    0 -0.46089672413E+02 -0.42945849201E+02  0.72584934446E+02  0.96110231376E+02  0.00000000000E+00 0.  1.
         12    1    6    6    0    0  0.17534664150E+02  0.17453263779E+02  0.40632681711E+02  0.47572005281E+02  0.00000000000E+00 0. -1.
         -5    1    3    3    0  503  0.54197804013E+02 -0.18074294626E+01 -0.20771316071E+02  0.58259817476E+02  0.47000000000E+01 0.  1.
         11    1    4    4    0    0  0.23030708016E+02 -0.59257818391E+02  0.47373976218E+02  0.79285535723E+02  0.00000000000E+00 0. -1.
        -12    1    4    4    0    0 -0.27383369702E+02 -0.40027125182E+01  0.75757474857E+02  0.80653987133E+02  0.00000000000E+00 0.  1.
</event>
<event>
12    1  0.8219652E-002  0.1827531E+03  0.7818608E-02  0.1166002E+00
         21   -1    0    0  501  502  0.00000000000E+00  0.00000000000E+00  0.27357067695E+03  0.27357067695E+03  0.00000000000E+00 0.  1.
         21   -1    0    0  502  503 -0.00000000000E+00 -0.00000000000E+00 -0.13890523910E+03  0.13890523910E+03  0.00000000000E+00 0.  1.
         -6    2    1    2    0  503 -0.54315012613E+02  0.26371414771E+01 -0.86672646318E+01  0.18295851031E+03  0.17447527019E+03 0.  0.
        -24    2    3    3    0    0 -0.53026116641E+02  0.51641608488E+02 -0.47626093760E+02  0.12016536254E+03  0.81809808548E+02 0.  0.
          6    2    1    2  501    0  0.54315012613E+02 -0.26371414771E+01  0.14333270248E+03  0.22951740574E+03  0.17081247269E+03 0.  0.
         24    2    5    5    0    0  0.10354142570E+03 -0.44618233902E+00  0.93356838272E+02  0.15917739542E+03  0.76817433221E+02 0.  0.
          5    1    5    5  501    0 -0.49226413091E+02 -0.21909591381E+01  0.49975864207E+02  0.70340010314E+02  0.47000000000E+01 0. -1.
        -11    1    6    6    0    0  0.11162968878E+03  0.40363831128E+01  0.98207278914E+02  0.14873516544E+03  0.00000000000E+00 0.  1.
         12    1    6    6    0    0 -0.80882630789E+01 -0.44825654518E+01 -0.48504406421E+01  0.10442229986E+02  0.00000000000E+00 0. -1.
         -5    1    3    3    0  503 -0.12888959721E+01 -0.49004467011E+02  0.38958829129E+02  0.62793147770E+02  0.47000000000E+01 0.  1.
         11    1    4    4    0    0  0.11153799139E+02  0.40892185944E+02 -0.57316194787E+01  0.42771831482E+02  0.00000000000E+00 0. -1.
        -12    1    4    4    0    0 -0.64179915780E+02  0.10749422544E+02 -0.41894474282E+02  0.77393531059E+02  0.00000000000E+00 0.  1.
</event>
<event>
12    1  0.8219652E-002  0.2165504E+03  0.7818608E-02  0.1136850E+00
         21   -1    0    0  501  502  0.00000000000E+00  0.00000000000E+00  0.60776861603E+02  0.60776861603E+02  0.00000000000E+00 0. -1.
         21   -1    0    0  502  503 -0.00000000000E+00 -0.00000000000E+00 -0.76503499865E+03  0.76503499865E+03  0.00000000000E+00 0.  1.
         -6    2    1    2    0  503 -0.56436760359E+02  0.11502825685E+03 -0.34528578098E+03  0.40757373152E+03  0.17457797194E+03 0.  0.
        -24    2    3    3    0    0  0.12785930291E+01  0.22284918788E+02 -0.24801875085E+03  0.26123387393E+03  0.78940380722E+02 0.  0.
          6    2    1    2  501    0  0.56436760359E+02 -0.11502825685E+03 -0.35897235606E+03  0.41823812873E+03  0.17217831486E+03 0.  0.
         24    2    5    5    0    0 -0.54674975034E+01 -0.26654598003E+02 -0.67372377287E+02  0.10728044938E+03  0.78928426278E+02 0.  0.
          5    1    5    5  501    0  0.61904257862E+02 -0.88373658845E+02 -0.29159997878E+03  0.31095767934E+03  0.47000000000E+01 0. -1.
        -13    1    6    6    0    0  0.11245639312E+02 -0.20558805876E+02 -0.81348886865E+02  0.84656779391E+02  0.00000000000E+00 0.  1.
         14    1    6    6    0    0 -0.16713136816E+02 -0.60957921275E+01  0.13976509579E+02  0.22623669991E+02  0.00000000000E+00 0. -1.
         -5    1    3    3    0  503 -0.57715353388E+02  0.92743338060E+02 -0.97267030131E+02  0.14633985760E+03  0.47000000000E+01 0.  1.
         11    1    4    4    0    0  0.29108915008E+02  0.29659843461E+02 -0.74185159142E+02  0.85032188517E+02  0.00000000000E+00 0. -1.
        -12    1    4    4    0    0 -0.27830321979E+02 -0.73749246728E+01 -0.17383359171E+03  0.17620168541E+03  0.00000000000E+00 0.  1.
</event>
<event>
12    1  0.8219652E-002  0.3003926E+03  0.7818608E-02  0.1085176E+00
         21   -1    0    0  501  502  0.00000000000E+00  0.00000000000E+00  0.15265622509E+04  0.15265622509E+04  0.00000000000E+00 0. -1.
         21   -1    0    0  502  503 -0.00000000000E+00 -0.00000000000E+00 -0.82818608156E+02  0.82818608156E+02  0.00000000000E+00 0. -1.
         -6    2    1    2    0  503  0.19250622238E+03  0.15165256854E+03  0.29035653563E+03  0.41778297297E+03  0.17371973844E+03 0.  0.
        -24    2    3    3    0    0  0.73858414531E+02  0.77092526455E+02  0.55201356644E+02  0.14400103349E+03  0.79314468031E+02 0.  0.
          6    2    1    2  501    0 -0.19250622238E+03 -0.15165256854E+03  0.11533871071E+04  0.11915978861E+04  0.17189111687E+03 0.  0.
         24    2    5    5    0    0 -0.12023962086E+03 -0.59952645500E+02  0.37853432393E+03  0.40798429305E+03  0.71491697794E+02 0.  0.
          5    1    5    5  501    0 -0.72266601520E+02 -0.91699923036E+02  0.77485278319E+03  0.78361359304E+03  0.47000000000E+01 0. -1.
        -13    1    6    6    0    0 -0.73228184767E+02  0.47506897931E+00  0.22128833316E+03  0.23309036687E+03  0.00000000000E+00 0.  1.
         14    1    6    6    0    0 -0.47011436095E+02 -0.60427714479E+02  0.15724599077E+03  0.17489392618E+03  0.00000000000E+00 0. -1.
         -5    1    3    3    0  503  0.11864780785E+03  0.74560042081E+02  0.23515517898E+03  0.27378193948E+03  0.47000000000E+01 0.  1.
         11    1    4    4    0    0  0.83066356237E+02  0.75783580216E+02  0.65496708145E+02  0.13012682024E+03  0.00000000000E+00 0. -1.
        -12    1    4    4    0    0 -0.92079417065E+01  0.13089462387E+01 -0.10295351501E+02  0.13874213248E+02  0.00000000000E+00 0.  1.
</event>
<event>
12    1  0.8219652E-002  0.2109368E+03  0.7818608E-02  0.1142561E+00
         21   -1    0    0  503  502  0.00000000000E+00  0.00000000000E+00  0.16624753115E+03  0.16624753115E+03  0.00000000000E+00 0.  1.
         21   -1    0    0  501  503 -0.00000000000E+00 -0.00000000000E+00 -0.32146214810E+03  0.32146214810E+03  0.00000000000E+00 0.  1.
          6    2    1    2  501    0  0.11852685488E+03  0.25153886405E+02 -0.18823486124E+03  0.28271308825E+03  0.17266439690E+03 0.  0.
         24    2    3    3    0    0  0.11422778717E+03  0.25503976511E+02 -0.49680671370E+02  0.14401212187E+03  0.67623087451E+02 0.  0.
         -6    2    1    2    0  502 -0.11852685488E+03 -0.25153886405E+02  0.33020244284E+02  0.20499659100E+03  0.16202448105E+03 0.  0.
        -24    2    5    5    0    0 -0.11322583552E+03 -0.47127489884E+02  0.69254519384E+02  0.16203203877E+03  0.80106822435E+02 0.  0.
          5    1    3    3  501    0  0.42990677033E+01 -0.35009010640E+00 -0.13855418987E+03  0.13870096638E+03  0.47000000000E+01 0. -1.
        -13    1    4    4    0    0  0.45548563412E+02 -0.17524107356E+02 -0.38579763368E+02  0.62210643053E+02  0.00000000000E+00 0.  1.
         14    1    4    4    0    0  0.68679223760E+02  0.43028083867E+02 -0.11100908003E+02  0.81801478813E+02  0.00000000000E+00 0. -1.
         -5    1    5    5    0  502 -0.53010193517E+01  0.21973603479E+02 -0.36234275100E+02  0.42964552227E+02  0.47000000000E+01 0.  1.
         11    1    6    6    0    0  0.10295935000E+02 -0.15842583641E+02  0.11622152907E+02  0.22182609679E+02  0.00000000000E+00 0. -1.
        -12    1    6    6    0    0 -0.12352177052E+03 -0.31284906243E+02  0.57632366477E+02  0.13984942909E+03  0.00000000000E+00 0.  1.
</event>
<event>
12    1  0.8219652E-002  0.1926827E+03  0.7818608E-02  0.1160864E+00
         21   -1    0    0  501  502  0.00000000000E+00  0.00000000000E+00  0.16895506704E+03  0.16895506704E+03  0.00000000000E+00 0. -1.
         21   -1    0    0  502  503 -0.00000000000E+00 -0.00000000000E+00 -0.46729953253E+03  0.46729953253E+03  0.00000000000E+00 0.  1.
         -6    2    1    2    0  503 -0.12050823085E+02  0.41140089239E+02 -0.38741124404E+03  0.42398236503E+03  0.16684077609E+03 0.  0.
        -24    2    3    3    0    0  0.57158733697E+02  0.25382907197E+02 -0.22808639010E+03  0.24949812328E+03  0.79463824191E+02 0.  0.
          6    2    1    2  501    0  0.12050823085E+02 -0.41140089239E+02  0.89066778547E+02  0.21227223454E+03  0.18785335035E+03 0.  0.
         24    2    5    5    0    0  0.79373389372E+02 -0.25022756158E+02  0.26670194776E+02  0.11895814116E+03  0.80706051777E+02 0.  0.
          5    1    5    5  501    0 -0.67322566287E+02 -0.16117333081E+02  0.62396583770E+02  0.93314093380E+02  0.47000000000E+01 0. -1.
        -11    1    6    6    0    0  0.41703919388E+02  0.12738886155E+02  0.44900960765E+02  0.62590673351E+02  0.00000000000E+00 0.  1.
         12    1    6    6    0    0  0.37669469984E+02 -0.37761642313E+02 -0.18230765989E+02  0.56367467812E+02  0.00000000000E+00 0. -1.
         -5    1    3    3    0  503 -0.69209556782E+02  0.15757182041E+02 -0.15932485394E+03  0.17448424175E+03  0.47000000000E+01 0.  1.
         11    1    4    4    0    0  0.35972716522E+02 -0.23321870899E+02 -0.14213982336E+03  0.14846439096E+03  0.00000000000E+00 0. -1.
        -12    1    4    4    0    0  0.21186017175E+02  0.48704778096E+02 -0.85946566733E+02  0.10103373232E+03  0.00000000000E+00 0.  1.
</event>
<event>
12    1  0.8219652E-002  0.3292212E+03  0.7818608E-02  0.1071595E+00
         21   -1    0    0  501  502  0.00000000000E+00  0.00000000000E+00  0.39408779658E+03  0.39408779658E+03  0.00000000000E+00 0.  1.
         21   -1    0    0  502  503 -0.00000000000E+00 -0.00000000000E+00 -0.32905333287E+03  0.32905333287E+03  0.00000000000E+00 0.  1.
         -6    2    1    2    0  503  0.24187652376E+03 -0.14193937281E+03 -0.11509075252E+03  0.34875848396E+03  0.17244002005E+03 0.  0.
        -24    2    3    3    0    0  0.20460344047E+03 -0.53453658781E+02 -0.11266200817E+03  0.25259719692E+03  0.79954701657E+02 0.  0.
          6    2    1    2  501    0 -0.24187652376E+03  0.14193937281E+03  0.18012521624E+03  0.37438264549E+03  0.17048822077E+03 0.  0.
         24    2    5    5    0    0 -0.58390052524E+02  0.20788212478E+02  0.34841477090E+01  0.92302788240E+02  0.68308984914E+02 0.  0.
          5    1    5    5  501    0 -0.18348647124E+03  0.12115116033E+03  0.17664106853E+03  0.28207985725E+03  0.47000000000E+01 0. -1.
        -11    1    6    6    0    0 -0.73802296913E+02  0.15611862840E+02  0.66896865760E+01  0.75731507297E+02  0.00000000000E+00 0.  1.
         12    1    6    6    0    0  0.15412244389E+02  0.51763496380E+01 -0.32055388670E+01  0.16571280944E+02  0.00000000000E+00 0. -1.
         -5    1    3    3    0  503  0.37273083294E+02 -0.88485714030E+02 -0.24287443489E+01  0.96161287038E+02  0.47000000000E+01 0.  1.
         13    1    4    4    0    0  0.11369963217E+03  0.11498094123E+02 -0.53660104048E+02  0.12625062095E+03  0.00000000000E+00 0. -1.
        -14    1    4    4    0    0  0.90903808300E+02 -0.64951752904E+02 -0.59001904125E+02  0.12634657597E+03  0.00000000000E+00 0.  1.
</event>
<event>
12    1  0.8219652E-002  0.1988359E+03  0.7818608E-02  0.1150761E+00
         21   -1    0    0  501  502  0.00000000000E+00  0.00000000000E+00  0.24430595118E+03  0.24430595118E+03  0.00000000000E+00 0.  1.
         21   -1    0    0  502  503 -0.00000000000E+00 -0.00000000000E+00 -0.58418694795E+03  0.58418694795E+03  0.00000000000E+00 0.  1.
         -6    2    1    2    0  503  0.18748761112E+02  0.98596102915E+02 -0.52224493258E+03  0.55881614334E+03  0.17164790969E+03 0.  0.
        -24    2    3    3    0    0  0.47222295600E+02 -0.18983871961E+01 -0.27347645285E+03  0.28896853595E+03  0.80497797670E+02 0.  0.
          6    2    1    2  501    0 -0.18748761112E+02 -0.98596102915E+02  0.18236393581E+03  0.26967675578E+03  0.17145331718E+03 0.  0.
         24    2    5    5    0    0  0.15754419384E+02 -0.12782426919E+03  0.12462830962E+03  0.19619037814E+03  0.79819818287E+02 0.  0.
          5    1    5    5  501    0 -0.34503180495E+02  0.29228166272E+02  0.57735626186E+02  0.73486377643E+02  0.47000000000E+01 0. -1.
        -11    1    6    6    0    0  0.17724695219E+02 -0.62043254247E+02  0.11188419172E+03  0.12915727844E+03  0.00000000000E+00 0.  1.
         12    1    6    6    0    0 -0.19702758355E+01 -0.65781014940E+02  0.12744117901E+02  0.67033099693E+02  0.00000000000E+00 0. -1.
         -5    1    3    3    0  503 -0.28473534488E+02  0.10049449011E+03 -0.24876847973E+03  0.26984760739E+03  0.47000000000E+01 0.  1.
         13    1    4    4    0    0  0.47814752988E+02  0.29793904806E+02 -0.12444440164E+03  0.13660284209E+03  0.00000000000E+00 0. -1.
        -14    1    4    4    0    0 -0.59245738881E+00 -0.31692292002E+02 -0.14903205121E+03  0.15236569386E+03  0.00000000000E+00 0.  1.
</event>
<event>
12    1  0.8219652E-002  0.1908070E+03  0.7818608E-02  0.1157860E+00
         21   -1    0    0  503  502  0.00000000000E+00  0.00000000000E+00  0.14024726951E+03  0.14024726951E+03  0.00000000000E+00 0. -1.
         21   -1    0    0  501  503 -0.00000000000E+00 -0.00000000000E+00 -0.26736908300E+03  0.26736908300E+03  0.00000000000E+00 0. -1.
          6    2    1    2  501    0 -0.81804327644E+02 -0.16130037540E+02 -0.27076046032E+02  0.19217151829E+03  0.17101068400E+03 0.  0.
         24    2    3    3    0    0 -0.72030875432E+02 -0.66893316713E+02 -0.47798910636E+02  0.13627913958E+03  0.81388606024E+02 0.  0.
         -6    2    1    2    0  502  0.81804327644E+02  0.16130037540E+02 -0.10004576745E+03  0.21544483422E+03  0.17162515804E+03 0.  0.
        -24    2    5    5    0    0 -0.72279421553E+01  0.50388872311E+02 -0.41286992237E+02  0.10330609653E+03  0.79851438630E+02 0.  0.
          5    1    3    3  501    0 -0.97734522118E+01  0.50763279173E+02  0.20722864604E+02  0.55892378711E+02  0.47000000000E+01 0. -1.
        -13    1    4    4    0    0 -0.25152001914E+01 -0.99707405616E+01 -0.45241109132E+02  0.46395041274E+02  0.00000000000E+00 0.  1.
         14    1    4    4    0    0 -0.69515675241E+02 -0.56922576152E+02 -0.25578015048E+01  0.89884098307E+02  0.00000000000E+00 0. -1.
         -5    1    5    5    0  502  0.89032269799E+02 -0.34258834771E+02 -0.58758775216E+02  0.11213873769E+03  0.47000000000E+01 0.  1.
         13    1    6    6    0    0  0.18229821692E+02  0.22066921597E+02  0.17288976736E+02  0.33439260522E+02  0.00000000000E+00 0. -1.
        -14    1    6    6    0    0 -0.25457763847E+02  0.28321950714E+02 -0.58575968973E+02  0.69866836005E+02  0.00000000000E+00 0.  1.
</event>
<event>
12    1  0.8219652E-002  0.2057706E+03  0.7818608E-02  0.1145731E+00
         21   -1    0    0  501  502  0.00000000000E+00  0.00000000000E+00  0.29166805032E+03  0.29166805032E+03  0.00000000000E+00 0.  1.
         21   -1    0    0  502  503 -0.00000000000E+00 -0.00000000000E+00 -0.20262846638E+03  0.20262846638E+03  0.00000000000E+00 0. -1.
         -6    2    1    2    0  503 -0.89063080008E+02 -0.70130565676E+02 -0.89782518086E+02  0.22450487135E+03  0.17172946236E+03 0.  0.
        -24    2    3    3    0    0  0.21699892501E+02 -0.27472032910E+02 -0.61298086833E+02  0.10235070924E+03  0.74112173801E+02 0.  0.
          6    2    1    2  501    0  0.89063080008E+02  0.70130565676E+02  0.17882210203E+03  0.26979164535E+03  0.16721142086E+03 0.  0.
         24    2    5    5    0    0  0.32638630261E+01 -0.49204524314E+01  0.11022062153E+03  0.13666608778E+03  0.80586416251E+02 0.  0.
          5    1    5    5  501    0  0.85799216982E+02  0.75051018108E+02  0.68601480495E+02  0.13312555758E+03  0.47000000000E+01 0. -1.
        -11    1    6    6    0    0 -0.67075401477E+00 -0.21891940827E+01 -0.13076766603E+02  0.13275703615E+02  0.00000000000E+00 0.  1.
         12    1    6    6    0    0  0.39346170409E+01 -0.27312583487E+01  0.12329738813E+03  0.12339038416E+03  0.00000000000E+00 0. -1.
         -5    1    3    3    0  503 -0.11076297251E+03 -0.42658532767E+02 -0.28484431253E+02  0.12215416211E+03  0.47000000000E+01 0.  1.
         13    1    4    4    0    0  0.19801345654E+01  0.15498293846E+01 -0.66788810912E+02  0.66836129205E+02  0.00000000000E+00 0. -1.
        -14    1    4    4    0    0  0.19719757935E+02 -0.29021862294E+02  0.54907240793E+01  0.35514580034E+02  0.00000000000E+00 0.  1.
</event>
<event>
12    1  0.8219652E-002  0.1781700E+03  0.7818608E-02  0.1169834E+00
         21   -1    0    0  501  502  0.00000000000E+00  0.00000000000E+00  0.19383660531E+03  0.19383660531E+03  0.00000000000E+00 0. -1.
         21   -1    0    0  502  503 -0.00000000000E+00 -0.00000000000E+00 -0.45396226598E+03  0.45396226598E+03  0.00000000000E+00 0. -1.
         -6    2    1    2    0  503  0.40435537379E+01 -0.46946276495E+02 -0.38957302826E+03  0.42838264614E+03  0.17182620278E+03 0.  0.
        -24    2    3    3    0    0  0.21494187492E+02 -0.73482858307E+02 -0.37683037112E+03  0.39384020697E+03  0.85130778620E+02 0.  0.
          6    2    1    2  501    0 -0.40435537379E+01  0.46946276495E+02  0.12944736758E+03  0.21941622515E+03  0.17078218784E+03 0.  0.
         24    2    5    5    0    0 -0.15617405600E+02  0.94606186872E+02  0.10606840675E+03  0.16488103547E+03  0.82103684417E+02 0.  0.
          5    1    5    5  501    0  0.11573851862E+02 -0.47659910377E+02  0.23378960830E+02  0.54535189681E+02  0.47000000000E+01 0. -1.
        -11    1    6    6    0    0  0.28886723320E+02  0.46931766890E+02  0.24142372886E+02  0.60165502542E+02  0.00000000000E+00 0.  1.
         12    1    6    6    0    0 -0.44504128920E+02  0.47674419982E+02  0.81926033864E+02  0.10471553293E+03  0.00000000000E+00 0. -1.
         -5    1    3    3    0  503 -0.17450633754E+02  0.26536581812E+02 -0.12742657141E+02  0.34542439169E+02  0.47000000000E+01 0.  1.
         13    1    4    4    0    0  0.80963511980E+01  0.13498432921E+02 -0.14526041066E+03  0.14611073027E+03  0.00000000000E+00 0. -1.
        -14    1    4    4    0    0  0.13397836294E+02 -0.86981291228E+02 -0.23156996045E+03  0.24772947670E+03  0.00000000000E+00 0.  1.
</event>
<event>
12    1  0.8219652E-002  0.1914537E+03  0.7818608E-02  0.1157460E+00
         21   -1    0    0  503  502  0.00000000000E+00  0.00000000000E+00  0.20407915082E+03  0.20407915082E+03  0.00000000000E+00 0.  1.
         21   -1    0    0  501  503 -0.00000000000E+00 -0.00000000000E+00 -0.60965426863E+03  0.60965426863E+03  0.00000000000E+00 0.  1.
          6    2    1    2  501    0 -0.32846385824E+02  0.73752050884E+02 -0.54479692796E+03  0.57701158146E+03  0.17210584635E+03 0.  0.
         24    2    3    3    0    0 -0.16525155902E+02 -0.20497214853E+01 -0.43050391294E+03  0.43881869263E+03  0.83372320382E+02 0.  0.
         -6    2    1    2    0  502  0.32846385824E+02 -0.73752050884E+02  0.13922181016E+03  0.23672183798E+03  0.17359800138E+03 0.  0.
        -24    2    5    5    0    0 -0.34989660854E+02 -0.14442529123E+02  0.36280289132E+02  0.99833579352E+02  0.84956584046E+02 0.  0.
          5    1    3    3  501    0 -0.16321229922E+02  0.75801772369E+02 -0.11429301502E+03  0.13819288883E+03  0.47000000000E+01 0. -1.
        -13    1    4    4    0    0 -0.41462989084E+02  0.71877084144E+01 -0.11974629445E+03  0.12692524434E+03  0.00000000000E+00 0.  1.
         14    1    4    4    0    0  0.24937833183E+02 -0.92374298997E+01 -0.31075761849E+03  0.31189344828E+03  0.00000000000E+00 0. -1.
         -5    1    5    5    0  502  0.67836046678E+02 -0.59309521761E+02  0.10294152102E+03  0.13688825863E+03  0.47000000000E+01 0.  1.
         13    1    6    6    0    0 -0.34522061380E+02  0.13265278644E+02 -0.16285979706E+02  0.40410066498E+02  0.00000000000E+00 0. -1.
        -14    1    6    6    0    0 -0.46759947424E+00 -0.27707807766E+02  0.52566268837E+02  0.59423512855E+02  0.00000000000E+00 0.  1.
</event>
<event>
12    1  0.8219652E-002  0.1813138E+03  0.7818608E-02  0.1166806E+00
         21   -1    0    0  501  502  0.00000000000E+00  0.00000000000E+00  0.59760174132E+03  0.59760174132E+03  0.00000000000E+00 0. -1.
         21   -1    0    0  502  503 -0.00000000000E+00 -0.00000000000E+00 -0.20068832464E+03  0.20068832464E+03  0.00000000000E+00 0. -1.
         -6    2    1    2    0  503  0.50340838459E+02  0.14194894011E+02 -0.14183858787E+03  0.23020185324E+03  0.17360591348E+03 0.  0.
        -24    2    3    3    0    0  0.32015763025E+02  0.40069673173E+01 -0.17244304481E+03  0.19280766887E+03  0.79982051764E+02 0.  0.
          6    2    1    2  501    0 -0.50340838459E+02 -0.14194894011E+02  0.53875200454E+03  0.56808821272E+03  0.17243781489E+03 0.  0.
         24    2    5    5    0    0  0.16099685692E+02  0.87861641340E+00  0.12479323917E+03  0.14853427889E+03  0.78924695860E+02 0.  0.
          5    1    5    5  501    0 -0.66440524151E+02 -0.15073510424E+02  0.41395876537E+03  0.41955393384E+03  0.47000000000E+01 0. -1.
        -11    1    6    6    0    0 -0.21313284261E+01 -0.34003383240E+02  0.28188936353E+02  0.44219777988E+02  0.00000000000E+00 0.  1.
         12    1    6    6    0    0  0.18231014118E+02  0.34881999653E+02  0.96604302817E+02  0.10431450090E+03  0.00000000000E+00 0. -1.
         -5    1    3    3    0  503  0.18325075434E+02  0.10187926693E+02  0.30604456941E+02  0.37394184369E+02  0.47000000000E+01 0.  1.
         11    1    4    4    0    0  0.50778265858E+02 -0.19024399695E+02 -0.13133946112E+03  0.14209297701E+03  0.00000000000E+00 0. -1.
        -12    1    4    4    0    0 -0.18762502834E+02  0.23031367012E+02 -0.41103583683E+02  0.50714691862E+02  0.00000000000E+00 0.  1.
</event>
<event>
12    1  0.8219652E-002  0.2130244E+03  0.7818608E-02  0.1139653E+00
         21   -1    0    0  501  502  0.00000000000E+00  0.00000000000E+00  0.34883431480E+02  0.34883431480E+02  0.00000000000E+00 0.  1.
         21   -1    0    0  502  503 -0.00000000000E+00 -0.00000000000E+00 -0.13339539013E+04  0.13339539013E+04  0.00000000000E+00 0.  1.
         -6    2    1    2    0  503  0.33921077400E+02  0.11996631884E+03 -0.51705733101E+03  0.55832888882E+03  0.16982434275E+03 0.  0.
        -24    2    3    3    0    0 -0.23264801443E+02  0.25287739646E+02 -0.32518433777E+03  0.33680779811E+03  0.80708850623E+02 0.  0.
          6    2    1    2  501    0 -0.33921077400E+02 -0.11996631884E+03 -0.78201313883E+03  0.81050844398E+03  0.17273341110E+03 0.  0.
         24    2    5    5    0    0  0.33782872458E+01 -0.14471289385E+03 -0.65843282406E+03  0.67898726783E+03  0.80849808913E+02 0.  0.
          5    1    5    5  501    0 -0.37299364646E+02  0.24746575009E+02 -0.12358031477E+03  0.13152117615E+03  0.47000000000E+01 0. -1.
        -13    1    6    6    0    0 -0.21883691204E+02 -0.13036972974E+03 -0.59028267747E+03  0.60490396072E+03  0.00000000000E+00 0.  1.
         14    1    6    6    0    0  0.25261978449E+02 -0.14343164114E+02 -0.68150146594E+02  0.74083307113E+02  0.00000000000E+00 0. -1.
         -5    1    3    3    0  503  0.57185878843E+02  0.94678579196E+02 -0.19187299323E+03  0.22152109071E+03  0.47000000000E+01 0.  1.
         11    1    4    4    0    0  0.21976069987E+02 -0.85007759958E+01 -0.43032292664E+02  0.49061074759E+02  0.00000000000E+00 0. -1.
        -12    1    4    4    0    0 -0.45240871430E+02  0.33788515641E+02 -0.28215204511E+03  0.28774672335E+03  0.00000000000E+00 0.  1.
</event>
<event>
12    1  0.8219652E-002  0.2493972E+03  0.7818608E-02  0.1114117E+00
         21   -1    0    0  501  502  0.00000000000E+00  0.00000000000E+00  0.34667906369E+03  0.34667906369E+03  0.00000000000E+00 0.  1.
         21   -1    0    0  502  503 -0.00000000000E+00 -0.00000000000E+00 -0.20137097810E+03  0.20137097810E+03  0.00000000000E+00 0. -1.
         -6    2    1    2    0  503  0.10152913558E+03  0.14199610658E+03  0.16739846354E+03  0.30036849106E+03  0.17812334257E+03 0.  0.
        -24    2    3    3    0    0  0.13464510045E+03  0.14692434527E+03  0.15357607219E+03  0.26384311401E+03  0.79445028506E+02 0.  0.
          6    2    1    2  501    0 -0.10152913558E+03 -0.14199610658E+03 -0.22090377950E+02  0.24768155072E+03  0.17431897807E+03 0.  0.
         24    2    5    5    0    0 -0.16422696166E+02 -0.13142338317E+03 -0.43021593260E+02  0.15927852880E+03  0.77310941373E+02 0.  0.
          5    1    5    5  501    0 -0.85106439419E+02 -0.10572723408E+02  0.20931215310E+02  0.88403021923E+02  0.47000000000E+01 0. -1.
        -11    1    6    6    0    0  0.16575229070E+02 -0.72781500393E+02  0.76622553430E+01  0.75037291896E+02  0.00000000000E+00 0.  1.
         12    1    6    6    0    0 -0.32997925236E+02 -0.58641882781E+02 -0.50683848603E+02  0.84241236904E+02  0.00000000000E+00 0. -1.
         -5    1    3    3    0  503 -0.33115964869E+02 -0.49282386883E+01  0.13822391354E+02  0.36525377048E+02  0.47000000000E+01 0.  1.
         13    1    4    4    0    0  0.98774194529E+02  0.92373514081E+02  0.55853069485E+02  0.14631737074E+03  0.00000000000E+00 0. -1.
        -14    1    4    4    0    0  0.35870905924E+02  0.54550831188E+02  0.97723002703E+02  0.11752574328E+03  0.00000000000E+00 0.  1.
</event>
<event>
12    1  0.8219652E-002  0.2020971E+03  0.7818608E-02  0.1148125E+00
         21   -1    0    0  503  502  0.00000000000E+00  0.00000000000E+00  0.36902995669E+03  0.36902995669E+03  0.00000000000E+00 0.  1.
         21   -1    0    0  501  503 -0.00000000000E+00 -0.00000000000E+00 -0.22695329410E+03  0.22695329410E+03  0.00000000000E+00 0.  1.
          6    2    1    2  501    0  0.58059206436E+02 -0.86584964097E+02 -0.14265893509E+03  0.24681623419E+03  0.17233355518E+03 0.  0.
         24    2    3    3    0    0 -0.12772985352E+02 -0.97801366108E+02 -0.75629611761E+02  0.14854097152E+03  0.81340799584E+02 0.  0.
         -6    2    1    2    0  502 -0.58059206436E+02  0.86584964097E+02  0.28473559768E+03  0.34916701660E+03  0.17313410246E+03 0.  0.
        -24    2    5    5    0    0 -0.92039320561E+02  0.51784622622E+02  0.12622436435E+03  0.18329473738E+03  0.80693784924E+02 0.  0.
          5    1    3    3  501    0  0.70832191789E+02  0.11216402010E+02 -0.67029323326E+02  0.98275262672E+02  0.47000000000E+01 0. -1.
        -13    1    4    4    0    0  0.26431282812E+02 -0.72003710798E+02 -0.64720960459E+02  0.10035910423E+03  0.00000000000E+00 0.  1.
         14    1    4    4    0    0 -0.39204268164E+02 -0.25797655310E+02 -0.10908651302E+02  0.48181867285E+02  0.00000000000E+00 0. -1.
         -5    1    5    5    0  502  0.33980114125E+02  0.34800341475E+02  0.15851123333E+03  0.16587227922E+03  0.47000000000E+01 0.  1.
         13    1    6    6    0    0 -0.62104668771E+02  0.57135690580E+02  0.43049074543E+02  0.94734892411E+02  0.00000000000E+00 0. -1.
        -14    1    6    6    0    0 -0.29934651790E+02 -0.53510679576E+01  0.83175289805E+02  0.88559844965E+02  0.00000000000E+00 0.  1.
</event>
<event>
12    1  0.8219652E-002  0.3038096E+03  0.7818608E-02  0.1083724E+00
         21   -1    0    0  501  502  0.00000000000E+00  0.00000000000E+00  0.32154896913E+03  0.32154896913E+03  0.00000000000E+00 0. -1.
         21   -1    0    0  502  503 -0.00000000000E+00 -0.00000000000E+00 -0.28937073345E+03  0.28937073345E+03  0.00000000000E+00 0.  1.
         -6    2    1    2    0  503  0.24360288510E+03 -0.55781056127E+02 -0.24628988586E+02  0.30480625377E+03  0.17276102977E+03 0.  0.
        -24    2    3    3    0    0  0.13628261050E+03 -0.10609059359E+03 -0.15045745803E+02  0.18579944959E+03  0.66834848889E+02 0.  0.
          6    2    1    2  501    0 -0.24360288510E+03  0.55781056127E+02  0.56807224265E+02  0.30611344881E+03  0.16740517006E+03 0.  0.
         24    2    5    5    0    0 -0.22755319911E+03  0.68546776577E+02  0.51888834749E+01  0.25037208944E+03  0.78613864270E+02 0.  0.
          5    1    5    5  501    0 -0.16049685998E+02 -0.12765720449E+02  0.51618340790E+02  0.55741359376E+02  0.47000000000E+01 0. -1.
        -13    1    6    6    0    0 -0.11156466539E+03  0.16893139149E+02 -0.33385203377E+02  0.11767168103E+03  0.00000000000E+00 0.  1.
         14    1    6    6    0    0 -0.11598853372E+03  0.51653637427E+02  0.38574086852E+02  0.13270040840E+03  0.00000000000E+00 0. -1.
         -5    1    3    3    0  503  0.10732027460E+03  0.50309537462E+02 -0.95832427826E+01  0.11900680418E+03  0.47000000000E+01 0.  1.
         11    1    4    4    0    0  0.12099007542E+03 -0.75014486281E+02  0.10526951874E+02  0.14274658741E+03  0.00000000000E+00 0. -1.
        -12    1    4    4    0    0  0.15292535080E+02 -0.31076107309E+02 -0.25572697677E+02  0.43052862171E+02  0.00000000000E+00 0.  1.
</event>
<event>
12    1  0.8219652E-002  0.3387743E+03  0.7818608E-02  0.1067574E+00
         21   -1    0    0  501  502  0.00000000000E+00  0.00000000000E+00  0.11952371166E+03  0.11952371166E+03  0.00000000000E+00 0. -1.
         21   -1    0    0  502  503 -0.00000000000E+00 -0.00000000000E+00 -0.97815004263E+03  0.97815004263E+03  0.00000000000E+00 0.  1.
         -6    2    1    2    0  503  0.26661417392E+03 -0.11695087738E+03 -0.34070797163E+03  0.47879779030E+03  0.16853716686E+03 0.  0.
        -24    2    3    3    0    0  0.80747944242E+02 -0.68018837534E+02 -0.20278449380E+03  0.24218507806E+03  0.79907874156E+02 0.  0.
          6    2    1    2  501    0 -0.26661417392E+03  0.11695087738E+03 -0.51791835934E+03  0.61887596399E+03  0.17322645991E+03 0.  0.
         24    2    5    5    0    0 -0.20658958881E+03  0.14077166105E+03 -0.47008272969E+03  0.53837305711E+03  0.79823913167E+02 0.  0.
          5    1    5    5  501    0 -0.60024585109E+02 -0.23820783671E+02 -0.47835629646E+02  0.80502906878E+02  0.47000000000E+01 0. -1.
        -11    1    6    6    0    0 -0.16708242922E+03  0.11354009573E+03 -0.43274914501E+03  0.47757691946E+03  0.00000000000E+00 0.  1.
         12    1    6    6    0    0 -0.39507159591E+02  0.27231565315E+02 -0.37333584677E+02  0.60796137651E+02  0.00000000000E+00 0. -1.
         -5    1    3    3    0  503  0.18586622968E+03 -0.48932039842E+02 -0.13792347783E+03  0.23661271224E+03  0.47000000000E+01 0.  1.
         13    1    4    4    0    0  0.56427484466E+02 -0.72451556119E+02 -0.97099561328E+02  0.13364734864E+03  0.00000000000E+00 0. -1.
        -14    1    4    4    0    0  0.24320459776E+02  0.44327185849E+01 -0.10568493247E+03  0.10853772943E+03  0.00000000000E+00 0.  1.
</event>
<event>
12    1  0.8219652E-002  0.2457362E+03  0.7818608E-02  0.1116047E+00
         21   -1    0    0  503  502  0.00000000000E+00  0.00000000000E+00  0.18418193514E+04  0.18418193514E+04  0.00000000000E+00 0.  1.
         21   -1    0    0  501  503 -0.00000000000E+00 -0.00000000000E+00 -0.99471531056E+02  0.99471531056E+02  0.00000000000E+00 0. -1.
          6    2    1    2  501    0  0.62571026378E+02  0.16386235400E+03  0.76284712261E+02  0.25720283675E+03  0.17195330037E+03 0.  0.
         24    2    3    3    0    0  0.24486384660E+02  0.91343326911E+01 -0.13070828465E+01  0.79907103077E+02  0.75501109853E+02 0.  0.
         -6    2    1    2    0  502 -0.62571026378E+02 -0.16386235400E+03  0.16660631081E+04  0.16840880457E+04  0.17210537807E+03 0.  0.
        -24    2    5    5    0    0 -0.52165628190E+02 -0.14992846440E+03  0.16512739933E+04  0.16607806754E+04  0.79289683364E+02 0.  0.
          5    1    3    3  501    0  0.38084641718E+02  0.15472802131E+03  0.77591795107E+02  0.17729573368E+03  0.47000000000E+01 0. -1.
        -13    1    4    4    0    0  0.39818692991E+02  0.84680420916E+01 -0.27796040353E+02  0.49293568624E+02  0.00000000000E+00 0.  1.
         14    1    4    4    0    0 -0.15332308331E+02  0.66629059953E+00  0.26488957506E+02  0.30613534453E+02  0.00000000000E+00 0. -1.
         -5    1    5    5    0  502 -0.10405398188E+02 -0.13933889598E+02  0.14789114787E+02  0.23307370228E+02  0.47000000000E+01 0.  1.
         13    1    6    6    0    0  0.10172633933E+02 -0.69212137571E+02  0.88304779484E+03  0.88581443341E+03  0.00000000000E+00 0. -1.
        -14    1    6    6    0    0 -0.62338262122E+02 -0.80716326827E+02  0.76822619843E+03  0.77496624204E+03  0.00000000000E+00 0.  1.
</event>
<event>
12    1  0.8219652E-002  0.1750440E+03  0.7818608E-02  0.1172825E+00
         21   -1    0    0  503  502  0.00000000000E+00  0.00000000000E+00  0.27400945196E+03  0.27400945196E+03  0.00000000000E+00 0. -1.
         21   -1    0    0  501  503 -0.00000000000E+00 -0.00000000000E+00 -0.11451475152E+03  0.11451475152E+03  0.00000000000E+00 0. -1.
          6    2    1    2  501    0 -0.21750137060E+02  0.27145926172E+02  0.48208127383E+02  0.18156104537E+03  0.17155296524E+03 0.  0.
         24    2    3    3    0    0 -0.58042487759E+02  0.21132923252E+02  0.82494790836E+02  0.13105405364E+03  0.80958283267E+02 0.  0.
         -6    2    1    2    0  502  0.21750137060E+02 -0.27145926172E+02  0.11128657306E+03  0.20696315810E+03  0.17099437915E+03 0.  0.
        -24    2    5    5    0    0  0.66761819430E+02 -0.54484198037E+02  0.54337235126E+02  0.12925376518E+03  0.79550815972E+02 0.  0.
          5    1    3    3  501    0  0.36292350699E+02  0.60130029205E+01 -0.34286663453E+02  0.50506991735E+02  0.47000000000E+01 0. -1.
        -13    1    4    4    0    0 -0.42007485234E+00 -0.23871998688E+02  0.39726646634E+02  0.46349274396E+02  0.00000000000E+00 0.  1.
         14    1    4    4    0    0 -0.57622412907E+02  0.45004921940E+02  0.42768144202E+02  0.84704779242E+02  0.00000000000E+00 0. -1.
         -5    1    5    5    0  502 -0.45011682370E+02  0.27338271865E+02  0.56949337930E+02  0.77709392927E+02  0.47000000000E+01 0.  1.
         11    1    6    6    0    0  0.39274200450E+02 -0.24680897603E+02  0.71498863403E+02  0.85227325404E+02  0.00000000000E+00 0. -1.
        -12    1    6    6    0    0  0.27487618980E+02 -0.29803300434E+02 -0.17161628277E+02  0.44026439773E+02  0.00000000000E+00 0.  1.
</event>
<event>
12    1  0.8219652E-002  0.2201176E+03  0.7818608E-02  0.1134594E+00
         21   -1    0    0  503  502  0.00000000000E+00  0.00000000000E+00  0.13720220562E+03  0.13720220562E+03  0.00000000000E+00 0.  1.
         21   -1    0    0  501  503 -0.00000000000E+00 -0.00000000000E+00 -0.39101535230E+03  0.39101535230E+03  0.00000000000E+00 0. -1.
          6    2    1    2  501    0  0.10431805111E+03 -0.91174676564E+02 -0.38759390147E+02  0.22350406944E+03  0.17104590407E+03 0.  0.
         24    2    3    3    0    0  0.47109364024E+02 -0.10246693548E+03  0.17114177250E+02  0.14260725539E+03  0.85587202209E+02 0.  0.
         -6    2    1    2    0  502 -0.10431805111E+03  0.91174676564E+02 -0.21505375653E+03  0.30471348848E+03  0.16555094209E+03 0.  0.
        -24    2    5    5    0    0 -0.82674450990E+02  0.12501275540E+03 -0.20165693647E+03  0.26211036896E+03  0.74653008175E+02 0.  0.
          5    1    3    3  501    0  0.57208687089E+02  0.11292258916E+02 -0.55873567397E+02  0.80896814050E+02  0.47000000000E+01 0. -1.
        -13    1    4    4    0    0  0.29499615178E+02  0.75401714618E+00 -0.14970835931E+02  0.33089602083E+02  0.00000000000E+00 0.  1.
         14    1    4    4    0    0  0.17609748845E+02 -0.10322095263E+03  0.32085013180E+02  0.10951765331E+03  0.00000000000E+00 0. -1.
         -5    1    5    5    0  502 -0.21643600122E+02 -0.33838078834E+02 -0.13396820065E+02  0.42603119525E+02  0.47000000000E+01 0.  1.
         11    1    6    6    0    0  0.20868840835E+01  0.45582064914E+02 -0.90399704609E+02  0.10126295631E+03  0.00000000000E+00 0. -1.
        -12    1    6    6    0    0 -0.84761335073E+02  0.79430690484E+02 -0.11125723186E+03  0.16084741265E+03  0.00000000000E+00 0.  1.
</event>
<event>
12    1  0.8219652E-002  0.2033472E+03  0.7818608E-02  0.1146947E+00
         21   -1    0    0  501  502  0.00000000000E+00  0.00000000000E+00  0.12467040538E+04  0.12467040538E+04  0.00000000000E+00 0. -1.
         21   -1    0    0  502  503 -0.00000000000E+00 -0.00000000000E+00 -0.58840695785E+02  0.58840695785E+02  0.00000000000E+00 0. -1.
         -6    2    1    2    0  503  0.97040832433E+02 -0.46450013644E+02  0.16274206795E+03  0.26045169334E+03  0.17255601107E+03 0.  0.
        -24    2    3    3    0    0  0.54012678165E+02 -0.85924991962E+02  0.59688265967E+02  0.14191110082E+03  0.79218670749E+02 0.  0.
          6    2    1    2  501    0 -0.97040832433E+02  0.46450013644E+02  0.10251212901E+04  0.10450930562E+04  0.17254364645E+03 0.  0.
         24    2    5    5    0    0 -0.78491856631E+02  0.89834731985E+02  0.54955216032E+03  0.56716588035E+03  0.73744886549E+02 0.  0.
          5    1    5    5  501    0 -0.18548975803E+02 -0.43384718341E+02  0.47556912974E+03  0.47792717589E+03  0.47000000000E+01 0. -1.
        -13    1    6    6    0    0  0.87510308791E+01  0.35549264870E+02  0.11796665866E+03  0.12351705684E+03  0.00000000000E+00 0.  1.
         14    1    6    6    0    0 -0.87242887510E+02  0.54285467115E+02  0.43158550166E+03  0.44364882351E+03  0.00000000000E+00 0. -1.
         -5    1    3    3    0  503  0.43028154269E+02  0.39474978318E+02  0.10305380198E+03  0.11854059252E+03  0.47000000000E+01 0.  1.
         11    1    4    4    0    0 -0.15937435896E+02 -0.43195947213E+02  0.28847151813E+02  0.54332769912E+02  0.00000000000E+00 0. -1.
        -12    1    4    4    0    0  0.69950114061E+02 -0.42729044749E+02  0.30841114154E+02  0.87578330907E+02  0.00000000000E+00 0.  1.
</event>
<event>
12    1  0.8219652E-002  0.2459823E+03  0.7818608E-02  0.1115990E+00
         21   -1    0    0  501  502  0.00000000000E+00  0.00000000000E+00  0.59102900220E+03  0.59102900220E+03  0.00000000000E+00 0. -1.
         21   -1    0    0  502  503 -0.00000000000E+00 -0.00000000000E+00 -0.15006083154E+03  0.15006083154E+03  0.00000000000E+00 0. -1.
         -6    2    1    2    0  503  0.13300288465E+03 -0.11315835578E+03  0.11156183651E+02  0.24623516838E+03  0.17324178742E+03 0.  0.
        -24    2    3    3    0    0  0.10596274168E+03 -0.14365869540E+03  0.34835560766E+02  0.19886172699E+03  0.80414841795E+02 0.  0.
          6    2    1    2  501    0 -0.13300288465E+03  0.11315835578E+03  0.42981198701E+03  0.49485466536E+03  0.17218656986E+03 0.  0.
         24    2    5    5    0    0 -0.13480509139E+03  0.13841740077E+03  0.41709016874E+03  0.46612833661E+03  0.77328053306E+02 0.  0.
          5    1    5    5  501    0  0.18022067426E+01 -0.25259044996E+02  0.12721818274E+02  0.28726328750E+02  0.47000000000E+01 0. -1.
        -11    1    6    6    0    0 -0.33180187989E+02  0.34303164047E+01  0.35019018170E+02  0.48363452929E+02  0.00000000000E+00 0.  1.
         12    1    6    6    0    0 -0.10162490340E+03  0.13498708437E+03  0.38207115057E+03  0.41776488368E+03  0.00000000000E+00 0. -1.
         -5    1    3    3    0  503  0.27040142970E+02  0.30500339619E+02 -0.23679377115E+02  0.47373441391E+02  0.47000000000E+01 0.  1.
         13    1    4    4    0    0  0.46250903619E+02 -0.11050453048E+03 -0.48113165034E+01  0.11988972478E+03  0.00000000000E+00 0. -1.
        -14    1    4    4    0    0  0.59711838059E+02 -0.33154164920E+02  0.39646877269E+02  0.78972002211E+02  0.00000000000E+00 0.  1.
</event>
<event>
12    1  0.8219652E-002  0.2079351E+03  0.7818608E-02  0.1143379E+00
         21   -1    0    0  503  502  0.00000000000E+00  0.00000000000E+00  0.27583138444E+03  0.27583138444E+03  0.00000000000E+00 0.  1.
         21   -1    0    0  501  503 -0.00000000000E+00 -0.00000000000E+00 -0.15851090652E+03  0.15851090652E+03  0.00000000000E+00 0.  1.
          6    2    1    2  501    0  0.43748290555E+01  0.11642040044E+03  0.85424186524E+02  0.22479833336E+03  0.17223283738E+03 0.  0.
         24    2    3    3    0    0 -0.19792030235E+02  0.12166718789E+03  0.12713893307E+02  0.14785392092E+03  0.80650541088E+02 0.  0.
         -6    2    1    2    0  502 -0.43748290555E+01 -0.11642040044E+03  0.31896291401E+02  0.20954395760E+03  0.17122630638E+03 0.  0.
        -24    2    5    5    0    0 -0.45647413046E+02 -0.61908343541E+02  0.69349133791E+02  0.13144276722E+03  0.80941765357E+02 0.  0.
          5    1    3    3  501    0  0.24166859290E+02 -0.52467874499E+01  0.72710293217E+02  0.76944412443E+02  0.47000000000E+01 0. -1.
        -11    1    4    4    0    0 -0.11440118954E+02  0.85091038162E+02 -0.30051599911E+02  0.90964057487E+02  0.00000000000E+00 0.  1.
         12    1    4    4    0    0 -0.83519112810E+01  0.36576149726E+02  0.42765493218E+02  0.56889863430E+02  0.00000000000E+00 0. -1.
         -5    1    5    5    0  502  0.41272583991E+02 -0.54512056898E+02 -0.37452842390E+02  0.78101190385E+02  0.47000000000E+01 0.  1.
         13    1    6    6    0    0 -0.19302572558E+00  0.18364990457E+02  0.18670203126E+02  0.26189437149E+02  0.00000000000E+00 0. -1.
        -14    1    6    6    0    0 -0.45454387321E+02 -0.80273333998E+02  0.50678930665E+02  0.10525333007E+03  0.00000000000E+00 0.  1.
</event>
<event>
12    1  0.8219652E-002  0.2545540E+03  0.7818608E-02  0.1110719E+00
         21   -1    0    0  501  502  0.00000000000E+00  0.00000000000E+00  0.13572569515E+03  0.13572569515E+03  0.00000000000E+00 0.  1.
         21   -1    0    0  502  503 -0.00000000000E+00 -0.00000000000E+00 -0.69027540453E+03  0.69027540453E+03  0.00000000000E+00 0.  1.
         -6    2    1    2    0  503  0.18585351299E+03  0.17594232332E+02 -0.50892220473E+03  0.56903386096E+03  0.17305097269E+03 0.  0.
        -24    2    3    3    0    0  0.64529052700E+02 -0.46118594732E+02 -0.18893116775E+03  0.22090270357E+03  0.82535415881E+02 0.  0.
          6    2    1    2  501    0 -0.18585351299E+03 -0.17594232332E+02 -0.45627504639E+02  0.25696723872E+03  0.17058489762E+03 0.  0.
         24    2    5    5    0    0 -0.11957254445E+03 -0.69312842423E+02 -0.62328039339E+02  0.17112447969E+03  0.79353257955E+02 0.  0.
          5    1    5    5  501    0 -0.66280968533E+02  0.51718610092E+02  0.16700534701E+02  0.85842759036E+02  0.47000000000E+01 0. -1.
        -11    1    6    6    0    0 -0.12938859159E+03 -0.66765012732E+02 -0.66615207359E+02  0.16011421052E+03  0.00000000000E+00 0.  1.
         12    1    6    6    0    0  0.98160471359E+01 -0.25478296912E+01  0.42871680198E+01  0.11010269167E+02  0.00000000000E+00 0. -1.
         -5    1    3    3    0  503  0.12132446029E+03  0.63712827064E+02 -0.31999103698E+03  0.34813115739E+03  0.47000000000E+01 0.  1.
         13    1    4    4    0    0 -0.84764198428E+00 -0.33743659862E+02 -0.19750718133E+02  0.39108105868E+02  0.00000000000E+00 0. -1.
        -14    1    4    4    0    0  0.65376694684E+02 -0.12374934870E+02 -0.16918044962E+03  0.18179459770E+03  0.00000000000E+00 0.  1.
</event>
<event>
12    1  0.8219652E-002  0.1950017E+03  0.7818608E-02  0.1154470E+00
         21   -1    0    0  501  502  0.00000000000E+00  0.00000000000E+00  0.46883353612E+03  0.46883353612E+03  0.00000000000E+00 0. -1.
         21   -1    0    0  502  503 -0.00000000000E+00 -0.00000000000E+00 -0.89534138796E+02  0.89534138796E+02  0.00000000000E+00 0. -1.
         -6    2    1    2    0  503 -0.78873690421E+02  0.41449702262E+02  0.10071730365E+03  0.21947583531E+03  0.17345469199E+03 0.  0.
        -24    2    3    3    0    0 -0.12275584707E+03  0.30038368216E+02  0.86000051069E+02  0.17157437667E+03  0.77913133626E+02 0.  0.
          6    2    1    2  501    0  0.78873690421E+02 -0.41449702262E+02  0.27858209367E+03  0.33889183960E+03  0.17117406105E+03 0.  0.
         24    2    5    5    0    0  0.85613528839E+02 -0.30497285880E+02  0.89918846045E+02  0.14973240460E+03  0.77939934216E+02 0.  0.
          5    1    5    5  501    0 -0.67398384180E+01 -0.10952416381E+02  0.18866324763E+03  0.18915943501E+03  0.47000000000E+01 0. -1.
        -13    1    6    6    0    0  0.95122855181E+02 -0.96433305903E+01  0.63595337370E+02  0.11482908315E+03  0.00000000000E+00 0.  1.
         14    1    6    6    0    0 -0.95093263422E+01 -0.20853955290E+02  0.26323508676E+02  0.34903321442E+02  0.00000000000E+00 0. -1.
         -5    1    3    3    0  503  0.43882156647E+02  0.11411334045E+02  0.14717252582E+02  0.47901458644E+02  0.47000000000E+01 0.  1.
         13    1    4    4    0    0 -0.16476333597E+02  0.38077895762E+02  0.18598859450E+02  0.45467716979E+02  0.00000000000E+00 0. -1.
        -14    1    4    4    0    0 -0.10627951347E+03 -0.80395275458E+01  0.67401191620E+02  0.12610665969E+03  0.00000000000E+00 0.  1.
</event>
<event>
12    1  0.8219652E-002  0.1802147E+03  0.7818608E-02  0.1168351E+00
         21   -1    0    0  503  502  0.00000000000E+00  0.00000000000E+00  0.57381875279E+03  0.57381875279E+03  0.00000000000E+00 0.  1.
         21   -1    0    0  501  503 -0.00000000000E+00 -0.00000000000E+00 -0.14302946684E+03  0.14302946684E+03  0.00000000000E+00 0.  1.
          6    2    1    2  501    0 -0.29944704436E+02  0.41933534008E+02 -0.64056509869E+02  0.19126048576E+03  0.17269114152E+03 0.  0.
         24    2    3    3    0    0  0.17402686245E+02  0.45269754257E+02 -0.96268926572E+02  0.13370498594E+03  0.79101914660E+02 0.  0.
         -6    2    1    2    0  502  0.29944704436E+02 -0.41933534008E+02  0.49484579582E+03  0.52558773387E+03  0.16945500213E+03 0.  0.
        -24    2    5    5    0    0  0.45859758473E+02 -0.64855652099E+02  0.20244211004E+03  0.23181789555E+03  0.80295427795E+02 0.  0.
          5    1    3    3  501    0 -0.47347390681E+02 -0.33362202484E+01  0.32212416703E+02  0.57555499822E+02  0.47000000000E+01 0. -1.
        -13    1    4    4    0    0 -0.31793096946E+02  0.18242748115E+02 -0.38201642667E+02  0.52943029519E+02  0.00000000000E+00 0.  1.
         14    1    4    4    0    0  0.49195783192E+02  0.27027006142E+02 -0.58067283905E+02  0.80761956421E+02  0.00000000000E+00 0. -1.
         -5    1    5    5    0  502 -0.15915054037E+02  0.22922118090E+02  0.29240368578E+03  0.29376983831E+03  0.47000000000E+01 0.  1.
         13    1    6    6    0    0  0.41966113067E+02  0.47932712964E+01  0.62223735503E+02  0.75205873146E+02  0.00000000000E+00 0. -1.
        -14    1    6    6    0    0  0.38936454061E+01 -0.69648923395E+02  0.14021837454E+03  0.15661202241E+03  0.00000000000E+00 0.  1.
</event>
<event>
12    1  0.8219652E-002  0.2567376E+03  0.7818608E-02  0.1109250E+00
         21   -1    0    0  501  502  0.00000000000E+00  0.00000000000E+00  0.45985163567E+03  0.45985163567E+03  0.00000000000E+00 0.  1.
         21   -1    0    0  502  503 -0.00000000000E+00 -0.00000000000E+00 -0.14710909362E+03  0.14710909362E+03  0.00000000000E+00 0. -1.
         -6    2    1    2    0  503 -0.10845276803E+03 -0.15606176135E+03  0.10505998670E+03  0.27740191018E+03  0.17261790961E+03 0.  0.
        -24    2    3    3    0    0 -0.56958563940E+02 -0.10784801761E+03 -0.72587812305E+01  0.14468486618E+03  0.77495468816E+02 0.  0.
          6    2    1    2  501    0  0.10845276803E+03  0.15606176135E+03  0.20768255536E+03  0.32955881910E+03  0.17134671050E+03 0.  0.
         24    2    5    5    0    0  0.13168298590E+03  0.16752170826E+03  0.20523945564E+03  0.30311960312E+03  0.65987333094E+02 0.  0.
          5    1    5    5  501    0 -0.23230217870E+02 -0.11459946908E+02  0.24430997128E+01  0.26439215980E+02  0.47000000000E+01 0. -1.
        -11    1    6    6    0    0  0.82220220297E+02  0.60519710802E+02  0.12054187482E+03  0.15796564059E+03  0.00000000000E+00 0.  1.
         12    1    6    6    0    0  0.49462765605E+02  0.10700199746E+03  0.84697580821E+02  0.14515396253E+03  0.00000000000E+00 0. -1.
         -5    1    3    3    0  503 -0.51494204092E+02 -0.48213743739E+02  0.11231876793E+03  0.13271704401E+03  0.47000000000E+01 0.  1.
         11    1    4    4    0    0 -0.43295008429E+02 -0.11899120708E+03 -0.35781678950E+01  0.12667347159E+03  0.00000000000E+00 0. -1.
        -12    1    4    4    0    0 -0.13663555511E+02  0.11143189468E+02 -0.36806133356E+01  0.18011394595E+02  0.00000000000E+00 0.  1.
</event>
<event>
12    1  0.8219652E-002  0.1796780E+03  0.7818608E-02  0.1168382E+00
         21   -1    0    0  503  502  0.00000000000E+00  0.00000000000E+00  0.75276364124E+02  0.75276364124E+02  0.00000000000E+00 0. -1.
         21   -1    0    0  501  503 -0.00000000000E+00 -0.00000000000E+00 -0.71015592785E+03  0.71015592785E+03  0.00000000000E+00 0. -1.
          6    2    1    2  501    0  0.45529127218E+02 -0.16292373534E+02 -0.56515858420E+03  0.59270140408E+03  0.17190807497E+03 0.  0.
         24    2    3    3    0    0  0.62428450835E+02  0.45370412892E+02 -0.30303289986E+03  0.32284986942E+03  0.80295167633E+02 0.  0.
         -6    2    1    2    0  502 -0.45529127218E+02  0.16292373534E+02 -0.69720979530E+02  0.19273088790E+03  0.17304865588E+03 0.  0.
        -24    2    5    5    0    0  0.31351853167E+02 -0.18845443473E+01 -0.76512276398E+02  0.11329980329E+03  0.77435307076E+02 0.  0.
          5    1    3    3  501    0 -0.16899323617E+02 -0.61662786426E+02 -0.26212568433E+03  0.26985153465E+03  0.47000000000E+01 0. -1.
        -11    1    4    4    0    0  0.23715953597E+02  0.14832145828E+02 -0.17291008239E+02  0.32884920113E+02  0.00000000000E+00 0.  1.
         12    1    4    4    0    0  0.38712497237E+02  0.30538267063E+02 -0.28574189163E+03  0.28996494931E+03  0.00000000000E+00 0. -1.
         -5    1    5    5    0  502 -0.76880980385E+02  0.18176917881E+02  0.67912968679E+01  0.79431084607E+02  0.47000000000E+01 0.  1.
         13    1    6    6    0    0  0.21562819947E+02  0.32873718582E+02 -0.15213384392E+02  0.42155469896E+02  0.00000000000E+00 0. -1.
        -14    1    6    6    0    0  0.97890332202E+01 -0.34758262929E+02 -0.61298892006E+02  0.71144333396E+02  0.00000000000E+00 0.  1.
</event>
<event>
12    1  0.8219652E-002  0.1878419E+03  0.7818608E-02  0.1160819E+00
         21   -1    0    0  501  502  0.00000000000E+00  0.00000000000E+00  0.47232215016E+03  0.47232215016E+03  0.00000000000E+00 0.  1.
         21   -1    0    0  502  503 -0.00000000000E+00 -0.00000000000E+00 -0.12692863361E+03  0.12692863361E+03  0.00000000000E+00 0.  1.
         -6    2    1    2    0  503 -0.95575342488E+01 -0.76200538200E+02 -0.20283917986E+02  0.18893392374E+03  0.17142555740E+03 0.  0.
        -24    2    3    3    0    0  0.10679395942E+02 -0.57883906045E+02  0.51335475877E+02  0.11214551359E+03  0.80477879306E+02 0.  0.
          6    2    1    2  501    0  0.95575342488E+01  0.76200538200E+02  0.36567743454E+03  0.41031686002E+03  0.16953486663E+03 0.  0.
         24    2    5    5    0    0  0.71726883627E+02  0.43288486397E+02  0.22884262511E+03  0.25638802507E+03  0.79669526453E+02 0.  0.
          5    1    5    5  501    0 -0.62169349379E+02  0.32912051803E+02  0.13683480943E+03  0.15392883495E+03  0.47000000000E+01 0. -1.
        -13    1    6    6    0    0  0.83898548079E+02  0.49257510252E+02  0.21899218249E+03  0.23963064219E+03  0.00000000000E+00 0.  1.
         14    1    6    6    0    0 -0.12171664451E+02 -0.59690238547E+01  0.98504426229E+01  0.16757382885E+02  0.00000000000E+00 0. -1.
         -5    1    3    3    0  503 -0.20236930190E+02 -0.18316632155E+02 -0.71619393863E+02  0.76788410156E+02  0.47000000000E+01 0.  1.
         11    1    4    4    0    0  0.24717109757E+02  0.12647230062E+02  0.15466433419E+02  0.31782046909E+02  0.00000000000E+00 0. -1.
        -12    1    4    4    0    0 -0.14037713816E+02 -0.70531136108E+02  0.35869042458E+02  0.80363466679E+02  0.00000000000E+00 0.  1.
</event>
<event>
12    1  0.8219652E-002  0.1750238E+03  0.7818608E-02  0.1173013E+00
         21   -1    0    0  501  502  0.00000000000E+00  0.00000000000E+00  0.61239967615E+03  0.61239967615E+03  0.00000000000E+00 0. -1.
         21   -1    0    0  502  503 -0.00000000000E+00 -0.00000000000E+00 -0.15013045032E+03  0.15013045032E+03  0.00000000000E+00 0. -1.
         -6    2    1    2    0  503 -0.17278646489E+02  0.10428188845E+02 -0.80471115071E+02  0.19263677151E+03  0.17385633906E+03 0.  0.
        -24    2    3    3    0    0  0.19496378929E+02  0.45130246219E+02 -0.10163992104E+03  0.13762001382E+03  0.78687653042E+02 0.  0.
          6    2    1    2  501    0  0.17278646489E+02 -0.10428188845E+02  0.54274034090E+03  0.56989335495E+03  0.17263852302E+03 0.  0.
         24    2    5    5    0    0 -0.44355954124E+02 -0.49895249979E+01  0.17956620578E+03  0.20145618869E+03  0.79675765950E+02 0.  0.
          5    1    5    5  501    0  0.61634600613E+02 -0.54386638474E+01  0.36317413513E+03  0.36843716626E+03  0.47000000000E+01 0. -1.
        -11    1    6    6    0    0 -0.28151625712E+02 -0.33242448973E+02  0.43557985739E+02  0.61602537006E+02  0.00000000000E+00 0.  1.
         12    1    6    6    0    0 -0.16204328412E+02  0.28252923975E+02  0.13600822004E+03  0.13985365169E+03  0.00000000000E+00 0. -1.
         -5    1    3    3    0  503 -0.36775025417E+02 -0.34702057373E+02  0.21168805966E+02  0.55016757687E+02  0.47000000000E+01 0.  1.
         11    1    4    4    0    0 -0.23224022117E+02  0.30342433883E+02 -0.77414286363E+02  0.86330702709E+02  0.00000000000E+00 0. -1.
        -12    1    4    4    0    0  0.42720401046E+02  0.14787812335E+02 -0.24225634675E+02  0.51289311114E+02  0.00000000000E+00 0.  1.
</event>
<event>
12    1  0.8219652E-002  0.1740135E+03  0.7818608E-02  0.1174755E+00
         21   -1    0    0  503  502  0.00000000000E+00  0.00000000000E+00  0.43341990676E+03  0.43341990676E+03  0.00000000000E+00 0. -1.
         21   -1    0    0  501  503 -0.00000000000E+00 -0.00000000000E+00 -0.11314421102E+03  0.11314421102E+03  0.00000000000E+00 0. -1.
          6    2    1    2  501    0 -0.24348795611E+02 -0.14324300579E+02 -0.10849482547E+02  0.17435137214E+03  0.17170509678E+03 0.  0.
         24    2    3    3    0    0 -0.64934628573E+01  0.56773694364E+02  0.62093884605E+01  0.98940279634E+02  0.80530770500E+02 0.  0.
         -6    2    1    2    0  502  0.24348795611E+02  0.14324300579E+02  0.33112517829E+03  0.37221274564E+03  0.16763172398E+03 0.  0.
        -24    2    5    5    0    0 -0.41591188889E+02 -0.20277039224E+02  0.15119266105E+03  0.17742276892E+03  0.80489955031E+02 0.  0.
          5    1    3    3  501    0 -0.17855332754E+02 -0.71097994943E+02 -0.17058871008E+02  0.75411092504E+02  0.47000000000E+01 0. -1.
        -11    1    4    4    0    0  0.31244155958E+01 -0.18089426384E+02  0.13963737533E+02  0.23064589431E+02  0.00000000000E+00 0.  1.
         12    1    4    4    0    0 -0.96178784530E+01  0.74863120749E+02 -0.77543490728E+01  0.75875690203E+02  0.00000000000E+00 0. -1.
         -5    1    5    5    0  502  0.65939984500E+02  0.34601339802E+02  0.17993251724E+03  0.19478997673E+03  0.47000000000E+01 0.  1.
         11    1    6    6    0    0 -0.46998108387E+02  0.15862174370E+02  0.11821847038E+03  0.12820311036E+03  0.00000000000E+00 0. -1.
        -12    1    6    6    0    0  0.54069194981E+01 -0.36139213593E+02  0.32974190672E+02  0.49219658553E+02  0.00000000000E+00 0.  1.
</event>
<event>
12    1  0.8219652E-002  0.3214931E+03  0.7818608E-02  0.1075684E+00
         21   -1    0    0  503  502  0.00000000000E+00  0.00000000000E+00  0.11845386086E+04  0.11845386086E+04  0.00000000000E+00 0.  1.
         21   -1    0    0  501  503 -0.00000000000E+00 -0.00000000000E+00 -0.19084820267E+03  0.19084820267E+03  0.00000000000E+00 0. -1.
          6    2    1    2  501    0  0.24778657633E+03  0.90897961712E+02 -0.16077812761E+02  0.31567473264E+03  0.17242799631E+03 0.  0.
         24    2    3    3    0    0  0.17299128291E+03  0.56622523235E+02 -0.76749788980E+02  0.21334037722E+03  0.80569797965E+02 0.  0.
         -6    2    1    2    0  502 -0.24778657633E+03 -0.90897961712E+02  0.10097682187E+04  0.10597120786E+04  0.18356799083E+03 0.  0.
        -24    2    5    5    0    0 -0.24659481214E+03 -0.52679132205E+02  0.96545078881E+03  0.10009904998E+04  0.79389311023E+02 0.  0.
          5    1    3    3  501    0  0.74795293420E+02  0.34275438478E+02  0.60671976219E+02  0.10233435542E+03  0.47000000000E+01 0. -1.
        -11    1    4    4    0    0  0.11312735399E+03 -0.15403834395E+01 -0.27517658894E+02  0.11643621668E+03  0.00000000000E+00 0.  1.
         12    1    4    4    0    0  0.59863928913E+02  0.58162906674E+02 -0.49232130086E+02  0.96904160542E+02  0.00000000000E+00 0. -1.
         -5    1    5    5    0  502 -0.11917641901E+01 -0.38218829507E+02  0.44317429901E+02  0.58721578860E+02  0.47000000000E+01 0.  1.
         11    1    6    6    0    0 -0.12343837550E+03  0.12063809969E+02  0.40775449914E+03  0.42619983532E+03  0.00000000000E+00 0. -1.
        -12    1    6    6    0    0 -0.12315643664E+03 -0.64742942174E+02  0.55769628967E+03  0.57479066447E+03  0.00000000000E+00 0.  1.
</event>
<event>
12    1  0.8219652E-002  0.2515572E+03  0.7818608E-02  0.1112492E+00
         21   -1    0    0  503  502  0.00000000000E+00  0.00000000000E+00  0.19894792052E+03  0.19894792052E+03  0.00000000000E+00 0.  1.
         21   -1    0    0  501  503 -0.00000000000E+00 -0.00000000000E+00 -0.26561075011E+04  0.26561075011E+04  0.00000000000E+00 0.  1.
          6    2    1    2  501    0  0.38320028763E+02  0.18048434040E+03 -0.25686045100E+04  0.25808932902E+04  0.17099130081E+03 0.  0.
         24    2    3    3    0    0 -0.24670009542E+01  0.15850186830E+03 -0.13785940841E+04  0.13899719181E+04  0.79820774064E+02 0.  0.
         -6    2    1    2    0  502 -0.38320028763E+02 -0.18048434040E+03  0.11144492938E+03  0.27416213145E+03  0.16941629291E+03 0.  0.
        -24    2    5    5    0    0 -0.76816365792E+02 -0.12351487168E+03  0.31842054625E+02  0.16887112519E+03  0.79667200905E+02 0.  0.
          5    1    3    3  501    0  0.40787029717E+02  0.21982472100E+02 -0.11900104258E+04  0.11909213721E+04  0.47000000000E+01 0. -1.
        -11    1    4    4    0    0  0.15134302695E+02  0.18222509697E+02 -0.45534220886E+03  0.45595793024E+03  0.00000000000E+00 0.  1.
         12    1    4    4    0    0 -0.17601303649E+02  0.14027935860E+03 -0.92325187527E+03  0.93401398787E+03  0.00000000000E+00 0. -1.
         -5    1    5    5    0  502  0.38496337029E+02 -0.56969468720E+02  0.79602874755E+02  0.10529100626E+03  0.47000000000E+01 0.  1.
         11    1    6    6    0    0  0.16592664400E+02 -0.22214616404E+02  0.14455064703E+01  0.27764999241E+02  0.00000000000E+00 0. -1.
        -12    1    6    6    0    0 -0.93409030191E+02 -0.10130025527E+03  0.30396548155E+02  0.14110612594E+03  0.00000000000E+00 0.  1.
</event>
<event>
12    1  0.8219652E-002  0.2228459E+03  0.7818608E-02  0.1132174E+00
         21   -1    0    0  501  502  0.00000000000E+00  0.00000000000E+00  0.18068195795E+04  0.18068195795E+04  0.00000000000E+00 0.  1.
         21   -1    0    0  502  503 -0.00000000000E+00 -0.00000000000E+00 -0.28730809803E+02  0.28730809803E+02  0.00000000000E+00 0.  1.
         -6    2    1    2    0  503  0.61558780034E+02  0.12680756232E+03  0.67460146819E+03  0.70978642047E+03  0.16982338041E+03 0.  0.
        -24    2    3    3    0    0  0.63340659711E+02  0.42614846725E+02  0.53695962937E+03  0.54835855965E+03  0.80891297635E+02 0.  0.
          6    2    1    2  501    0 -0.61558780034E+02 -0.12680756232E+03  0.11034873015E+04  0.11257639688E+04  0.17259967462E+03 0.  0.
         24    2    5    5    0    0 -0.32762546132E+02 -0.15486086158E+03  0.97809913492E+03  0.99400474523E+03  0.79449637635E+02 0.  0.
          5    1    5    5  501    0 -0.28796233903E+02  0.28053299254E+02  0.12538816655E+03  0.13175922357E+03  0.47000000000E+01 0. -1.
        -13    1    6    6    0    0 -0.51074503085E+01 -0.10306336808E+02  0.29529892886E+03  0.29552286546E+03  0.00000000000E+00 0.  1.
         14    1    6    6    0    0 -0.27655095823E+02 -0.14455452477E+03  0.68280020606E+03  0.69848187976E+03  0.00000000000E+00 0. -1.
         -5    1    3    3    0  503 -0.17818796768E+01  0.84192715598E+02  0.13764183882E+03  0.16142786082E+03  0.47000000000E+01 0.  1.
         11    1    4    4    0    0  0.33892624193E+02  0.14984522972E+02  0.45962074358E+03  0.46111221393E+03  0.00000000000E+00 0. -1.
        -12    1    4    4    0    0  0.29448035518E+02  0.27630323753E+02  0.77338885788E+02  0.87246345720E+02  0.00000000000E+00 0.  1.
</event>
<event>
12    1  0.8219652E-002  0.1813012E+03  0.7818608E-02  0.1166556E+00
         21   -1    0    0  503  502  0.00000000000E+00  0.00000000000E+00  0.46593372482E+02  0.46593372482E+02  0.00000000000E+00 0. -1.
         21   -1    0    0  501  503 -0.00000000000E+00 -0.00000000000E+00 -0.77235696860E+03  0.77235696860E+03  0.00000000000E+00 0.  1.
          6    2    1    2  501    0 -0.37480123624E+02 -0.42792459077E+02 -0.48349653580E+03  0.51637102827E+03  0.17214582330E+03 0.  0.
         24    2    3    3    0    0 -0.68934931987E+02 -0.62240090834E+02 -0.45116507781E+03  0.46702502006E+03  0.77049258082E+02 0.  0.
         -6    2    1    2    0  502  0.37480123624E+02  0.42792459077E+02 -0.24226706032E+03  0.30257931282E+03  0.17211902222E+03 0.  0.
        -24    2    5    5    0    0 -0.33131210532E+02  0.63238127504E+02 -0.12733815293E+03  0.16607023025E+03  0.79168038398E+02 0.  0.
          5    1    3    3  501    0  0.31454808363E+02  0.19447631757E+02 -0.32331457993E+02  0.49346008208E+02  0.47000000000E+01 0. -1.
        -13    1    4    4    0    0 -0.46394263977E+02 -0.73573162637E+02 -0.25909576830E+03  0.27330579053E+03  0.00000000000E+00 0.  1.
         14    1    4    4    0    0 -0.22540668010E+02  0.11333071803E+02 -0.19206930951E+03  0.19371922952E+03  0.00000000000E+00 0. -1.
         -5    1    5    5    0  502  0.70611334156E+02 -0.20445668427E+02 -0.11492890739E+03  0.13650908257E+03  0.47000000000E+01 0.  1.
         11    1    6    6    0    0 -0.64268016711E+01  0.74731229412E+02 -0.10666232698E+03  0.13039521627E+03  0.00000000000E+00 0. -1.
        -12    1    6    6    0    0 -0.26704408861E+02 -0.11493101908E+02 -0.20675825946E+02  0.35675013982E+02  0.00000000000E+00 0.  1.
</event>
<event>
12    1  0.8219652E-002  0.1920398E+03  0.7818608E-02  0.1156973E+00
         21   -1    0    0  501  502  0.00000000000E+00  0.00000000000E+00  0.45118813845E+03  0.45118813845E+03  0.00000000000E+00 0.  1.
         21   -1    0    0  502  503 -0.00000000000E+00 -0.00000000000E+00 -0.32751383505E+03  0.32751383505E+03  0.00000000000E+00 0.  1.
         -6    2    1    2    0  503 -0.81513540916E+02  0.88841857340E+00 -0.27582772179E+03  0.33609552231E+03  0.17387932989E+03 0.  0.
        -24    2    3    3    0    0 -0.12244833704E+03  0.31072477324E+01 -0.24079063996E+03  0.28196357389E+03  0.80746978118E+02 0.  0.
          6    2    1    2  501    0  0.81513540916E+02 -0.88841857340E+00  0.39950202520E+03  0.44260645120E+03  0.17220149784E+03 0.  0.
         24    2    5    5    0    0  0.12197717079E+03  0.11503575650E+02  0.31240985088E+03  0.34566314977E+03  0.82899552077E+02 0.  0.
          5    1    5    5  501    0 -0.40463629874E+02 -0.12391994224E+02  0.87092174323E+02  0.96943301428E+02  0.47000000000E+01 0. -1.
        -13    1    6    6    0    0  0.47420561337E+02  0.47226413147E+01  0.22760922823E+03  0.23254456294E+03  0.00000000000E+00 0.  1.
         14    1    6    6    0    0  0.74556609453E+02  0.67809343356E+01  0.84800622646E+02  0.11311858682E+03  0.00000000000E+00 0. -1.
         -5    1    3    3    0  503  0.40934796120E+02 -0.22188291590E+01 -0.35037081833E+02  0.54131948418E+02  0.47000000000E+01 0.  1.
         11    1    4    4    0    0 -0.57904373300E+02 -0.30982837849E+02 -0.68736637724E+02  0.95066177235E+02  0.00000000000E+00 0. -1.
        -12    1    4    4    0    0 -0.64543963736E+02  0.34090085582E+02 -0.17205400224E+03  0.18689739665E+03  0.00000000000E+00 0.  1.
</event>
<event>
12    1  0.8219652E-002  0.1867152E+03  0.7818608E-02  0.1161847E+00
         21   -1    0    0  503  502  0.00000000000E+00  0.00000000000E+00  0.36759768878E+02  0.36759768878E+02  0.00000000000E+00 0.  1.
         21   -1    0    0  501  503 -0.00000000000E+00 -0.00000000000E+00 -0.10489900822E+04  0.10489900822E+04  0.00000000000E+00 0.  1.
          6    2    1    2  501    0 -0.34843585515E+02 -0.62259949997E+02 -0.68324718547E+03  0.70830028131E+03  0.17254621187E+03 0.  0.
         24    2    3    3    0    0 -0.14424500205E+02  0.22984404767E+02 -0.21109637643E+03  0.22805865928E+03  0.81931208086E+02 0.  0.
         -6    2    1    2    0  502  0.34843585515E+02  0.62259949997E+02 -0.32898312785E+03  0.37744956976E+03  0.17072756801E+03 0.  0.
        -24    2    5    5    0    0 -0.20628984239E+02  0.83089150854E+02 -0.15608077119E+03  0.19461528266E+03  0.78641840820E+02 0.  0.
          5    1    3    3  501    0 -0.20419085310E+02 -0.85244354764E+02 -0.47215080903E+03  0.48024162203E+03  0.47000000000E+01 0. -1.
        -11    1    4    4    0    0  0.35639288455E+01 -0.13808500930E+02 -0.13201452002E+01  0.14321978568E+02  0.00000000000E+00 0.  1.
         12    1    4    4    0    0 -0.17988429051E+02  0.36792905697E+02 -0.20977623123E+03  0.21373668071E+03  0.00000000000E+00 0. -1.
         -5    1    5    5    0  502  0.55472569755E+02 -0.20829200856E+02 -0.17290235665E+03  0.18283428710E+03  0.47000000000E+01 0.  1.
         11    1    6    6    0    0 -0.21010618970E+01  0.68592561597E+02 -0.15671483455E+03  0.17108154002E+03  0.00000000000E+00 0. -1.
        -12    1    6    6    0    0 -0.18527922342E+02  0.14496589257E+02  0.63406335292E+00  0.23533742642E+02  0.00000000000E+00 0.  1.
</event>
<event>
12    1  0.8219652E-002  0.1861666E+03  0.7818608E-02  0.1162072E+00
         21   -1    0    0  501  502  0.00000000000E+00  0.00000000000E+00  0.67211702825E+02  0.67211702825E+02  0.00000000000E+00 0.  1.
         21   -1    0    0  502  503 -0.00000000000E+00 -0.00000000000E+00 -0.67625902211E+03  0.67625902211E+03  0.00000000000E+00 0.  1.
         -6    2    1    2    0  503 -0.56369381775E+01 -0.69397342908E+02 -0.48668415850E+03  0.52107529701E+03  0.17265638924E+03 0.  0.
        -24    2    3    3    0    0  0.20525589196E+02 -0.91359889891E+02 -0.46351523450E+03  0.47953350663E+03  0.79612072426E+02 0.  0.
          6    2    1    2  501    0  0.56369381775E+01  0.69397342908E+02 -0.12236316079E+03  0.22239542793E+03  0.17216043962E+03 0.  0.
         24    2    5    5    0    0 -0.39076831338E+02 -0.38989104645E+01 -0.26665329066E+02  0.93741524221E+02  0.80834604835E+02 0.  0.
          5    1    5    5  501    0  0.44713769515E+02  0.73296253372E+02 -0.95697831720E+02  0.12865390370E+03  0.47000000000E+01 0. -1.
        -11    1    6    6    0    0  0.63656279083E+01 -0.29086983816E+01  0.24396150828E+02  0.25380187552E+02  0.00000000000E+00 0.  1.
         12    1    6    6    0    0 -0.45442459246E+02 -0.99021208296E+00 -0.51061479894E+02  0.68361336670E+02  0.00000000000E+00 0. -1.
         -5    1    3    3    0  503 -0.26162527373E+02  0.21962546984E+02 -0.23168924002E+02  0.41541790380E+02  0.47000000000E+01 0.  1.
         11    1    4    4    0    0  0.24957049310E+02 -0.54130544729E+02 -0.12010528084E+03  0.13408299172E+03  0.00000000000E+00 0. -1.
        -12    1    4    4    0    0 -0.44314601144E+01 -0.37229345162E+02 -0.34340995366E+03  0.34545051491E+03  0.00000000000E+00 0.  1.
</event>
<event>
12    1  0.8219652E-002  0.2281384E+03  0.7818608E-02  0.1128020E+00
         21   -1    0    0  503  502  0.00000000000E+00  0.00000000000E+00  0.58320995244E+02  0.58320995244E+02  0.00000000000E+00 0. -1.
         21   -1    0    0  501  503 -0.00000000000E+00 -0.00000000000E+00 -0.15231170126E+04  0.15231170126E+04  0.00000000000E+00 0.  1.
          6    2    1    2  501    0 -0.10214348619E+03 -0.10867396064E+03 -0.22269006530E+03  0.31855466698E+03  0.17217110437E+03 0.  0.
         24    2    3    3    0    0  0.75679995715E+00 -0.68238170806E+02 -0.61998221325E+02  0.12344577249E+03  0.82085678397E+02 0.  0.
         -6    2    1    2    0  502  0.10214348619E+03  0.10867396064E+03 -0.12421059521E+04  0.12628833409E+04  0.17263781452E+03 0.  0.
        -24    2    5    5    0    0  0.12751902870E+03  0.12211860375E+03 -0.95242507022E+03  0.97174457689E+03  0.77459358812E+02 0.  0.
          5    1    3    3  501    0 -0.10290028615E+03 -0.40435789835E+02 -0.16069184397E+03  0.19510889448E+03  0.47000000000E+01 0. -1.
        -11    1    4    4    0    0 -0.43209885931E+01  0.17827039527E+02 -0.21293443143E+02  0.28104892840E+02  0.00000000000E+00 0.  1.
         12    1    4    4    0    0  0.50777885503E+01 -0.86065210333E+02 -0.40704778182E+02  0.95340879653E+02  0.00000000000E+00 0. -1.
         -5    1    5    5    0  502 -0.25375542509E+02 -0.13444643113E+02 -0.28968088188E+03  0.29113876402E+03  0.47000000000E+01 0.  1.
         13    1    6    6    0    0  0.23881612649E+02  0.51223501286E+02 -0.16597705885E+03  0.17533557132E+03  0.00000000000E+00 0. -1.
        -14    1    6    6    0    0  0.10363741605E+03  0.70895102468E+02 -0.78644801137E+03  0.79640900557E+03  0.00000000000E+00 0.  1.
</event>
<event>
12    1  0.8219652E-002  0.1975585E+03  0.7818608E-02  0.1152399E+00
         21   -1    0    0  503  502  0.00000000000E+00  0.00000000000E+00  0.15776308398E+03  0.15776308398E+03  0.00000000000E+00 0. -1.
         21   -1    0    0  501  503 -0.00000000000E+00 -0.00000000000E+00 -0.38783691914E+03  0.38783691914E+03  0.00000000000E+00 0. -1.
          6    2    1    2  501    0  0.34370617799E+02  0.87088526096E+02 -0.28165619812E+03  0.34403423813E+03  0.17396434210E+03 0.  0.
         24    2    3    3    0    0 -0.40833921359E+02  0.62318959868E+02 -0.21250547725E+03  0.23880512468E+03  0.79487406681E+02 0.  0.
         -6    2    1    2    0  502 -0.34370617799E+02 -0.87088526096E+02  0.51582362950E+02  0.20156576499E+03  0.17088670722E+03 0.  0.
        -24    2    5    5    0    0  0.20080690917E+02 -0.89619433415E+02 -0.41009460298E+01  0.12350123136E+03  0.82467323194E+02 0.  0.
          5    1    3    3  501    0  0.75204539157E+02  0.24769566228E+02 -0.69150720868E+02  0.10522911345E+03  0.47000000000E+01 0. -1.
        -11    1    4    4    0    0  0.86766871766E+01 -0.93938210158E+01 -0.74495440537E+02  0.75585047691E+02  0.00000000000E+00 0.  1.
         12    1    4    4    0    0 -0.49510608535E+02  0.71712780884E+02 -0.13801003671E+03  0.16322007699E+03  0.00000000000E+00 0. -1.
         -5    1    5    5    0  502 -0.54451308715E+02  0.25309073193E+01  0.55683308980E+02  0.78064533635E+02  0.47000000000E+01 0.  1.
         13    1    6    6    0    0  0.35941390128E+02 -0.93422224599E+02  0.11716578120E+02  0.10078082048E+03  0.00000000000E+00 0. -1.
        -14    1    6    6    0    0 -0.15860699211E+02  0.38027911837E+01 -0.15817524150E+02  0.22720410879E+02  0.00000000000E+00 0.  1.
</event>
<event>
12    1  0.8219652E-002  0.1865024E+03  0.7818608E-02  0.1161958E+00
         21   -1    0    0  503  502  0.00000000000E+00  0.00000000000E+00  0.36262855585E+03  0.36262855585E+03  0.00000000000E+00 0.  1.
         21   -1    0    0  501  503 -0.00000000000E+00 -0.00000000000E+00 -0.96428100557E+02  0.96428100557E+02  0.00000000000E+00 0. -1.
          6    2    1    2  501    0  0.66150465221E+02 -0.19417926713E+02  0.10815507898E+03  0.21559372922E+03  0.17329222442E+03 0.  0.
         24    2    3    3    0    0  0.69061661784E+02 -0.67099413049E+02  0.12225969992E+03  0.16556344303E+03  0.56497567047E+02 0.  0.
         -6    2    1    2    0  502 -0.66150465221E+02  0.19417926713E+02  0.15804537632E+03  0.24346292719E+03  0.17188052831E+03 0.  0.
        -24    2    5    5    0    0 -0.79832322741E+02 -0.27084224648E+01  0.17823902838E+03  0.21019669601E+03  0.77672160181E+02 0.  0.
          5    1    3    3  501    0 -0.29111965637E+01  0.47681486337E+02 -0.14104620946E+02  0.50030286195E+02  0.47000000000E+01 0. -1.
        -13    1    4    4    0    0  0.14066318896E+02 -0.16639794122E+02  0.72887408588E+02  0.76074426757E+02  0.00000000000E+00 0.  1.
         14    1    4    4    0    0  0.54995342888E+02 -0.50459618927E+02  0.49372291337E+02  0.89489016273E+02  0.00000000000E+00 0. -1.
         -5    1    5    5    0  502  0.13681857520E+02  0.22126349177E+02 -0.20193652065E+02  0.33266231179E+02  0.47000000000E+01 0.  1.
         11    1    6    6    0    0 -0.18884665822E+02  0.11427810638E+02  0.84123570355E+00  0.22089208603E+02  0.00000000000E+00 0. -1.
        -12    1    6    6    0    0 -0.60947656919E+02 -0.14136233103E+02  0.17739779268E+03  0.18810748741E+03  0.00000000000E+00 0.  1.
</event>
<event>
12    1  0.8219652E-002  0.1945368E+03  0.7818608E-02  0.1156050E+00
         21   -1    0    0  503  502  0.00000000000E+00  0.00000000000E+00  0.42667928505E+03  0.42667928505E+03  0.00000000000E+00 0. -1.
         21   -1    0    0  501  503 -0.00000000000E+00 -0.00000000000E+00 -0.17051732878E+03  0.17051732878E+03  0.00000000000E+00 0. -1.
          6    2    1    2  501    0 -0.62040665701E+02  0.20325461064E+02 -0.84059183648E+02  0.20528465128E+03  0.17553823837E+03 0.  0.
         24    2    3    3    0    0  0.36168589188E+01 -0.42614508080E+02 -0.61767783420E+02  0.11152246925E+03  0.82419197473E+02 0.  0.
         -6    2    1    2    0  502  0.62040665701E+02 -0.20325461064E+02  0.34022113992E+03  0.39191196255E+03  0.18325499658E+03 0.  0.
        -24    2    5    5    0    0  0.10721959937E+03  0.11211499080E+02  0.23590478124E+03  0.27384541948E+03  0.87855038344E+02 0.  0.
          5    1    3    3  501    0 -0.65657524619E+02  0.62939969144E+02 -0.22291400228E+02  0.93762182030E+02  0.47000000000E+01 0. -1.
        -13    1    4    4    0    0 -0.14163775053E+02 -0.49154249869E+02 -0.73269089024E+02  0.89359455069E+02  0.00000000000E+00 0.  1.
         14    1    4    4    0    0  0.17780633972E+02  0.65397417884E+01  0.11501305604E+02  0.22163014183E+02  0.00000000000E+00 0. -1.
         -5    1    5    5    0  502 -0.45178933666E+02 -0.31536960144E+02  0.10431635869E+03  0.11806654307E+03  0.47000000000E+01 0.  1.
         11    1    6    6    0    0  0.99703767327E+02 -0.24133469224E+02  0.16562744943E+03  0.19482227173E+03  0.00000000000E+00 0. -1.
        -12    1    6    6    0    0  0.75158320393E+01  0.35344968304E+02  0.70277331806E+02  0.79023147758E+02  0.00000000000E+00 0.  1.
</event>
<event>
12    1  0.8219652E-002  0.1860811E+03  0.7818608E-02  0.1164081E+00
         21   -1    0    0  503  502  0.00000000000E+00  0.00000000000E+00  0.17298723919E+03  0.17298723919E+03  0.00000000000E+00 0.  1.
         21   -1    0    0  501  503 -0.00000000000E+00 -0.00000000000E+00 -0.19105348711E+03  0.19105348711E+03  0.00000000000E+00 0. -1.
          6    2    1    2  501    0  0.59756756280E+02  0.36068170869E+02 -0.88043819894E+01  0.18628927408E+03  0.17249461911E+03 0.  0.
         24    2    3    3    0    0  0.20270089899E+02  0.83539298858E+02 -0.28490853826E+02  0.12130964659E+03  0.80713137758E+02 0.  0.
         -6    2    1    2    0  502 -0.59756756280E+02 -0.36068170869E+02 -0.92618659306E+01  0.17775145222E+03  0.16321156128E+03 0.  0.
        -24    2    5    5    0    0 -0.10237638738E+03 -0.11293563042E+02 -0.20104549907E+02  0.12705758727E+03  0.71630777575E+02 0.  0.
          5    1    3    3  501    0  0.39486666381E+02 -0.47471127989E+02  0.19686471837E+02  0.64979627483E+02  0.47000000000E+01 0. -1.
        -11    1    4    4    0    0 -0.13906976529E+02  0.33143942591E+02  0.22056975442E+02  0.42171496207E+02  0.00000000000E+00 0.  1.
         12    1    4    4    0    0  0.34177066428E+02  0.50395356267E+02 -0.50547829268E+02  0.79138150387E+02  0.00000000000E+00 0. -1.
         -5    1    5    5    0  502  0.42619631102E+02 -0.24774607827E+02  0.10842683976E+02  0.50693864955E+02  0.47000000000E+01 0.  1.
         13    1    6    6    0    0 -0.37335600245E+02  0.47979323970E+01 -0.42159765427E+02  0.56519138544E+02  0.00000000000E+00 0. -1.
        -14    1    6    6    0    0 -0.65040787137E+02 -0.16091495439E+02  0.22055215520E+02  0.70538448725E+02  0.00000000000E+00 0.  1.
</event>
<event>
12    1  0.8219652E-002  0.2981261E+03  0.7818608E-02  0.1086200E+00
         21   -1    0    0  501  502  0.00000000000E+00  0.00000000000E+00  0.10679672127E+04  0.10679672127E+04  0.00000000000E+00 0. -1.
         21   -1    0    0  502  503 -0.00000000000E+00 -0.00000000000E+00 -0.25233834021E+03  0.25233834021E+03  0.00000000000E+00 0.  1.
         -6    2    1    2    0  503  0.10340853314E+03 -0.21942385102E+03 -0.13265486225E+03  0.32630734292E+03  0.17331768070E+03 0.  0.
        -24    2    3    3    0    0  0.21901120433E+02 -0.14092446267E+03 -0.17654070941E+02  0.16489828401E+03  0.80872829758E+02 0.  0.
          6    2    1    2  501    0 -0.10340853314E+03  0.21942385102E+03  0.94828373476E+03  0.99399821001E+03  0.17306140173E+03 0.  0.
         24    2    5    5    0    0 -0.67015076001E+02  0.23223526037E+03  0.74471701804E+03  0.78675411700E+03  0.77164545499E+02 0.  0.
          5    1    5    5  501    0 -0.36393457142E+02 -0.12811409351E+02  0.20356671672E+03  0.20724409301E+03  0.47000000000E+01 0. -1.
        -11    1    6    6    0    0  0.17445390290E+02  0.34841856248E+02  0.12069951335E+03  0.12683323347E+03  0.00000000000E+00 0.  1.
         12    1    6    6    0    0 -0.84460466290E+02  0.19739340412E+03  0.62401750469E+03  0.65992088353E+03  0.00000000000E+00 0. -1.
         -5    1    3    3    0  503  0.81507412710E+02 -0.78499388350E+02 -0.11500079131E+03  0.16140905892E+03  0.47000000000E+01 0.  1.
         13    1    4    4    0    0  0.28241013173E+02 -0.10141507156E+03 -0.46986920693E+02  0.11528374682E+03  0.00000000000E+00 0. -1.
        -14    1    4    4    0    0 -0.63398927395E+01 -0.39509391103E+02  0.29332849752E+02  0.49614537182E+02  0.00000000000E+00 0.  1.
</event>
<event>
12    1  0.8219652E-002  0.1849369E+03  0.7818608E-02  0.1163919E+00
         21   -1    0    0  503  502  0.00000000000E+00  0.00000000000E+00  0.44210269178E+03  0.44210269178E+03  0.00000000000E+00 0. -1.
         21   -1    0    0  501  503 -0.00000000000E+00 -0.00000000000E+00 -0.12319161616E+03  0.12319161616E+03  0.00000000000E+00 0. -1.
          6    2    1    2  501    0  0.60995625815E+02  0.30427985107E+02 -0.14685123292E+02  0.18551906157E+03  0.17191666794E+03 0.  0.
         24    2    3    3    0    0  0.55522840238E+02 -0.10161142510E+02 -0.68543872038E+02  0.11769367194E+03  0.77249617570E+02 0.  0.
         -6    2    1    2    0  502 -0.60995625815E+02 -0.30427985107E+02  0.33359619890E+03  0.37977524637E+03  0.16821559139E+03 0.  0.
        -24    2    5    5    0    0 -0.38765381283E+02  0.41509991056E+02  0.25872989435E+03  0.27349114716E+03  0.68047154259E+02 0.  0.
          5    1    3    3  501    0  0.54727855770E+01  0.40589127618E+02  0.53858748746E+02  0.67825389635E+02  0.47000000000E+01 0. -1.
        -11    1    4    4    0    0 -0.12222231419E+02  0.16079089100E+02 -0.27914587074E+02  0.34454959275E+02  0.00000000000E+00 0.  1.
         12    1    4    4    0    0  0.67745071657E+02 -0.26240231610E+02 -0.40629284964E+02  0.83238712661E+02  0.00000000000E+00 0. -1.
         -5    1    5    5    0  502 -0.22230244533E+02 -0.71937976163E+02  0.74866304554E+02  0.10628409921E+03  0.47000000000E+01 0.  1.
         11    1    6    6    0    0 -0.30631063096E+02  0.58775578064E+02  0.16454474501E+03  0.17739166754E+03  0.00000000000E+00 0. -1.
        -12    1    6    6    0    0 -0.81343181862E+01 -0.17265587008E+02  0.94185149342E+02  0.96099479623E+02  0.00000000000E+00 0.  1.
</event>
<event>
12    1  0.8219652E-002  0.2057239E+03  0.7818608E-02  0.1144998E+00
         21   -1    0    0  501  502  0.00000000000E+00  0.00000000000E+00  0.46731591398E+02  0.46731591398E+02  0.00000000000E+00 0. -1.
         21   -1    0    0  502  503 -0.00000000000E+00 -0.00000000000E+00 -0.97790739127E+03  0.97790739127E+03  0.00000000000E+00 0. -1.
         -6    2    1    2    0  503  0.10385726025E+03 -0.39954988282E+02 -0.32631053573E+03  0.38574594146E+03  0.17302784177E+03 0.  0.
        -24    2    3    3    0    0  0.11199030585E+03 -0.76897731350E+02 -0.30201851129E+03  0.34054522080E+03  0.79377431061E+02 0.  0.
          6    2    1    2  501    0 -0.10385726025E+03  0.39954988282E+02 -0.60486526414E+03  0.63889304121E+03  0.17303062950E+03 0.  0.
         24    2    5    5    0    0 -0.98510991026E+02  0.41531947001E+02 -0.25070815170E+03  0.28466088614E+03  0.82145753353E+02 0.  0.
          5    1    5    5  501    0 -0.53462692283E+01 -0.15769587187E+01 -0.35415711244E+03  0.35423215506E+03  0.47000000000E+01 0. -1.
        -11    1    6    6    0    0 -0.35855071510E+02  0.59103314209E+02 -0.14274703423E+03  0.15860486652E+03  0.00000000000E+00 0.  1.
         12    1    6    6    0    0 -0.62655919516E+02 -0.17571367208E+02 -0.10796111747E+03  0.12605601962E+03  0.00000000000E+00 0. -1.
         -5    1    3    3    0  503 -0.81330455942E+01  0.36942743068E+02 -0.24292024442E+02  0.45200720653E+02  0.47000000000E+01 0.  1.
         13    1    4    4    0    0  0.55363245918E+02 -0.64526050231E+02 -0.10461131402E+03  0.13480440340E+03  0.00000000000E+00 0. -1.
        -14    1    4    4    0    0  0.56627059931E+02 -0.12371681119E+02 -0.19740719727E+03  0.20574081740E+03  0.00000000000E+00 0.  1.
</event>
<event>
12    1  0.8219652E-002  0.2066626E+03  0.7818608E-02  0.1146640E+00
         21   -1    0    0  503  502  0.00000000000E+00  0.00000000000E+00  0.91001705280E+02  0.91001705280E+02  0.00000000000E+00 0. -1.
         21   -1    0    0  501  503 -0.00000000000E+00 -0.00000000000E+00 -0.94139335952E+03  0.94139335952E+03  0.00000000000E+00 0.  1.
          6    2    1    2  501    0 -0.10080737496E+03  0.57252192420E+02 -0.79477700590E+03  0.81838004748E+03  0.15695691326E+03 0.  0.
         24    2    3    3    0    0 -0.70753024582E+02  0.72500231446E+02 -0.36228206142E+03  0.38454858980E+03  0.79793808298E+02 0.  0.
         -6    2    1    2    0  502  0.10080737496E+03 -0.57252192420E+02 -0.55614648344E+02  0.21401501733E+03  0.17108330762E+03 0.  0.
        -24    2    5    5    0    0 -0.97191424159E+01 -0.27349253321E+02 -0.49026558555E+02  0.99229174398E+02  0.81242736422E+02 0.  0.
          5    1    3    3  501    0 -0.30054350377E+02 -0.15248039026E+02 -0.43249494448E+03  0.43383145768E+03  0.47000000000E+01 0. -1.
        -13    1    4    4    0    0  0.16292917363E+02  0.19332607164E+02 -0.99592042829E+02  0.10275107713E+03  0.00000000000E+00 0.  1.
         14    1    4    4    0    0 -0.87045941945E+02  0.53167624282E+02 -0.26269001859E+03  0.28179751267E+03  0.00000000000E+00 0. -1.
         -5    1    5    5    0  502  0.11052651737E+03 -0.29902939099E+02 -0.65880897887E+01  0.11478584293E+03  0.47000000000E+01 0.  1.
         13    1    6    6    0    0  0.13405641935E+02 -0.45410323187E+02 -0.68362656344E+01  0.47838720880E+02  0.00000000000E+00 0. -1.
        -14    1    6    6    0    0 -0.23124784351E+02  0.18061069866E+02 -0.42190292921E+02  0.51390453518E+02  0.00000000000E+00 0.  1.
</event>
<event>
12    1  0.8219652E-002  0.1791173E+03  0.7818608E-02  0.1169135E+00
         21   -1    0    0  501  502  0.00000000000E+00  0.00000000000E+00  0.31957277938E+03  0.31957277938E+03  0.00000000000E+00 0.  1.
         21   -1    0    0  502  503 -0.00000000000E+00 -0.00000000000E+00 -0.12178041518E+03  0.12178041518E+03  0.00000000000E+00 0.  1.
         -6    2    1    2    0  503 -0.37977356632E+02 -0.30068347526E+02  0.45417547509E+01  0.17917483278E+03  0.17244305734E+03 0.  0.
        -24    2    3    3    0    0  0.41809425002E+01  0.40540865646E+02 -0.23925844710E+02  0.92022796720E+02  0.78960160863E+02 0.  0.
          6    2    1    2  501    0  0.37977356632E+02  0.30068347526E+02  0.19325060945E+03  0.26217836179E+03  0.17042684705E+03 0.  0.
         24    2    5    5    0    0 -0.12151700864E+02  0.14587647515E+01  0.24168465750E+02  0.83454295274E+02  0.78934864506E+02 0.  0.
          5    1    5    5  501    0  0.50129057496E+02  0.28609582774E+02  0.16908214370E+03  0.17872406651E+03  0.47000000000E+01 0. -1.
        -11    1    6    6    0    0 -0.27862031522E+02  0.23076990847E+02  0.38748302829E+02  0.53011991844E+02  0.00000000000E+00 0.  1.
         12    1    6    6    0    0  0.15710330659E+02 -0.21618226095E+02 -0.14579837080E+02  0.30442303431E+02  0.00000000000E+00 0. -1.
         -5    1    3    3    0  503 -0.42158299132E+02 -0.70609213172E+02  0.28467599461E+02  0.87152036061E+02  0.47000000000E+01 0.  1.
         11    1    4    4    0    0 -0.17831599362E+02  0.33748183957E+02  0.19502142334E+02  0.42863030829E+02  0.00000000000E+00 0. -1.
        -12    1    4    4    0    0  0.22012541862E+02  0.67926816894E+01 -0.43427987044E+02  0.49159765891E+02  0.00000000000E+00 0.  1.
</event>
<event>
12    1  0.8219652E-002  0.1911736E+03  0.7818608E-02  0.1157644E+00
         21   -1    0    0  501  502  0.00000000000E+00  0.00000000000E+00  0.21107517261E+04  0.21107517261E+04  0.00000000000E+00 0. -1.
         21   -1    0    0  502  503 -0.00000000000E+00 -0.00000000000E+00 -0.20515188880E+02  0.20515188880E+02  0.00000000000E+00 0. -1.
         -6    2    1    2    0  503 -0.56659420006E+02  0.58457347894E+02  0.14698146306E+04  0.14820591719E+04  0.17180450862E+03 0.  0.
        -24    2    3    3    0    0 -0.10661313874E+03  0.29252030619E+02  0.10558251264E+04  0.10640188339E+04  0.71744956068E+02 0.  0.
          6    2    1    2  501    0  0.56659420006E+02 -0.58457347894E+02  0.62042190664E+03  0.64920774314E+03  0.17297340868E+03 0.  0.
         24    2    5    5    0    0  0.77514207427E+02 -0.66630301238E+02  0.61005691649E+03  0.62408320642E+03  0.82839349195E+02 0.  0.
          5    1    5    5  501    0 -0.20854787421E+02  0.81729533441E+01  0.10364990152E+02  0.25124536724E+02  0.47000000000E+01 0. -1.
        -11    1    6    6    0    0 -0.14230022229E+02 -0.28963550114E+02  0.13844371309E+03  0.14215499450E+03  0.00000000000E+00 0.  1.
         12    1    6    6    0    0  0.91744229656E+02 -0.37666751124E+02  0.47161320340E+03  0.48192821191E+03  0.00000000000E+00 0. -1.
         -5    1    3    3    0  503  0.49953718734E+02  0.29205317275E+02  0.41398950423E+03  0.41804033798E+03  0.47000000000E+01 0.  1.
         11    1    4    4    0    0 -0.84207573569E+02  0.27860075791E+02  0.50455087292E+03  0.51228769518E+03  0.00000000000E+00 0. -1.
        -12    1    4    4    0    0 -0.22405565171E+02  0.13919548280E+01  0.55127425345E+03  0.55173113869E+03  0.00000000000E+00 0.  1.
</event>
<event>
12    1  0.8219652E-002  0.2030191E+03  0.7818608E-02  0.1147930E+00
         21   -1    0    0  501  502  0.00000000000E+00  0.00000000000E+00  0.84801922656E+03  0.84801922656E+03  0.00000000000E+00 0.  1.
         21   -1    0    0  502  503 -0.00000000000E+00 -0.00000000000E+00 -0.48974430345E+02  0.48974430345E+02  0.00000000000E+00 0. -1.
         -6    2    1    2    0  503 -0.95093414949E+01 -0.11239673831E+03  0.47261361869E+03  0.51437376931E+03  0.16879954864E+03 0.  0.
        -24    2    3    3    0    0  0.27743504302E+02 -0.13492009725E+03  0.36423818577E+03  0.39748749689E+03  0.79710222302E+02 0.  0.
          6    2    1    2  501    0  0.95093414949E+01  0.11239673831E+03  0.32643117752E+03  0.38261988760E+03  0.16467304080E+03 0.  0.
         24    2    5    5    0    0 -0.35530432559E+02  0.87229879679E+02  0.13206429865E+03  0.18146689701E+03  0.81349813675E+02 0.  0.
          5    1    5    5  501    0  0.45039774054E+02  0.25166858632E+02  0.19436687887E+03  0.20115299059E+03  0.47000000000E+01 0. -1.
        -11    1    6    6    0    0 -0.18893410590E+01 -0.10813369556E+02  0.44325348637E+02  0.45664374545E+02  0.00000000000E+00 0.  1.
         12    1    6    6    0    0 -0.33641091500E+02  0.98043249235E+02  0.87738950014E+02  0.13580252246E+03  0.00000000000E+00 0. -1.
         -5    1    3    3    0  503 -0.37252845797E+02  0.22523358943E+02  0.10837543293E+03  0.11688627242E+03  0.47000000000E+01 0.  1.
         11    1    4    4    0    0 -0.60990053576E+01  0.67309900847E+01  0.62976563124E+01  0.11052808191E+02  0.00000000000E+00 0. -1.
        -12    1    4    4    0    0  0.33842509660E+02 -0.14165108734E+03  0.35794052945E+03  0.38643468870E+03  0.00000000000E+00 0.  1.
</event>
<event>
12    1  0.8219652E-002  0.2157751E+03  0.7818608E-02  0.1137352E+00
         21   -1    0    0  501  502  0.00000000000E+00  0.00000000000E+00  0.10137630843E+04  0.10137630843E+04  0.00000000000E+00 0.  1.
         21   -1    0    0  502  503 -0.00000000000E+00 -0.00000000000E+00 -0.45623244822E+02  0.45623244822E+02  0.00000000000E+00 0.  1.
         -6    2    1    2    0  503  0.21520412234E+02 -0.12772830146E+03  0.47668294093E+03  0.52264732613E+03  0.17075114701E+03 0.  0.
        -24    2    3    3    0    0 -0.11060573039E+02 -0.12361188520E+01  0.19271213237E+03  0.21004005978E+03  0.82794906152E+02 0.  0.
          6    2    1    2  501    0 -0.21520412234E+02  0.12772830146E+03  0.49145689850E+03  0.53673900294E+03  0.17257238207E+03 0.  0.
         24    2    5    5    0    0  0.31087404315E+02  0.70638532009E+02  0.40773482584E+03  0.42246608581E+03  0.79206543588E+02 0.  0.
          5    1    5    5  501    0 -0.52607816549E+02  0.57089769453E+02  0.83722072664E+02  0.11427291713E+03  0.47000000000E+01 0. -1.
        -11    1    6    6    0    0  0.19597001904E+00  0.74220223957E+02  0.22024308375E+03  0.23241277070E+03  0.00000000000E+00 0.  1.
         12    1    6    6    0    0  0.30891434296E+02 -0.35816919481E+01  0.18749174209E+03  0.19005331511E+03  0.00000000000E+00 0. -1.
         -5    1    3    3    0  503  0.32580985273E+02 -0.12649218261E+03  0.28397080856E+03  0.31260726635E+03  0.47000000000E+01 0.  1.
         11    1    4    4    0    0 -0.36067807303E+02  0.11569955736E+01  0.34766937222E+02  0.50109532888E+02  0.00000000000E+00 0. -1.
        -12    1    4    4    0    0  0.25007234264E+02 -0.23931144256E+01  0.15794519515E+03  0.15993052690E+03  0.00000000000E+00 0.  1.
</event>
<event>
12    1  0.8219652E-002  0.1965173E+03  0.7818608E-02  0.1152956E+00
         21   -1    0    0  501  502  0.00000000000E+00  0.00000000000E+00  0.52637372737E+02  0.52637372737E+02  0.00000000000E+00 0. -1.
         21   -1    0    0  502  503 -0.00000000000E+00 -0.00000000000E+00 -0.88569309041E+03  0.88569309041E+03  0.00000000000E+00 0. -1.
         -6    2    1    2    0  503  0.92701265884E+02 -0.90702629335E+01 -0.22047045503E+03  0.29534092067E+03  0.17304116132E+03 0.  0.
        -24    2    3    3    0    0  0.10723442457E+03  0.24444615251E+02 -0.11156072245E+03  0.18037188305E+03  0.89394968371E+02 0.  0.
          6    2    1    2  501    0 -0.92701265884E+02  0.90702629335E+01 -0.61258526264E+03  0.64298954248E+03  0.17175288460E+03 0.  0.
         24    2    5    5    0    0 -0.15467605589E+02 -0.55552028510E+02 -0.32559153686E+03  0.33880445496E+03  0.73846700193E+02 0.  0.
          5    1    5    5  501    0 -0.77233660296E+02  0.64622291444E+02 -0.28699372577E+03  0.30418508752E+03  0.47000000000E+01 0. -1.
        -13    1    6    6    0    0  0.25662272242E+02 -0.29328217269E+02 -0.87779042069E+02  0.96040911967E+02  0.00000000000E+00 0.  1.
         14    1    6    6    0    0 -0.41129877831E+02 -0.26223811241E+02 -0.23781249479E+03  0.24276354299E+03  0.00000000000E+00 0. -1.
         -5    1    3    3    0  503 -0.14533158691E+02 -0.33514878185E+02 -0.10890973258E+03  0.11496903762E+03  0.47000000000E+01 0.  1.
         11    1    4    4    0    0  0.12662389312E+02  0.42705039720E+02 -0.26233723667E+02  0.51693953012E+02  0.00000000000E+00 0. -1.
        -12    1    4    4    0    0  0.94572035263E+02 -0.18260424469E+02 -0.85326998788E+02  0.12867793003E+03  0.00000000000E+00 0.  1.
</event>
<event>
12    1  0.8219652E-002  0.2393581E+03  0.7818608E-02  0.1120351E+00
         21   -1    0    0  503  502  0.00000000000E+00  0.00000000000E+00  0.11493022265E+04  0.11493022265E+04  0.00000000000E+00 0.  1.
         21   -1    0    0  501  503 -0.00000000000E+00 -0.00000000000E+00 -0.50104589861E+02  0.50104589861E+02  0.00000000000E+00 0.  1.
          6    2    1    2  501    0  0.16406837947E+03  0.26702710836E+02  0.60513059738E+03  0.65074984445E+03  0.17222326281E+03 0.  0.
         24    2    3    3    0    0  0.12699009874E+03 -0.45784999001E+02  0.42746695662E+03  0.45526141454E+03  0.79449388003E+02 0.  0.
         -6    2    1    2    0  502 -0.16406837947E+03 -0.26702710836E+02  0.49406703921E+03  0.54865697187E+03  0.17114545169E+03 0.  0.
        -24    2    5    5    0    0 -0.96125550133E+02 -0.13862837556E+02  0.44920754731E+03  0.46610060071E+03  0.77653395119E+02 0.  0.
          5    1    3    3  501    0  0.37078280733E+02  0.72487709837E+02  0.17766364076E+03  0.19548842991E+03  0.47000000000E+01 0. -1.
        -11    1    4    4    0    0  0.11279961589E+03 -0.45069961946E+01  0.30094521603E+03  0.32142198029E+03  0.00000000000E+00 0.  1.
         12    1    4    4    0    0  0.14190482852E+02 -0.41278002807E+02  0.12652174058E+03  0.13383943425E+03  0.00000000000E+00 0. -1.
         -5    1    5    5    0  502 -0.67942829341E+02 -0.12839873280E+02  0.44859491907E+02  0.82556371158E+02  0.47000000000E+01 0.  1.
         11    1    6    6    0    0 -0.55179217275E+02 -0.44775648198E+02  0.21879992261E+03  0.23005001810E+03  0.00000000000E+00 0. -1.
        -12    1    6    6    0    0 -0.40946332858E+02  0.30912810642E+02  0.23040762469E+03  0.23605058262E+03  0.00000000000E+00 0.  1.
</event>
<event>
12    1  0.8219652E-002  0.4289516E+03  0.7818608E-02  0.1034385E+00
         21   -1    0    0  503  502  0.00000000000E+00  0.00000000000E+00  0.13123158386E+04  0.13123158386E+04  0.00000000000E+00 0. -1.
         21   -1    0    0  501  503 -0.00000000000E+00 -0.00000000000E+00 -0.61774992117E+03  0.61774992117E+03  0.00000000000E+00 0.  1.
          6    2    1    2  501    0  0.57091473276E+02  0.38796953476E+03 -0.50212160572E+03  0.65882207378E+03  0.16775166688E+03 0.  0.
         24    2    3    3    0    0  0.85856372810E+02  0.27445204384E+03 -0.28649858342E+03  0.41340606383E+03  0.78280867355E+02 0.  0.
         -6    2    1    2    0  502 -0.57091473276E+02 -0.38796953476E+03  0.11966875232E+04  0.12712436860E+04  0.17383809971E+03 0.  0.
        -24    2    5    5    0    0 -0.96582697343E+02 -0.34957345442E+03  0.10799012409E+04  0.11420347796E+04  0.80789419677E+02 0.  0.
          5    1    3    3  501    0 -0.28764899534E+02  0.11351749092E+03 -0.21562302230E+03  0.24541600994E+03  0.47000000000E+01 0. -1.
        -11    1    4    4    0    0  0.40277472072E+02  0.20477817237E+03 -0.23997258290E+03  0.31803021111E+03  0.00000000000E+00 0.  1.
         12    1    4    4    0    0  0.45578900738E+02  0.69673871471E+02 -0.46526000513E+02  0.95375852719E+02  0.00000000000E+00 0. -1.
         -5    1    5    5    0  502  0.39491224067E+02 -0.38396080340E+02  0.11678628233E+03  0.12920890644E+03  0.47000000000E+01 0.  1.
         13    1    6    6    0    0 -0.38295506552E+02 -0.38230404447E+02  0.18370384588E+03  0.19150773519E+03  0.00000000000E+00 0. -1.
        -14    1    6    6    0    0 -0.58287190791E+02 -0.31134304998E+03  0.89619739497E+03  0.95052704440E+03  0.00000000000E+00 0.  1.
</event>
<event>
12    1  0.8219652E-002  0.1783615E+03  0.7818608E-02  0.1170011E+00
         21   -1    0    0  503  502  0.00000000000E+00  0.00000000000E+00  0.54713111856E+03  0.54713111856E+03  0.00000000000E+00 0.  1.
         21   -1    0    0  501  503 -0.00000000000E+00 -0.00000000000E+00 -0.10436863615E+03  0.10436863615E+03  0.00000000000E+00 0.  1.
          6    2    1    2  501    0  0.18573844683E+02 -0.36384926897E+02  0.35664974231E+01  0.17839718529E+03  0.17362023270E+03 0.  0.
         24    2    3    3    0    0  0.10260106557E+02  0.67160064411E+01  0.64997944883E+02  0.10274851423E+03  0.78626648205E+02 0.  0.
         -6    2    1    2    0  502 -0.18573844683E+02  0.36384926897E+02  0.43919598499E+03  0.47310256942E+03  0.17106746433E+03 0.  0.
        -24    2    5    5    0    0 -0.11224186713E+02  0.79457365498E+02  0.19357468858E+03  0.22358069926E+03  0.77959692938E+02 0.  0.
          5    1    3    3  501    0  0.83137381254E+01 -0.43100933338E+02 -0.61431447460E+02  0.75648671060E+02  0.47000000000E+01 0. -1.
        -13    1    4    4    0    0  0.37977920472E+02 -0.18092346915E+02  0.29948012278E+02  0.51638540836E+02  0.00000000000E+00 0.  1.
         14    1    4    4    0    0 -0.27717813915E+02  0.24808353356E+02  0.35049932605E+02  0.51109973392E+02  0.00000000000E+00 0. -1.
         -5    1    5    5    0  502 -0.73496579699E+01 -0.43072438602E+02  0.24562129642E+03  0.24952187017E+03  0.47000000000E+01 0.  1.
         11    1    6    6    0    0  0.24592523835E+02  0.33988669662E+02  0.34544598390E+02  0.54344743737E+02  0.00000000000E+00 0. -1.
        -12    1    6    6    0    0 -0.35816710547E+02  0.45468695837E+02  0.15903009019E+03  0.16923595552E+03  0.00000000000E+00 0.  1.
</event>
<event>
12    1  0.8219652E-002  0.2748148E+03  0.7818608E-02  0.1098567E+00
         21   -1    0    0  503  502  0.00000000000E+00  0.00000000000E+00  0.26757288828E+03  0.26757288828E+03  0.00000000000E+00 0. -1.
         21   -1    0    0  501  503 -0.00000000000E+00 -0.00000000000E+00 -0.42680606995E+03  0.42680606995E+03  0.00000000000E+00 0.  1.
          6    2    1    2  501    0  0.21350932832E+03  0.20146884023E+02 -0.28173905858E+03  0.39357349343E+03  0.17184605724E+03 0.  0.
         24    2    3    3    0    0  0.21739461728E+03 -0.21306829187E+02 -0.24495991239E+03  0.33782135084E+03  0.80021908350E+02 0.  0.
         -6    2    1    2    0  502 -0.21350932832E+03 -0.20146884023E+02  0.12250587691E+03  0.30080546479E+03  0.17170936945E+03 0.  0.
        -24    2    5    5    0    0 -0.20628480889E+03 -0.60376096384E+02  0.73757841431E+02  0.23701640483E+03  0.67363651878E+02 0.  0.
          5    1    3    3  501    0 -0.38852889585E+01  0.41453713209E+02 -0.36779146193E+02  0.55752142594E+02  0.47000000000E+01 0. -1.
        -11    1    4    4    0    0  0.15695943039E+03  0.98322937058E+01 -0.20697001310E+03  0.25994138399E+03  0.00000000000E+00 0.  1.
         12    1    4    4    0    0  0.60435186887E+02 -0.31139122892E+02 -0.37989899282E+02  0.77879966847E+02  0.00000000000E+00 0. -1.
         -5    1    5    5    0  502 -0.72245194336E+01  0.40229212361E+02  0.48748035477E+02  0.63789059964E+02  0.47000000000E+01 0.  1.
         11    1    6    6    0    0 -0.50814548339E+02 -0.46529024240E+02  0.27900738397E+02  0.74333839015E+02  0.00000000000E+00 0. -1.
        -12    1    6    6    0    0 -0.15547026055E+03 -0.13847072144E+02  0.45857103035E+02  0.16268256581E+03  0.00000000000E+00 0.  1.
</event>
<event>
12    1  0.8219652E-002  0.1731253E+03  0.7818608E-02  0.1174894E+00
         21   -1    0    0  501  502  0.00000000000E+00  0.00000000000E+00  0.20943345649E+03  0.20943345649E+03  0.00000000000E+00 0. -1.
         21   -1    0    0  502  503 -0.00000000000E+00 -0.00000000000E+00 -0.14935183378E+03  0.14935183378E+03  0.00000000000E+00 0. -1.
         -6    2    1    2    0  503 -0.64800455152E+01  0.64468874160E+01 -0.89933242600E+01  0.17335868393E+03  0.17288377618E+03 0.  0.
        -24    2    3    3    0    0 -0.22894274631E+02  0.61469871924E+02 -0.37547270679E+02  0.10905958909E+03  0.78622537938E+02 0.  0.
          6    2    1    2  501    0  0.64800455152E+01 -0.64468874160E+01  0.69074946975E+02  0.18542660633E+03  0.17183749501E+03 0.  0.
         24    2    5    5    0    0  0.42807603252E+02 -0.62680178609E+02  0.59794902483E+02  0.11767644976E+03  0.67164133133E+02 0.  0.
          5    1    5    5  501    0 -0.36327557737E+02  0.56233291193E+02  0.92800444918E+01  0.67750156570E+02  0.47000000000E+01 0. -1.
        -13    1    6    6    0    0  0.34576235696E+02 -0.28470324688E+02 -0.38482366096E+01  0.44954247716E+02  0.00000000000E+00 0.  1.
         14    1    6    6    0    0  0.82313675563E+01 -0.34209853921E+02  0.63643139093E+02  0.72722202048E+02  0.00000000000E+00 0. -1.
         -5    1    3    3    0  503  0.16414229116E+02 -0.55022984508E+02  0.28553946419E+02  0.64299094844E+02  0.47000000000E+01 0.  1.
         11    1    4    4    0    0  0.98492276364E+01 -0.96925174975E+01  0.10330099029E+02  0.17252916462E+02  0.00000000000E+00 0. -1.
        -12    1    4    4    0    0 -0.32743502267E+02  0.71162389421E+02 -0.47877369708E+02  0.91806672628E+02  0.00000000000E+00 0.  1.
</event>
<event>
12    1  0.8219652E-002  0.3171396E+03  0.7818608E-02  0.1077080E+00
         21   -1    0    0  501  502  0.00000000000E+00  0.00000000000E+00  0.13737237815E+04  0.13737237815E+04  0.00000000000E+00 0. -1.
         21   -1    0    0  502  503 -0.00000000000E+00 -0.00000000000E+00 -0.10057923767E+03  0.10057923767E+03  0.00000000000E+00 0.  1.
         -6    2    1    2    0  503  0.26526641221E+03 -0.99825776786E+01  0.25126331267E+03  0.40461188674E+03  0.17352695841E+03 0.  0.
        -24    2    3    3    0    0  0.14552832901E+03  0.23177663456E+02  0.22006404689E+03  0.27642337577E+03  0.79158065353E+02 0.  0.
          6    2    1    2  501    0 -0.26526641221E+03  0.99825776786E+01  0.10218812312E+04  0.10696911324E+04  0.17184861617E+03 0.  0.
         24    2    5    5    0    0 -0.13867565030E+03 -0.60463773162E+02  0.53477969866E+03  0.56148064226E+03  0.79902325874E+02 0.  0.
          5    1    5    5  501    0 -0.12659076191E+03  0.70446350841E+02  0.48710153250E+03  0.50821049016E+03  0.47000000000E+01 0. -1.
        -13    1    6    6    0    0 -0.15188971597E+02 -0.43381227867E+02  0.16303537152E+03  0.16939057871E+03  0.00000000000E+00 0.  1.
         14    1    6    6    0    0 -0.12348667871E+03 -0.17082545295E+02  0.37174432714E+03  0.39209006355E+03  0.00000000000E+00 0. -1.
         -5    1    3    3    0  503  0.11973808320E+03 -0.33160241134E+02  0.31199265782E+02  0.12818851097E+03  0.47000000000E+01 0.  1.
         13    1    4    4    0    0  0.64137398909E+02 -0.21901555334E+02  0.56444397319E+02  0.88200079669E+02  0.00000000000E+00 0. -1.
        -14    1    4    4    0    0  0.81390930104E+02  0.45079218790E+02  0.16361964957E+03  0.18822329610E+03  0.00000000000E+00 0.  1.
</event>
<event>
12    1  0.8219652E-002  0.2072336E+03  0.7818608E-02  0.1144414E+00
         21   -1    0    0  501  502  0.00000000000E+00  0.00000000000E+00  0.62273627502E+02  0.62273627502E+02  0.00000000000E+00 0.  1.
         21   -1    0    0  502  503 -0.00000000000E+00 -0.00000000000E+00 -0.72954635501E+03  0.72954635501E+03  0.00000000000E+00 0.  1.
         -6    2    1    2    0  503 -0.11249417778E+03 -0.53574955083E+02 -0.43525308771E+03  0.48072697450E+03  0.16164144829E+03 0.  0.
        -24    2    3    3    0    0 -0.26393995486E+02  0.16216636174E+02 -0.12963496134E+03  0.15559832801E+03  0.80286949080E+02 0.  0.
          6    2    1    2  501    0  0.11249417778E+03  0.53574955083E+02 -0.23201963979E+03  0.31109300800E+03  0.16559145670E+03 0.  0.
         24    2    5    5    0    0  0.42997151681E+02  0.42780123753E+02 -0.21717129148E+03  0.23905879066E+03  0.79415625093E+02 0.  0.
          5    1    5    5  501    0  0.69497026101E+02  0.10794831329E+02 -0.14848348311E+02  0.72034217341E+02  0.47000000000E+01 0. -1.
        -13    1    6    6    0    0  0.47407384231E+02 -0.42041283740E+01 -0.71143547473E+02  0.85595205017E+02  0.00000000000E+00 0.  1.
         14    1    6    6    0    0 -0.44102325502E+01  0.46984252127E+02 -0.14602774401E+03  0.15346358565E+03  0.00000000000E+00 0. -1.
         -5    1    3    3    0  503 -0.86100182295E+02 -0.69791591257E+02 -0.30561812637E+03  0.32512864649E+03  0.47000000000E+01 0.  1.
         11    1    4    4    0    0 -0.21949651198E+02  0.12705091996E+02  0.47418226081E+00  0.25365949601E+02  0.00000000000E+00 0. -1.
        -12    1    4    4    0    0 -0.44443442884E+01  0.35115441783E+01 -0.13010914360E+03  0.13023237841E+03  0.00000000000E+00 0.  1.
</event>
<event>
12    1  0.8219652E-002  0.1858721E+03  0.7818608E-02  0.1163096E+00
         21   -1    0    0  501  502  0.00000000000E+00  0.00000000000E+00  0.38258615378E+03  0.38258615378E+03  0.00000000000E+00 0.  1.
         21   -1    0    0  502  503 -0.00000000000E+00 -0.00000000000E+00 -0.47778731684E+03  0.47778731684E+03  0.00000000000E+00 0.  1.
         -6    2    1    2    0  503  0.35767211342E+02 -0.56325031971E+02 -0.43579964578E+03  0.47235833261E+03  0.16955606887E+03 0.  0.
        -24    2    3    3    0    0  0.90442086696E+02 -0.51540689721E+02 -0.32216993282E+03  0.34608072734E+03  0.71709068321E+02 0.  0.
          6    2    1    2  501    0 -0.35767211342E+02  0.56325031971E+02  0.34059848272E+03  0.38801513801E+03  0.17348376945E+03 0.  0.
         24    2    5    5    0    0 -0.40947338009E+02  0.61073423119E+02  0.35512935295E+03  0.37120391793E+03  0.79176030828E+02 0.  0.
          5    1    5    5  501    0  0.51801266674E+01 -0.47483911484E+01 -0.14530870235E+02  0.16811220080E+02  0.47000000000E+01 0. -1.
        -11    1    6    6    0    0 -0.52526691227E+02  0.48972207267E+02  0.16024556721E+03  0.17560174312E+03  0.00000000000E+00 0.  1.
         12    1    6    6    0    0  0.11579353218E+02  0.12101215852E+02  0.19488378575E+03  0.19560217482E+03  0.00000000000E+00 0. -1.
         -5    1    3    3    0  503 -0.54674875354E+02 -0.47843422502E+01 -0.11362971297E+03  0.12627760528E+03  0.47000000000E+01 0.  1.
         13    1    4    4    0    0  0.12551878385E+02  0.18030094989E+02 -0.56278205059E+02  0.60414156793E+02  0.00000000000E+00 0. -1.
        -14    1    4    4    0    0  0.77890208310E+02 -0.69570784710E+02 -0.26589172776E+03  0.28566657054E+03  0.00000000000E+00 0.  1.
</event>
<event>
12    1  0.8219652E-002  0.1786936E+03  0.7818608E-02  0.1170158E+00
         21   -1    0    0  503  502  0.00000000000E+00  0.00000000000E+00  0.72764622546E+02  0.72764622546E+02  0.00000000000E+00 0.  1.
         21   -1    0    0  501  503 -0.00000000000E+00 -0.00000000000E+00 -0.65163792825E+03  0.65163792825E+03  0.00000000000E+00 0.  1.
          6    2    1    2  501    0  0.56072484066E+01  0.73213522645E+01 -0.49918897000E+03  0.52874723444E+03  0.17406598381E+03 0.  0.
         24    2    3    3    0    0  0.73469155524E+01 -0.16190532509E+02 -0.49800368669E+03  0.50467795809E+03  0.79850228036E+02 0.  0.
         -6    2    1    2    0  502 -0.56072484066E+01 -0.73213522645E+01 -0.79684335697E+02  0.19565531635E+03  0.17845550154E+03 0.  0.
        -24    2    5    5    0    0  0.78283960618E+00  0.48662641668E+02 -0.98779936672E+02  0.13597472673E+03  0.79768320077E+02 0.  0.
          5    1    3    3  501    0 -0.17396671458E+01  0.23511884774E+02 -0.11852833172E+01  0.24069276349E+02  0.47000000000E+01 0. -1.
        -11    1    4    4    0    0 -0.12590902017E+02  0.25561583865E+02 -0.99574164728E+02  0.10357094025E+03  0.00000000000E+00 0.  1.
         12    1    4    4    0    0  0.19937817570E+02 -0.41752116374E+02 -0.39842952196E+03  0.40110701784E+03  0.00000000000E+00 0. -1.
         -5    1    5    5    0  502 -0.63900880128E+01 -0.55983993933E+02  0.19095600975E+02  0.59680589626E+02  0.47000000000E+01 0.  1.
         11    1    6    6    0    0  0.16512634096E+02 -0.12561203664E+02 -0.55806781793E+02  0.59538624576E+02  0.00000000000E+00 0. -1.
        -12    1    6    6    0    0 -0.15729794490E+02  0.61223845332E+02 -0.42973154879E+02  0.76436102152E+02  0.00000000000E+00 0.  1.
</event>
<event>
12    1  0.8219652E-002  0.1792474E+03  0.7818608E-02  0.1168703E+00
         21   -1    0    0  503  502  0.00000000000E+00  0.00000000000E+00  0.21131003310E+04  0.21131003310E+04  0.00000000000E+00 0.  1.
         21   -1    0    0  501  503 -0.00000000000E+00 -0.00000000000E+00 -0.31244649907E+02  0.31244649907E+02  0.00000000000E+00 0.  1.
          6    2    1    2  501    0  0.35329966128E+02 -0.34998994107E+02  0.27033917985E+03  0.32398192526E+03  0.17148725795E+03 0.  0.
         24    2    3    3    0    0 -0.36795349957E+02  0.15893337004E+02  0.13075561789E+03  0.15876161369E+03  0.80633258843E+02 0.  0.
         -6    2    1    2    0  502 -0.35329966128E+02  0.34998994107E+02  0.18115165012E+04  0.18203630556E+04  0.17221058038E+03 0.  0.
        -24    2    5    5    0    0  0.20676401373E+01 -0.11149349582E+02  0.54377302556E+03  0.55122009257E+03  0.89587409829E+02 0.  0.
          5    1    3    3  501    0  0.72125316085E+02 -0.50892331111E+02  0.13958356196E+03  0.16522031157E+03  0.47000000000E+01 0. -1.
        -11    1    4    4    0    0 -0.61282241355E+02  0.18804859861E+02  0.10561396453E+03  0.12354531704E+03  0.00000000000E+00 0.  1.
         12    1    4    4    0    0  0.24486891398E+02 -0.29115228574E+01  0.25141653361E+02  0.35216296645E+02  0.00000000000E+00 0. -1.
         -5    1    5    5    0  502 -0.37397606265E+02  0.46148343689E+02  0.12677434756E+04  0.12691429630E+04  0.47000000000E+01 0.  1.
         11    1    6    6    0    0  0.45449739961E+01  0.39351550121E+02  0.25349735628E+03  0.25657379236E+03  0.00000000000E+00 0. -1.
        -12    1    6    6    0    0 -0.24773338588E+01 -0.50500899703E+02  0.29027566928E+03  0.29464630021E+03  0.00000000000E+00 0.  1.
</event>
<event>
12    1  0.8219652E-002  0.2845541E+03  0.7818608E-02  0.1093513E+00
         21   -1    0    0  501  502  0.00000000000E+00  0.00000000000E+00  0.36624309787E+03  0.36624309787E+03  0.00000000000E+00 0.  1.
         21   -1    0    0  502  503 -0.00000000000E+00 -0.00000000000E+00 -0.46079088823E+03  0.46079088823E+03  0.00000000000E+00 0. -1.
         -6    2    1    2    0  503 -0.19044958522E+03 -0.12092345791E+03 -0.34663258604E+03  0.44846983653E+03  0.17342870981E+03 0.  0.
        -24    2    3    3    0    0 -0.11406398336E+03 -0.24989488801E+02 -0.26630705344E+03  0.30179888580E+03  0.80796373101E+02 0.  0.
          6    2    1    2  501    0  0.19044958522E+03  0.12092345791E+03  0.25208479568E+03  0.37856414957E+03  0.16991334245E+03 0.  0.
         24    2    5    5    0    0  0.11438258069E+03  0.60207263822E+02  0.23230038624E+03  0.27913498755E+03  0.85115112906E+02 0.  0.
          5    1    5    5  501    0  0.76067004535E+02  0.60716194089E+02  0.19784409440E+02  0.99429162022E+02  0.47000000000E+01 0. -1.
        -13    1    6    6    0    0  0.79425676411E+02  0.68689353642E+02  0.11180609550E+03  0.15338601099E+03  0.00000000000E+00 0.  1.
         14    1    6    6    0    0  0.34956904277E+02 -0.84820898201E+01  0.12049429074E+03  0.12574897656E+03  0.00000000000E+00 0. -1.
         -5    1    3    3    0  503 -0.76385601859E+02 -0.95933969110E+02 -0.80325532602E+02  0.14667095073E+03  0.47000000000E+01 0.  1.
         13    1    4    4    0    0  0.10019715191E+02  0.88334896463E+01 -0.23335802371E+02  0.26888378608E+02  0.00000000000E+00 0. -1.
        -14    1    4    4    0    0 -0.12408369856E+03 -0.33822978447E+02 -0.24297125107E+03  0.27491050719E+03  0.00000000000E+00 0.  1.
</event>
<event>
12    1  0.8219652E-002  0.4107822E+03  0.7818608E-02  0.1040284E+00
         21   -1    0    0  501  502  0.00000000000E+00  0.00000000000E+00  0.37847644042E+03  0.37847644042E+03  0.00000000000E+00 0.  1.
         21   -1    0    0  502  503 -0.00000000000E+00 -0.00000000000E+00 -0.44667050501E+03  0.44667050501E+03  0.00000000000E+00 0. -1.
         -6    2    1    2    0  503 -0.92558991880E+02 -0.36148659285E+03 -0.68292243325E+02  0.41436473879E+03  0.16671707310E+03 0.  0.
        -24    2    3    3    0    0 -0.22536543085E+02 -0.24760745461E+03 -0.46217651284E+01  0.26621744298E+03  0.95042195264E+02 0.  0.
          6    2    1    2  501    0  0.92558991880E+02  0.36148659285E+03  0.98178742137E-01  0.41078220664E+03  0.17176230047E+03 0.  0.
         24    2    5    5    0    0  0.10001261334E+03  0.17591028631E+03 -0.39931136424E+02  0.22073337582E+03  0.78624270354E+02 0.  0.
          5    1    5    5  501    0 -0.74536214565E+01  0.18557630655E+03  0.40029315166E+02  0.19004883082E+03  0.47000000000E+01 0. -1.
        -11    1    6    6    0    0  0.79104857394E+02  0.81972984141E+02  0.60479640178E+01  0.11407772114E+03  0.00000000000E+00 0.  1.
         12    1    6    6    0    0  0.20907755943E+02  0.93937302164E+02 -0.45979100442E+02  0.10665565467E+03  0.00000000000E+00 0. -1.
         -5    1    3    3    0  503 -0.70022448795E+02 -0.11387913824E+03 -0.63670478197E+02  0.14814729581E+03  0.47000000000E+01 0.  1.
         13    1    4    4    0    0 -0.62652315090E+01 -0.96292342908E+02  0.44550009644E+02  0.10628345021E+03  0.00000000000E+00 0. -1.
        -14    1    4    4    0    0 -0.16271311576E+02 -0.15131511170E+03 -0.49171774772E+02  0.15993399277E+03  0.00000000000E+00 0.  1.
</event>
<event>
12    1  0.8219652E-002  0.3202272E+03  0.7818608E-02  0.1076113E+00
         21   -1    0    0  501  502  0.00000000000E+00  0.00000000000E+00  0.29075201128E+03  0.29075201128E+03  0.00000000000E+00 0. -1.
         21   -1    0    0  502  503 -0.00000000000E+00 -0.00000000000E+00 -0.49503516924E+03  0.49503516924E+03  0.00000000000E+00 0.  1.
         -6    2    1    2    0  503  0.59263590159E+02 -0.25856637887E+03 -0.31731634119E+03  0.45081607363E+03  0.17937872353E+03 0.  0.
        -24    2    3    3    0    0  0.28446709928E+02 -0.26830658075E+03 -0.25147620940E+03  0.37732073640E+03  0.79580259162E+02 0.  0.
          6    2    1    2  501    0 -0.59263590159E+02  0.25856637887E+03  0.11303318322E+03  0.33497110689E+03  0.17047110178E+03 0.  0.
         24    2    5    5    0    0 -0.68473858890E+02  0.66845398916E+02  0.55841864944E+02  0.13463463969E+03  0.76493108296E+02 0.  0.
          5    1    5    5  501    0  0.92102687308E+01  0.19172097995E+03  0.57191318277E+02  0.20033646720E+03  0.47000000000E+01 0. -1.
        -13    1    6    6    0    0 -0.57352869960E+02  0.55107435400E+02  0.32395972984E+01  0.79603241892E+02  0.00000000000E+00 0.  1.
         14    1    6    6    0    0 -0.11120988930E+02  0.11737963517E+02  0.52602267646E+02  0.55031397799E+02  0.00000000000E+00 0. -1.
         -5    1    3    3    0  503  0.30816880232E+02  0.97402018770E+01 -0.65840131788E+02  0.73495337224E+02  0.47000000000E+01 0.  1.
         13    1    4    4    0    0 -0.11554846719E+02 -0.11574997473E+03 -0.65586472422E+02  0.13354084206E+03  0.00000000000E+00 0. -1.
        -14    1    4    4    0    0  0.40001556647E+02 -0.15255660601E+03 -0.18588973698E+03  0.24377989434E+03  0.00000000000E+00 0.  1.
</event>
<event>
12    1  0.8219652E-002  0.2247806E+03  0.7818608E-02  0.1130492E+00
         21   -1    0    0  501  502  0.00000000000E+00  0.00000000000E+00  0.15716949594E+04  0.15716949594E+04  0.00000000000E+00 0.  1.
         21   -1    0    0  502  503 -0.00000000000E+00 -0.00000000000E+00 -0.38662576898E+02  0.38662576898E+02  0.00000000000E+00 0.  1.
         -6    2    1    2    0  503  0.11405387892E+03  0.89344983533E+02  0.43449267872E+03  0.48919342520E+03  0.17185897130E+03 0.  0.
        -24    2    3    3    0    0  0.31424542797E+02  0.98456134859E+02  0.33629083548E+03  0.36044439693E+03  0.78406153229E+02 0.  0.
          6    2    1    2  501    0 -0.11405387892E+03 -0.89344983533E+02  0.10985397038E+04  0.11211641111E+04  0.17096394315E+03 0.  0.
         24    2    5    5    0    0 -0.10744936764E+03 -0.11654213474E+03  0.10505547175E+04  0.10654150886E+04  0.79477422859E+02 0.  0.
          5    1    5    5  501    0 -0.66045112762E+01  0.27197151210E+02  0.47984986287E+02  0.55749022521E+02  0.47000000000E+01 0. -1.
        -11    1    6    6    0    0 -0.57819450233E+02 -0.23368525279E+02  0.57001014959E+03  0.57341149922E+03  0.00000000000E+00 0.  1.
         12    1    6    6    0    0 -0.49629917406E+02 -0.93173609464E+02  0.48054456795E+03  0.49200358941E+03  0.00000000000E+00 0. -1.
         -5    1    3    3    0  503  0.82629336118E+02 -0.91111513259E+01  0.98201843238E+02  0.12874902827E+03  0.47000000000E+01 0.  1.
         13    1    4    4    0    0  0.36460358812E+02  0.67406889360E+01  0.11562257702E+03  0.12142230013E+03  0.00000000000E+00 0. -1.
        -14    1    4    4    0    0 -0.50358160148E+01  0.91715445923E+02  0.22066825846E+03  0.23902209679E+03  0.00000000000E+00 0.  1.
</event>
<event>
12    1  0.8219652E-002  0.2230124E+03  0.7818608E-02  0.1131674E+00
         21   -1    0    0  501  502  0.00000000000E+00  0.00000000000E+00  0.13472970962E+04  0.13472970962E+04  0.00000000000E+00 0. -1.
         21   -1    0    0  502  503 -0.00000000000E+00 -0.00000000000E+00 -0.60391319195E+02  0.60391319195E+02  0.00000000000E+00 0.  1.
         -6    2    1    2    0  503  0.13187398657E+03  0.54587796907E+02  0.20438292346E+03  0.30243267260E+03  0.17123833143E+03 0.  0.
        -24    2    3    3    0    0  0.95298154747E+02  0.34345056863E+02  0.22483276825E+03  0.25565825492E+03  0.67454046580E+02 0.  0.
          6    2    1    2  501    0 -0.13187398657E+03 -0.54587796907E+02  0.10825228535E+04  0.11052557428E+04  0.17135913348E+03 0.  0.
         24    2    5    5    0    0 -0.82714086924E+02 -0.18309165218E+02  0.34526953243E+03  0.36546024109E+03  0.84695289625E+02 0.  0.
          5    1    5    5  501    0 -0.49159899645E+02 -0.36278631689E+02  0.73725332112E+03  0.73979550171E+03  0.47000000000E+01 0. -1.
        -11    1    6    6    0    0 -0.21806495707E+02 -0.47262952964E+02  0.16336855810E+03  0.17146018708E+03  0.00000000000E+00 0.  1.
         12    1    6    6    0    0 -0.60907591217E+02  0.28953787746E+02  0.18190097433E+03  0.19400005401E+03  0.00000000000E+00 0. -1.
         -5    1    3    3    0  503  0.36575831821E+02  0.20242740044E+02 -0.20449844788E+02  0.46774417685E+02  0.47000000000E+01 0.  1.
         11    1    4    4    0    0  0.42602319393E+02  0.50897791414E+02  0.12768074029E+03  0.14390244692E+03  0.00000000000E+00 0. -1.
        -12    1    4    4    0    0  0.52695835354E+02 -0.16552734551E+02  0.97152027957E+02  0.11175580800E+03  0.00000000000E+00 0.  1.
</event>
<event>
12    1  0.8219652E-002  0.1945114E+03  0.7818608E-02  0.1155707E+00
         21   -1    0    0  503  502  0.00000000000E+00  0.00000000000E+00  0.21636542261E+03  0.21636542261E+03  0.00000000000E+00 0.  1.
         21   -1    0    0  501  503 -0.00000000000E+00 -0.00000000000E+00 -0.27644450836E+03  0.27644450836E+03  0.00000000000E+00 0.  1.
          6    2    1    2  501    0 -0.25983362235E+02  0.72606114346E+02 -0.18332109375E+03  0.26728509794E+03  0.17857188249E+03 0.  0.
         24    2    3    3    0    0  0.38934036012E+02 -0.10998142672E+02 -0.80435362235E+02  0.11959791456E+03  0.78720996989E+02 0.  0.
         -6    2    1    2    0  502  0.25983362235E+02 -0.72606114346E+02  0.12324200800E+03  0.22552483302E+03  0.17241251353E+03 0.  0.
        -24    2    5    5    0    0  0.67773670473E+02 -0.62970610515E+02  0.13350430671E+03  0.18117759442E+03  0.80270496536E+02 0.  0.
          5    1    3    3  501    0 -0.64917398248E+02  0.83604257018E+02 -0.10288573151E+03  0.14768718338E+03  0.47000000000E+01 0. -1.
        -13    1    4    4    0    0  0.36060802064E+02 -0.11192283475E+01  0.23699373726E+01  0.36155922347E+02  0.00000000000E+00 0.  1.
         14    1    4    4    0    0  0.28732339486E+01 -0.98789143249E+01 -0.82805299607E+02  0.83441992214E+02  0.00000000000E+00 0. -1.
         -5    1    5    5    0  502 -0.41790308237E+02 -0.96355038306E+01 -0.10262298705E+02  0.44347238599E+02  0.47000000000E+01 0.  1.
         13    1    6    6    0    0  0.62524375427E+02 -0.73443838179E+02  0.76852603201E+02  0.12332727804E+03  0.00000000000E+00 0. -1.
        -14    1    6    6    0    0  0.52492950451E+01  0.10473227663E+02  0.56651703505E+02  0.57850316388E+02  0.00000000000E+00 0.  1.
</event>
<event>
12    1  0.8219652E-002  0.1786535E+03  0.7818608E-02  0.1174342E+00
         21   -1    0    0  503  502  0.00000000000E+00  0.00000000000E+00  0.26547429745E+02  0.26547429745E+02  0.00000000000E+00 0.  1.
         21   -1    0    0  501  503 -0.00000000000E+00 -0.00000000000E+00 -0.12826955672E+04  0.12826955672E+04  0.00000000000E+00 0.  1.
          6    2    1    2  501    0  0.10097786299E+02 -0.49760653252E+02 -0.92490610554E+03  0.94200231961E+03  0.17128624635E+03 0.  0.
         24    2    3    3    0    0  0.13212353973E+02  0.39633330495E+02 -0.49681180647E+03  0.50463770770E+03  0.78050482342E+02 0.  0.
         -6    2    1    2    0  502 -0.10097786299E+02  0.49760653252E+02 -0.33124203191E+03  0.36724067733E+03  0.15022098216E+03 0.  0.
        -24    2    5    5    0    0 -0.40918874767E+02  0.72785650533E+02 -0.20654263583E+03  0.23665691350E+03  0.79840647882E+02 0.  0.
          5    1    3    3  501    0 -0.31145676740E+01 -0.89393983748E+02 -0.42809429907E+03  0.43736461191E+03  0.47000000000E+01 0. -1.
        -13    1    4    4    0    0 -0.49344507272E+01  0.10005915704E+02 -0.42204879076E+03  0.42219622089E+03  0.00000000000E+00 0.  1.
         14    1    4    4    0    0  0.18146804701E+02  0.29627414791E+02 -0.74763015716E+02  0.82441486807E+02  0.00000000000E+00 0. -1.
         -5    1    5    5    0  502  0.30821088468E+02 -0.23024997280E+02 -0.12469939608E+03  0.13058376383E+03  0.47000000000E+01 0.  1.
         11    1    6    6    0    0 -0.12560941270E+02 -0.75665668716E+01 -0.95854747887E+02  0.96969907045E+02  0.00000000000E+00 0. -1.
        -12    1    6    6    0    0 -0.28357933497E+02  0.80352217404E+02 -0.11068788794E+03  0.13968700645E+03  0.00000000000E+00 0.  1.
</event>
<event>
12    1  0.8219652E-002  0.1761051E+03  0.7818608E-02  0.1171659E+00
         21   -1    0    0  501  502  0.00000000000E+00  0.00000000000E+00  0.14789580341E+03  0.14789580341E+03  0.00000000000E+00 0.  1.
         21   -1    0    0  502  503 -0.00000000000E+00 -0.00000000000E+00 -0.21094583574E+03  0.21094583574E+03  0.00000000000E+00 0.  1.
         -6    2    1    2    0  503  0.37227879824E+02  0.11755543800E+02 -0.46153958044E+02  0.18192785654E+03  0.17159093594E+03 0.  0.
        -24    2    3    3    0    0  0.61458387358E+02  0.12572676773E+02 -0.84717084048E+02  0.13613495437E+03  0.86142532437E+02 0.  0.
          6    2    1    2  501    0 -0.37227879824E+02 -0.11755543800E+02 -0.16896074290E+02  0.17691378261E+03  0.17172332778E+03 0.  0.
         24    2    5    5    0    0  0.12165692922E+02 -0.13354558485E+02 -0.67835147616E+02  0.10578600275E+03  0.79137366701E+02 0.  0.
          5    1    5    5  501    0 -0.49393572747E+02  0.15990146851E+01  0.50939073325E+02  0.71127779861E+02  0.47000000000E+01 0. -1.
        -13    1    6    6    0    0 -0.12745245975E+02 -0.12557562953E+02 -0.77135628959E+02  0.79183577446E+02  0.00000000000E+00 0.  1.
         14    1    6    6    0    0  0.24910938898E+02 -0.79699553197E+00  0.93004813428E+01  0.26602425300E+02  0.00000000000E+00 0. -1.
         -5    1    3    3    0  503 -0.24230507534E+02 -0.81713297239E+00  0.38563126004E+02  0.45792902167E+02  0.47000000000E+01 0.  1.
         11    1    4    4    0    0  0.70774607767E+02 -0.18484932799E+02 -0.49842588487E+02  0.88515656650E+02  0.00000000000E+00 0. -1.
        -12    1    4    4    0    0 -0.93162204084E+01  0.31057609571E+02 -0.34874495561E+02  0.47619297723E+02  0.00000000000E+00 0.  1.
</event>
<event>
12    1  0.8219652E-002  0.2043504E+03  0.7818608E-02  0.1146238E+00
         21   -1    0    0  501  502  0.00000000000E+00  0.00000000000E+00  0.14736444675E+03  0.14736444675E+03  0.00000000000E+00 0.  1.
         21   -1    0    0  502  503 -0.00000000000E+00 -0.00000000000E+00 -0.34915920352E+03  0.34915920352E+03  0.00000000000E+00 0.  1.
         -6    2    1    2    0  503  0.36470220270E+02  0.10282667043E+03  0.76294733720E+01  0.20391880312E+03  0.17210830393E+03 0.  0.
        -24    2    3    3    0    0  0.10485457447E+02  0.90077036227E+02  0.67237661941E+02  0.13748848462E+03  0.78475237794E+02 0.  0.
          6    2    1    2  501    0 -0.36470220270E+02 -0.10282667043E+03 -0.20942423014E+03  0.29260484716E+03  0.17278798364E+03 0.  0.
         24    2    5    5    0    0 -0.81090913454E+02 -0.70574364411E+02 -0.19233819839E+03  0.23476679753E+03  0.81024622833E+02 0.  0.
          5    1    5    5  501    0  0.44620693184E+02 -0.32252306024E+02 -0.17086031757E+02  0.57838049633E+02  0.47000000000E+01 0. -1.
        -13    1    6    6    0    0 -0.71480788330E+02 -0.86535425339E+02 -0.14142417708E+03  0.18055104764E+03  0.00000000000E+00 0.  1.
         14    1    6    6    0    0 -0.96101251246E+01  0.15961060928E+02 -0.50914021303E+02  0.54215749889E+02  0.00000000000E+00 0. -1.
         -5    1    3    3    0  503  0.25984762823E+02  0.12749634208E+02 -0.59608188568E+02  0.66430318498E+02  0.47000000000E+01 0.  1.
         11    1    4    4    0    0 -0.23175376128E+02  0.81812482762E+02  0.51603246141E+02  0.99464945618E+02  0.00000000000E+00 0. -1.
        -12    1    4    4    0    0  0.33660833575E+02  0.82645534651E+01  0.15634415799E+02  0.38023539004E+02  0.00000000000E+00 0.  1.
</event>
<event>
12    1  0.8219652E-002  0.2110738E+03  0.7818608E-02  0.1140806E+00
         21   -1    0    0  501  502  0.00000000000E+00  0.00000000000E+00  0.49212734722E+02  0.49212734722E+02  0.00000000000E+00 0.  1.
         21   -1    0    0  502  503 -0.00000000000E+00 -0.00000000000E+00 -0.13943012805E+04  0.13943012805E+04  0.00000000000E+00 0.  1.
         -6    2    1    2    0  503  0.25682573130E+02  0.11807557153E+03 -0.11003502693E+04  0.11203283753E+04  0.17252106582E+03 0.  0.
        -24    2    3    3    0    0  0.65554630521E+02  0.39223299341E+02 -0.78680693599E+03  0.79453860617E+03  0.79941011924E+02 0.  0.
          6    2    1    2  501    0 -0.25682573130E+02 -0.11807557153E+03 -0.24473827645E+03  0.32318563992E+03  0.17306270174E+03 0.  0.
         24    2    5    5    0    0 -0.62518917052E+02 -0.10796977216E+03 -0.11204643686E+03  0.18502537896E+03  0.78191432751E+02 0.  0.
          5    1    5    5  501    0  0.36836343922E+02 -0.10105799366E+02 -0.13269183959E+03  0.13816026096E+03  0.47000000000E+01 0. -1.
        -13    1    6    6    0    0 -0.58070727898E+02 -0.23534564078E+02 -0.45833359842E+02  0.77632351629E+02  0.00000000000E+00 0.  1.
         14    1    6    6    0    0 -0.44481891534E+01 -0.84435208083E+02 -0.66213077020E+02  0.10739302733E+03  0.00000000000E+00 0. -1.
         -5    1    3    3    0  503 -0.39872057390E+02  0.78852272187E+02 -0.31354333334E+03  0.32578976913E+03  0.47000000000E+01 0.  1.
         13    1    4    4    0    0 -0.56233523848E+01  0.37807231978E+02 -0.33206987345E+03  0.33426248629E+03  0.00000000000E+00 0. -1.
        -14    1    4    4    0    0  0.71177982905E+02  0.14160673624E+01 -0.45473706253E+03  0.46027611989E+03  0.00000000000E+00 0.  1.
</event>
<event>
12    1  0.8219652E-002  0.2190938E+03  0.7818608E-02  0.1134742E+00
         21   -1    0    0  503  502  0.00000000000E+00  0.00000000000E+00  0.32718328789E+03  0.32718328789E+03  0.00000000000E+00 0.  1.
         21   -1    0    0  501  503 -0.00000000000E+00 -0.00000000000E+00 -0.15037496536E+03  0.15037496536E+03  0.00000000000E+00 0.  1.
          6    2    1    2  501    0  0.88235009157E+02 -0.10018726252E+03  0.48174068035E+02  0.22432755852E+03  0.17372164019E+03 0.  0.
         24    2    3    3    0    0  0.87484712070E+02 -0.93261421892E+02  0.93215954487E+02  0.17850843861E+03  0.82612231696E+02 0.  0.
         -6    2    1    2    0  502 -0.88235009157E+02  0.10018726252E+03  0.12863425450E+03  0.25323069472E+03  0.17249959103E+03 0.  0.
        -24    2    5    5    0    0 -0.19885930525E+02  0.11891142791E+03  0.58428406858E+02  0.15336507520E+03  0.74643081689E+02 0.  0.
          5    1    3    3  501    0  0.75029708731E+00 -0.69258406261E+01 -0.45041886452E+02  0.45819119909E+02  0.47000000000E+01 0. -1.
        -13    1    4    4    0    0  0.10272612680E+01 -0.42900844847E+02  0.17539935101E+01  0.42948972602E+02  0.00000000000E+00 0.  1.
         14    1    4    4    0    0  0.86457450802E+02 -0.50360577045E+02  0.91461960977E+02  0.13555946601E+03  0.00000000000E+00 0. -1.
         -5    1    5    5    0  502 -0.68349078632E+02 -0.18724165388E+02  0.70205847639E+02  0.99865619520E+02  0.47000000000E+01 0.  1.
         13    1    6    6    0    0 -0.18610330840E+02  0.16218631470E+02 -0.13352588713E+02  0.28065638173E+02  0.00000000000E+00 0. -1.
        -14    1    6    6    0    0 -0.12755996852E+01  0.10269279644E+03  0.71780995571E+02  0.12529943703E+03  0.00000000000E+00 0.  1.
</event>
<event>
12    1  0.8219652E-002  0.1960884E+03  0.7818608E-02  0.1153463E+00
         21   -1    0    0  503  502  0.00000000000E+00  0.00000000000E+00  0.29453238020E+03  0.29453238020E+03  0.00000000000E+00 0. -1.
         21   -1    0    0  501  503 -0.00000000000E+00 -0.00000000000E+00 -0.20706333239E+03  0.20706333239E+03  0.00000000000E+00 0.  1.
          6    2    1    2  501    0 -0.38037073362E+02 -0.83147078522E+02 -0.11000005433E+03  0.22330682501E+03  0.17148081678E+03 0.  0.
         24    2    3    3    0    0 -0.53943699843E+02 -0.64312830315E+01 -0.99423090422E+02  0.14410899543E+03  0.89057102476E+02 0.  0.
         -6    2    1    2    0  502  0.38037073362E+02  0.83147078522E+02  0.19746910215E+03  0.27828888759E+03  0.17346585553E+03 0.  0.
        -24    2    5    5    0    0  0.52321857878E+02  0.31639273157E+02  0.20045534624E+03  0.22454768611E+03  0.80626900494E+02 0.  0.
          5    1    3    3  501    0  0.15906626481E+02 -0.76715795491E+02 -0.10576963912E+02  0.79197829575E+02  0.47000000000E+01 0. -1.
        -13    1    4    4    0    0 -0.50626501433E+02 -0.41342711046E+02 -0.82257498835E+02  0.10506454454E+03  0.00000000000E+00 0.  1.
         14    1    4    4    0    0 -0.33171984098E+01  0.34911428014E+02 -0.17165591587E+02  0.39044450897E+02  0.00000000000E+00 0. -1.
         -5    1    5    5    0  502 -0.14284784515E+02  0.51507805365E+02 -0.29862440966E+01  0.53741201475E+02  0.47000000000E+01 0.  1.
         11    1    6    6    0    0  0.55892236637E+01  0.10652373337E+02  0.15674345022E+03  0.15720439455E+03  0.00000000000E+00 0. -1.
        -12    1    6    6    0    0  0.46732634214E+02  0.20986899821E+02  0.43711896025E+02  0.67343291565E+02  0.00000000000E+00 0.  1.
</event>
<event>
12    1  0.8219652E-002  0.2116644E+03  0.7818608E-02  0.1140491E+00
         21   -1    0    0  501  502  0.00000000000E+00  0.00000000000E+00  0.21450540380E+03  0.21450540380E+03  0.00000000000E+00 0.  1.
         21   -1    0    0  502  503 -0.00000000000E+00 -0.00000000000E+00 -0.28509773389E+03  0.28509773389E+03  0.00000000000E+00 0. -1.
         -6    2    1    2    0  503 -0.10177228761E+03 -0.67190886989E+02 -0.16539813103E+03  0.26767653760E+03  0.17152834521E+03 0.  0.
        -24    2    3    3    0    0 -0.13549798809E+03 -0.64767945355E+02 -0.15855441532E+03  0.23285958822E+03  0.80805282538E+02 0.  0.
          6    2    1    2  501    0  0.10177228761E+03  0.67190886989E+02  0.94805800936E+02  0.23192660009E+03  0.17300171710E+03 0.  0.
         24    2    5    5    0    0  0.74367913939E+02  0.80082423248E+02  0.12893983108E+03  0.18605271409E+03  0.77758287302E+02 0.  0.
          5    1    5    5  501    0  0.27404373672E+02 -0.12891536260E+02 -0.34134030142E+02  0.45873886005E+02  0.47000000000E+01 0. -1.
        -13    1    6    6    0    0  0.48073729208E+02  0.36153092516E+02  0.11979032895E+03  0.13404421826E+03  0.00000000000E+00 0.  1.
         14    1    6    6    0    0  0.26294184731E+02  0.43929330732E+02  0.91495021273E+01  0.52008495829E+02  0.00000000000E+00 0. -1.
         -5    1    3    3    0  503  0.33725700481E+02 -0.24229416338E+01 -0.68437157104E+01  0.34816949376E+02  0.47000000000E+01 0.  1.
         13    1    4    4    0    0 -0.79755116208E+02 -0.30782451226E+02 -0.33556967629E+02  0.91839577206E+02  0.00000000000E+00 0. -1.
        -14    1    4    4    0    0 -0.55742871884E+02 -0.33985494128E+02 -0.12499744769E+03  0.14102001102E+03  0.00000000000E+00 0.  1.
</event>
<event>
12    1  0.8219652E-002  0.2068641E+03  0.7818608E-02  0.1144197E+00
         21   -1    0    0  501  502  0.00000000000E+00  0.00000000000E+00  0.33108188788E+03  0.33108188788E+03  0.00000000000E+00 0. -1.
         21   -1    0    0  502  503 -0.00000000000E+00 -0.00000000000E+00 -0.15237445741E+03  0.15237445741E+03  0.00000000000E+00 0.  1.
         -6    2    1    2    0  503 -0.93996465774E+02 -0.63620125402E+02  0.18418018014E+03  0.27651987460E+03  0.17221511652E+03 0.  0.
        -24    2    3    3    0    0 -0.12523416770E+03 -0.66045549708E+02  0.18282282271E+03  0.24480853398E+03  0.80382973393E+02 0.  0.
          6    2    1    2  501    0  0.93996465774E+02  0.63620125402E+02 -0.54727496726E+01  0.20693647069E+03  0.17294477725E+03 0.  0.
         24    2    5    5    0    0 -0.64932034086E+01  0.53092235569E+02  0.28381026531E+02  0.10027261440E+03  0.79926011802E+02 0.  0.
          5    1    5    5  501    0  0.10048966918E+03  0.10527889833E+02 -0.33853776203E+02  0.10666385630E+03  0.47000000000E+01 0. -1.
        -13    1    6    6    0    0  0.87049655561E+01  0.36395239944E+02 -0.23156081585E+02  0.44006749826E+02  0.00000000000E+00 0.  1.
         14    1    6    6    0    0 -0.15198168965E+02  0.16696995625E+02  0.51537108116E+02  0.56265864569E+02  0.00000000000E+00 0. -1.
         -5    1    3    3    0  503  0.31237701926E+02  0.24254243058E+01  0.13573574344E+01  0.31711340620E+02  0.47000000000E+01 0.  1.
         11    1    4    4    0    0 -0.81396562045E+02 -0.79800169626E+02  0.10813116010E+03  0.15711720202E+03  0.00000000000E+00 0. -1.
        -12    1    4    4    0    0 -0.43837605655E+02  0.13754619918E+02  0.74691662604E+02  0.87691331961E+02  0.00000000000E+00 0.  1.
</event>
<event>
12    1  0.8219652E-002  0.2036681E+03  0.7818608E-02  0.1147150E+00
         21   -1    0    0  503  502  0.00000000000E+00  0.00000000000E+00  0.11550722770E+03  0.11550722770E+03  0.00000000000E+00 0. -1.
         21   -1    0    0  501  503 -0.00000000000E+00 -0.00000000000E+00 -0.35617374548E+03  0.35617374548E+03  0.00000000000E+00 0. -1.
          6    2    1    2  501    0 -0.61541241995E+02  0.89910138721E+02 -0.13372970432E+03  0.24364796840E+03  0.17207423159E+03 0.  0.
         24    2    3    3    0    0 -0.58065505416E+02  0.56943962202E+02 -0.16392429488E+03  0.19856301705E+03  0.77083588011E+02 0.  0.
         -6    2    1    2    0  502  0.61541241995E+02 -0.89910138721E+02 -0.10693681346E+03  0.22803300478E+03  0.16938834577E+03 0.  0.
        -24    2    5    5    0    0 -0.63803633304E+01 -0.10012752897E+03 -0.92341739325E+02  0.15765654762E+03  0.79135068666E+02 0.  0.
          5    1    3    3  501    0 -0.34757365790E+01  0.32966176520E+02  0.30194590557E+02  0.45084951348E+02  0.47000000000E+01 0. -1.
        -11    1    4    4    0    0 -0.10301462327E+02 -0.17333864471E+02 -0.53472849876E+02  0.57148304065E+02  0.00000000000E+00 0.  1.
         12    1    4    4    0    0 -0.47764043090E+02  0.74277826673E+02 -0.11045144500E+03  0.14141471299E+03  0.00000000000E+00 0. -1.
         -5    1    5    5    0  502  0.67921605326E+02  0.10217390244E+02 -0.14595074139E+02  0.70376457161E+02  0.47000000000E+01 0.  1.
         13    1    6    6    0    0  0.34841459014E+02 -0.49766976630E+02 -0.58349342071E+02  0.84233751841E+02  0.00000000000E+00 0. -1.
        -14    1    6    6    0    0 -0.41221822344E+02 -0.50360552336E+02 -0.33992397254E+02  0.73422795779E+02  0.00000000000E+00 0.  1.
</event>
<event>
12    1  0.8219652E-002  0.2624648E+03  0.7818608E-02  0.1108097E+00
         21   -1    0    0  501  502  0.00000000000E+00  0.00000000000E+00  0.60091094216E+03  0.60091094216E+03  0.00000000000E+00 0.  1.
         21   -1    0    0  502  503 -0.00000000000E+00 -0.00000000000E+00 -0.13292738824E+03  0.13292738824E+03  0.00000000000E+00 0. -1.
         -6    2    1    2    0  503  0.11093775231E+03  0.13748195631E+03  0.80534973537E+02  0.27454266515E+03  0.19411161693E+03 0.  0.
        -24    2    3    3    0    0  0.55210793518E+02  0.75896434048E+02 -0.39586614583E+02  0.12842779109E+03  0.78218265437E+02 0.  0.
          6    2    1    2  501    0 -0.11093775231E+03 -0.13748195631E+03  0.38744858038E+03  0.45929566525E+03  0.17212679186E+03 0.  0.
         24    2    5    5    0    0 -0.14358004642E+03 -0.11464621230E+03  0.35656579517E+03  0.40867129373E+03  0.78192559145E+02 0.  0.
          5    1    5    5  501    0  0.32642294111E+02 -0.22835744008E+02  0.30882785207E+02  0.50624371515E+02  0.47000000000E+01 0. -1.
        -11    1    6    6    0    0 -0.53867513016E+02 -0.16520455654E+02  0.17349646818E+03  0.18241616947E+03  0.00000000000E+00 0.  1.
         12    1    6    6    0    0 -0.89712533409E+02 -0.98125756647E+02  0.18306932700E+03  0.22625512426E+03  0.00000000000E+00 0. -1.
         -5    1    3    3    0  503  0.55726958796E+02  0.61585522261E+02  0.12012158812E+03  0.14611487406E+03  0.47000000000E+01 0.  1.
         11    1    4    4    0    0 -0.97846498902E+01  0.32142081205E+02 -0.37078741409E+02  0.50036844646E+02  0.00000000000E+00 0. -1.
        -12    1    4    4    0    0  0.64995443409E+02  0.43754352843E+02 -0.25078731742E+01  0.78390946444E+02  0.00000000000E+00 0.  1.
</event>
<event>
12    1  0.8219652E-002  0.1729826E+03  0.7818608E-02  0.1174822E+00
         21   -1    0    0  501  502  0.00000000000E+00  0.00000000000E+00  0.42817168569E+03  0.42817168569E+03  0.00000000000E+00 0.  1.
         21   -1    0    0  502  503 -0.00000000000E+00 -0.00000000000E+00 -0.18238912161E+03  0.18238912161E+03  0.00000000000E+00 0.  1.
         -6    2    1    2    0  503 -0.13065036370E+02 -0.44010198077E+01 -0.11698121046E+03  0.20866462522E+03  0.17223895630E+03 0.  0.
        -24    2    3    3    0    0 -0.34354835269E+02  0.54026138702E+02 -0.10186953348E+03  0.14449733472E+03  0.80018744818E+02 0.  0.
          6    2    1    2  501    0  0.13065036370E+02  0.44010198077E+01  0.36276377454E+03  0.40189618207E+03  0.17243236614E+03 0.  0.
         24    2    5    5    0    0 -0.57899040245E+02  0.15147112480E+02  0.19349565638E+03  0.21797999327E+03  0.80578995707E+02 0.  0.
          5    1    5    5  501    0  0.70964076615E+02 -0.10746092672E+02  0.16926811817E+03  0.18391618881E+03  0.47000000000E+01 0. -1.
        -13    1    6    6    0    0 -0.48671337506E+02 -0.25099753236E+02  0.14051647674E+03  0.15081040064E+03  0.00000000000E+00 0.  1.
         14    1    6    6    0    0 -0.92277027391E+01  0.40246865716E+02  0.52979179640E+02  0.67169592623E+02  0.00000000000E+00 0. -1.
         -5    1    3    3    0  503  0.21289798899E+02 -0.58427158510E+02 -0.15111676984E+02  0.64167290499E+02  0.47000000000E+01 0.  1.
         11    1    4    4    0    0 -0.46544129783E+02  0.55712573876E+02 -0.43043001788E+02  0.84397552737E+02  0.00000000000E+00 0. -1.
        -12    1    4    4    0    0  0.12189294513E+02 -0.16864351743E+01 -0.58826531690E+02  0.60099781988E+02  0.00000000000E+00 0.  1.
</event>
<event>
12    1  0.8219652E-002  0.1778618E+03  0.7818608E-02  0.1170575E+00
         21   -1    0    0  503  502  0.00000000000E+00  0.00000000000E+00  0.42152919592E+03  0.42152919592E+03  0.00000000000E+00 0.  1.
         21   -1    0    0  501  503 -0.00000000000E+00 -0.00000000000E+00 -0.13633479649E+03  0.13633479649E+03  0.00000000000E+00 0.  1.
          6    2    1    2  501    0 -0.42650709595E+02 -0.13411728203E+02 -0.45577332797E+02  0.18360860590E+03  0.17215071715E+03 0.  0.
         24    2    3    3    0    0 -0.55540067982E+02 -0.41995276879E+02 -0.82354634806E+02  0.13505127116E+03  0.81291189778E+02 0.  0.
         -6    2    1    2    0  502  0.42650709595E+02  0.13411728203E+02  0.33077173223E+03  0.37425538650E+03  0.16928732381E+03 0.  0.
        -24    2    5    5    0    0  0.58639129821E+02  0.66459097916E+02  0.18467329449E+03  0.21793361411E+03  0.74400774311E+02 0.  0.
          5    1    3    3  501    0  0.12889358387E+02  0.28583548676E+02  0.36777302009E+02  0.48557334745E+02  0.47000000000E+01 0. -1.
        -13    1    4    4    0    0 -0.11838779578E+02 -0.15745951425E+02 -0.81727931657E+02  0.84068701079E+02  0.00000000000E+00 0.  1.
         14    1    4    4    0    0 -0.43701288404E+02 -0.26249325454E+02 -0.62670314915E+00  0.50982570078E+02  0.00000000000E+00 0. -1.
         -5    1    5    5    0  502 -0.15988420226E+02 -0.53047369714E+02  0.14609843774E+03  0.15632177240E+03  0.47000000000E+01 0.  1.
         11    1    6    6    0    0 -0.19823464358E+01  0.12227571711E+02 -0.35511155020E+01  0.12886179754E+02  0.00000000000E+00 0. -1.
        -12    1    6    6    0    0  0.60621476257E+02  0.54231526205E+02  0.18822440999E+03  0.20504743435E+03  0.00000000000E+00 0.  1.
</event>
<event>
12    1  0.8219652E-002  0.1939144E+03  0.7818608E-02  0.1155137E+00
         21   -1    0    0  503  502  0.00000000000E+00  0.00000000000E+00  0.55414749073E+03  0.55414749073E+03  0.00000000000E+00 0. -1.
         21   -1    0    0  501  503 -0.00000000000E+00 -0.00000000000E+00 -0.10279164169E+03  0.10279164169E+03  0.00000000000E+00 0. -1.
          6    2    1    2  501    0  0.72081825112E+02 -0.53736932613E+02  0.33214875181E+02  0.19602190794E+03  0.17099097351E+03 0.  0.
         24    2    3    3    0    0 -0.26990291567E+02  0.13184485190E+02  0.11215601847E+02  0.74367403337E+02  0.67100033277E+02 0.  0.
         -6    2    1    2    0  502 -0.72081825112E+02  0.53736932613E+02  0.41814097386E+03  0.46091722447E+03  0.17181200876E+03 0.  0.
        -24    2    5    5    0    0 -0.95412967335E+02  0.79544724719E+02  0.38560062291E+03  0.41304918951E+03  0.80565470289E+02 0.  0.
          5    1    3    3  501    0  0.99072116679E+02 -0.66921417803E+02  0.21999273334E+02  0.12165450461E+03  0.47000000000E+01 0. -1.
        -13    1    4    4    0    0 -0.23430801478E+02 -0.23701620297E+02 -0.53869611838E+01  0.33760755522E+02  0.00000000000E+00 0.  1.
         14    1    4    4    0    0 -0.35594900888E+01  0.36886105486E+02  0.16602563031E+02  0.40606647816E+02  0.00000000000E+00 0. -1.
         -5    1    5    5    0  502  0.23331142223E+02 -0.25807792107E+02  0.32540350956E+02  0.47868034962E+02  0.47000000000E+01 0.  1.
         11    1    6    6    0    0 -0.21200678727E+02  0.51685638509E+02  0.24831734853E+03  0.25452382911E+03  0.00000000000E+00 0. -1.
        -12    1    6    6    0    0 -0.74212288607E+02  0.27859086211E+02  0.13728327438E+03  0.15852536040E+03  0.00000000000E+00 0.  1.
</event>
<event>
12    1  0.8219652E-002  0.2056428E+03  0.7818608E-02  0.1145154E+00
         21   -1    0    0  501  502  0.00000000000E+00  0.00000000000E+00  0.94883345796E+03  0.94883345796E+03  0.00000000000E+00 0.  1.
         21   -1    0    0  502  503 -0.00000000000E+00 -0.00000000000E+00 -0.45707720623E+02  0.45707720623E+02  0.00000000000E+00 0.  1.
         -6    2    1    2    0  503  0.60975360847E+02  0.93689200422E+02  0.53280939697E+03  0.57095749927E+03  0.17207832976E+03 0.  0.
        -24    2    3    3    0    0 -0.41505365063E+01  0.16416273086E+02  0.37299709155E+03  0.38181588363E+03  0.79811137773E+02 0.  0.
          6    2    1    2  501    0 -0.60975360847E+02 -0.93689200422E+02  0.37031634037E+03  0.42358367931E+03  0.17260730149E+03 0.  0.
         24    2    5    5    0    0 -0.81605185544E+01 -0.20328744100E+02  0.29179918798E+03  0.30375798367E+03  0.81500273824E+02 0.  0.
          5    1    5    5  501    0 -0.52814842292E+02 -0.73360456321E+02  0.78517152387E+02  0.11982569565E+03  0.47000000000E+01 0. -1.
        -13    1    6    6    0    0 -0.49657603337E+01 -0.24297661811E+02  0.19862259582E+02  0.31773330025E+02  0.00000000000E+00 0.  1.
         14    1    6    6    0    0 -0.31947582207E+01  0.39689177108E+01  0.27193692840E+03  0.27198465364E+03  0.00000000000E+00 0. -1.
         -5    1    3    3    0  503  0.65125897353E+02  0.77272927336E+02  0.15981230542E+03  0.18914161564E+03  0.47000000000E+01 0.  1.
         13    1    4    4    0    0 -0.34038910499E+02 -0.15861123320E+02  0.16551411017E+03  0.16972078048E+03  0.00000000000E+00 0. -1.
        -14    1    4    4    0    0  0.29888373993E+02  0.32277396406E+02  0.20748298138E+03  0.21209510315E+03  0.00000000000E+00 0.  1.
</event>
<event>
12    1  0.8219652E-002  0.1816006E+03  0.7818608E-02  0.1166822E+00
         21   -1    0    0  501  502  0.00000000000E+00  0.00000000000E+00  0.17762042650E+03  0.17762042650E+03  0.00000000000E+00 0. -1.
         21   -1    0    0  502  503 -0.00000000000E+00 -0.00000000000E+00 -0.19086861875E+03  0.19086861875E+03  0.00000000000E+00 0. -1.
         -6    2    1    2    0  503 -0.54426614027E+02 -0.13999673222E+02 -0.43339079293E+02  0.18670041482E+03  0.17268619497E+03 0.  0.
        -24    2    3    3    0    0 -0.24846763897E+02 -0.60307207414E+02 -0.70079897090E+02  0.12540998659E+03  0.81007109670E+02 0.  0.
          6    2    1    2  501    0  0.54426614027E+02  0.13999673222E+02  0.30090887050E+02  0.18178863043E+03  0.17024511008E+03 0.  0.
         24    2    5    5    0    0  0.44623469547E+02  0.50491539513E+02  0.71168386562E+02  0.12577783760E+03  0.78831945237E+02 0.  0.
          5    1    5    5  501    0  0.98031444802E+01 -0.36491866290E+02 -0.41077499513E+02  0.56010792828E+02  0.47000000000E+01 0. -1.
        -11    1    6    6    0    0  0.59198663154E+01  0.61542653462E+02  0.53733639813E+02  0.81913656126E+02  0.00000000000E+00 0.  1.
         12    1    6    6    0    0  0.38703603231E+02 -0.11051113949E+02  0.17434746749E+02  0.43864181479E+02  0.00000000000E+00 0. -1.
         -5    1    3    3    0  503 -0.29579850130E+02  0.46307534191E+02  0.26740817796E+02  0.61290428233E+02  0.47000000000E+01 0.  1.
         11    1    4    4    0    0 -0.42897983422E+02 -0.10400605821E+02 -0.10023457257E+02  0.45264547700E+02  0.00000000000E+00 0. -1.
        -12    1    4    4    0    0  0.18051219524E+02 -0.49906601592E+02 -0.60056439832E+02  0.80145438885E+02  0.00000000000E+00 0.  1.
</event>
<event>
12    1  0.8219652E-002  0.2102309E+03  0.7818608E-02  0.1141646E+00
         21   -1    0    0  503  502  0.00000000000E+00  0.00000000000E+00  0.80400688257E+03  0.80400688257E+03  0.00000000000E+00 0. -1.
         21   -1    0    0  501  503 -0.00000000000E+00 -0.00000000000E+00 -0.12073272466E+03  0.12073272466E+03  0.00000000000E+00 0. -1.
          6    2    1    2  501    0 -0.97119468421E+02 -0.71054251520E+02 -0.98821977421E+00  0.20890999575E+03  0.17076742060E+03 0.  0.
         24    2    3    3    0    0 -0.12600462479E+03 -0.82660518807E+02 -0.20411318965E+02  0.17191804418E+03  0.80182698463E+02 0.  0.
         -6    2    1    2    0  502  0.97119468421E+02  0.71054251520E+02  0.68426237769E+03  0.71582961148E+03  0.17238368064E+03 0.  0.
        -24    2    5    5    0    0  0.40346588932E+01 -0.96324867023E+01  0.36200088009E+03  0.37079382447E+03  0.79588691421E+02 0.  0.
          5    1    3    3  501    0  0.28885156371E+02  0.11606267288E+02  0.19423099191E+02  0.36991951572E+02  0.47000000000E+01 0. -1.
        -13    1    4    4    0    0 -0.67231619875E+02  0.25508742240E+00 -0.20489737808E+02  0.70285027823E+02  0.00000000000E+00 0.  1.
         14    1    4    4    0    0 -0.58773004917E+02 -0.82915606230E+02  0.78418843045E-01  0.10163301635E+03  0.00000000000E+00 0. -1.
         -5    1    5    5    0  502  0.93084809528E+02  0.80686738222E+02  0.32226149760E+03  0.34503578702E+03  0.47000000000E+01 0.  1.
         11    1    6    6    0    0  0.87925313874E+01  0.13974726343E+02  0.13135915767E+02  0.21098669806E+02  0.00000000000E+00 0. -1.
        -12    1    6    6    0    0 -0.47578724942E+01 -0.23607213046E+02  0.34886496433E+03  0.34969515466E+03  0.00000000000E+00 0.  1.
</event>
<event>
12    1  0.8219652E-002  0.2509941E+03  0.7818608E-02  0.1112772E+00
         21   -1    0    0  501  502  0.00000000000E+00  0.00000000000E+00  0.66125809347E+03  0.66125809347E+03  0.00000000000E+00 0. -1.
         21   -1    0    0  502  503 -0.00000000000E+00 -0.00000000000E+00 -0.98918565892E+02  0.98918565892E+02  0.00000000000E+00 0.  1.
         -6    2    1    2    0  503  0.18014014465E+03 -0.33077046205E+02  0.20563290577E+03  0.32401424676E+03  0.17075062948E+03 0.  0.
        -24    2    3    3    0    0  0.85768222830E+02 -0.72703941940E+02  0.11873077488E+03  0.18966239211E+03  0.96087329334E+02 0.  0.
          6    2    1    2  501    0 -0.18014014465E+03  0.33077046205E+02  0.35670662181E+03  0.43616241260E+03  0.17162014283E+03 0.  0.
         24    2    5    5    0    0 -0.67271946901E+02  0.76680346677E+02  0.19256484625E+03  0.23218915367E+03  0.80157299516E+02 0.  0.
          5    1    5    5  501    0 -0.11286819775E+03 -0.43603300472E+02  0.16414177556E+03  0.20397325893E+03  0.47000000000E+01 0. -1.
        -13    1    6    6    0    0 -0.80589903804E+02  0.55696155555E+02  0.17854373980E+03  0.20365328713E+03  0.00000000000E+00 0.  1.
         14    1    6    6    0    0  0.13317956902E+02  0.20984191121E+02  0.14021106452E+02  0.28535866540E+02  0.00000000000E+00 0. -1.
         -5    1    3    3    0  503  0.94371921817E+02  0.39626895735E+02  0.86902130886E+02  0.13435185464E+03  0.47000000000E+01 0.  1.
         11    1    4    4    0    0  0.22804397978E+02  0.17627478785E+02  0.55884596639E+02  0.62879700357E+02  0.00000000000E+00 0. -1.
        -12    1    4    4    0    0  0.62963824852E+02 -0.90331420725E+02  0.62846178240E+02  0.12678269176E+03  0.00000000000E+00 0.  1.
</event>
<event>
12    1  0.8219652E-002  0.1935700E+03  0.7818608E-02  0.1155402E+00
         21   -1    0    0  503  502  0.00000000000E+00  0.00000000000E+00  0.29325837835E+03  0.29325837835E+03  0.00000000000E+00 0. -1.
         21   -1    0    0  501  503 -0.00000000000E+00 -0.00000000000E+00 -0.14208898006E+03  0.14208898006E+03  0.00000000000E+00 0. -1.
          6    2    1    2  501    0 -0.76377387441E+02  0.41216697006E+02  0.55102010368E+01  0.19309551373E+03  0.17240415796E+03 0.  0.
         24    2    3    3    0    0 -0.98624961080E+02  0.60556748379E+02  0.43887156871E+02  0.14447583809E+03  0.74519678822E+02 0.  0.
         -6    2    1    2    0  502  0.76377387441E+02 -0.41216697006E+02  0.14565919725E+03  0.24225184469E+03  0.17302321546E+03 0.  0.
        -24    2    5    5    0    0  0.11748940284E+03 -0.10844154028E+02  0.11151681560E+03  0.18060380010E+03  0.79122544135E+02 0.  0.
          5    1    3    3  501    0  0.22247573639E+02 -0.19340051373E+02 -0.38376955834E+02  0.48619675636E+02  0.47000000000E+01 0. -1.
        -11    1    4    4    0    0 -0.35016650266E+02  0.63283654449E+02  0.34458375256E+02  0.80114707398E+02  0.00000000000E+00 0.  1.
         12    1    4    4    0    0 -0.63608310814E+02 -0.27269060698E+01  0.94287816150E+01  0.64361130693E+02  0.00000000000E+00 0. -1.
         -5    1    5    5    0  502 -0.41112015403E+02 -0.30372542978E+02  0.34142381647E+02  0.61648044591E+02  0.47000000000E+01 0.  1.
         11    1    6    6    0    0  0.63517626562E+02 -0.10012420788E+02  0.10901677922E+03  0.12656775105E+03  0.00000000000E+00 0. -1.
        -12    1    6    6    0    0  0.53971776282E+02 -0.83173323985E+00  0.25000363867E+01  0.54036049052E+02  0.00000000000E+00 0.  1.
</event>
<event>
12    1  0.8219652E-002  0.1764151E+03  0.7818608E-02  0.1171629E+00
         21   -1    0    0  501  502  0.00000000000E+00  0.00000000000E+00  0.11085914794E+03  0.11085914794E+03  0.00000000000E+00 0.  1.
         21   -1    0    0  502  503 -0.00000000000E+00 -0.00000000000E+00 -0.29716956190E+03  0.29716956190E+03  0.00000000000E+00 0.  1.
         -6    2    1    2    0  503 -0.36360234835E+02  0.88352486704E+01 -0.14362891412E+03  0.22652386416E+03  0.17112471408E+03 0.  0.
        -24    2    3    3    0    0  0.17786860099E+02 -0.38857865695E+02 -0.11990468434E+03  0.15042215508E+03  0.80146024802E+02 0.  0.
          6    2    1    2  501    0  0.36360234835E+02 -0.88352486704E+01 -0.42681499841E+02  0.18150484567E+03  0.17240118990E+03 0.  0.
         24    2    5    5    0    0 -0.31331693154E+02  0.31270625877E+02 -0.50157684101E+02  0.10232996570E+03  0.77434498557E+02 0.  0.
          5    1    5    5  501    0  0.67691927989E+02 -0.40105874547E+02  0.74761842595E+01  0.79174879975E+02  0.47000000000E+01 0. -1.
        -11    1    6    6    0    0  0.22594653643E+02  0.26757761228E+02 -0.17909935522E+02  0.39335250725E+02  0.00000000000E+00 0.  1.
         12    1    6    6    0    0 -0.53926346796E+02  0.45128646481E+01 -0.32247748579E+02  0.62994714973E+02  0.00000000000E+00 0. -1.
         -5    1    3    3    0  503 -0.54147094934E+02  0.47693114366E+02 -0.23724229780E+02  0.76101709089E+02  0.47000000000E+01 0.  1.
         13    1    4    4    0    0  0.38677308158E+02  0.65034199012E+01 -0.38762864118E+02  0.55143342948E+02  0.00000000000E+00 0. -1.
        -14    1    4    4    0    0 -0.20890448060E+02 -0.45361285596E+02 -0.81141820224E+02  0.95278812127E+02  0.00000000000E+00 0.  1.
</event>
<event>
12    1  0.8219652E-002  0.1737503E+03  0.7818608E-02  0.1174138E+00
         21   -1    0    0  503  502  0.00000000000E+00  0.00000000000E+00  0.50368462681E+02  0.50368462681E+02  0.00000000000E+00 0. -1.
         21   -1    0    0  501  503 -0.00000000000E+00 -0.00000000000E+00 -0.11012335677E+04  0.11012335677E+04  0.00000000000E+00 0. -1.
          6    2    1    2  501    0 -0.22118048750E+02  0.75939654781E+00 -0.91537768383E+03  0.93172177225E+03  0.17233505760E+03 0.  0.
         24    2    3    3    0    0  0.53641709886E+02 -0.12609602484E+02 -0.52542985889E+03  0.53423005242E+03  0.79301810697E+02 0.  0.
         -6    2    1    2    0  502  0.22118048750E+02 -0.75939654781E+00 -0.13548742121E+03  0.21988025814E+03  0.17175768353E+03 0.  0.
        -24    2    5    5    0    0  0.60170113182E+02  0.30184577957E+02 -0.13850704343E+03  0.17051734409E+03  0.73214836526E+02 0.  0.
          5    1    3    3  501    0 -0.75759758636E+02  0.13368999032E+02 -0.38994782493E+03  0.39749171983E+03  0.47000000000E+01 0. -1.
        -11    1    4    4    0    0 -0.86264680968E+01  0.10130249876E+02 -0.17454942337E+02  0.21947959503E+02  0.00000000000E+00 0.  1.
         12    1    4    4    0    0  0.62268177983E+02 -0.22739852360E+02 -0.50797491656E+03  0.51228209292E+03  0.00000000000E+00 0. -1.
         -5    1    5    5    0  502 -0.38052064432E+02 -0.30943974505E+02  0.30196222249E+01  0.49362914056E+02  0.47000000000E+01 0.  1.
         11    1    6    6    0    0  0.11153685036E+02 -0.13475038561E+02 -0.27821969943E+00  0.17494535156E+02  0.00000000000E+00 0. -1.
        -12    1    6    6    0    0  0.49016428146E+02  0.43659616519E+02 -0.13822882374E+03  0.15302280893E+03  0.00000000000E+00 0.  1.
</event>
<event>
12    1  0.8219652E-002  0.1890181E+03  0.7818608E-02  0.1159369E+00
         21   -1    0    0  503  502  0.00000000000E+00  0.00000000000E+00  0.97714399326E+02  0.97714399326E+02  0.00000000000E+00 0.  1.
         21   -1    0    0  501  503 -0.00000000000E+00 -0.00000000000E+00 -0.54157596781E+03  0.54157596781E+03  0.00000000000E+00 0. -1.
          6    2    1    2  501    0  0.32778612866E+02 -0.73045382659E+02 -0.40423913451E+03  0.44624781927E+03  0.17122433514E+03 0.  0.
         24    2    3    3    0    0  0.20755841947E+01  0.23860201881E+02 -0.22711442618E+03  0.24197197492E+03  0.79974100704E+02 0.  0.
         -6    2    1    2    0  502 -0.32778612866E+02  0.73045382659E+02 -0.39622433976E+02  0.19304254787E+03  0.17112984142E+03 0.  0.
        -24    2    5    5    0    0 -0.30738334348E+02  0.11696650259E+03 -0.34847937506E+02  0.14856656189E+03  0.78940715955E+02 0.  0.
          5    1    3    3  501    0  0.30703028671E+02 -0.96905584541E+02 -0.17712470832E+03  0.20427584434E+03  0.47000000000E+01 0. -1.
        -13    1    4    4    0    0  0.23751786484E+02 -0.21575284509E+02 -0.10774375113E+03  0.11242044374E+03  0.00000000000E+00 0.  1.
         14    1    4    4    0    0 -0.21676202289E+02  0.45435486391E+02 -0.11937067506E+03  0.12955153119E+03  0.00000000000E+00 0. -1.
         -5    1    5    5    0  502 -0.20402785175E+01 -0.43921119930E+02 -0.47744964700E+01  0.44475985980E+02  0.47000000000E+01 0.  1.
         11    1    6    6    0    0  0.10085773122E+02 -0.61864887706E+01 -0.11953325612E+02  0.16818961203E+02  0.00000000000E+00 0. -1.
        -12    1    6    6    0    0 -0.40824107470E+02  0.12315299136E+03 -0.22894611894E+02  0.13174760068E+03  0.00000000000E+00 0.  1.
</event>
<event>
12    1  0.8219652E-002  0.2088607E+03  0.7818608E-02  0.1142484E+00
         21   -1    0    0  501  502  0.00000000000E+00  0.00000000000E+00  0.11287795373E+03  0.11287795373E+03  0.00000000000E+00 0. -1.
         21   -1    0    0  502  503 -0.00000000000E+00 -0.00000000000E+00 -0.39974769918E+03  0.39974769918E+03  0.00000000000E+00 0.  1.
         -6    2    1    2    0  503 -0.43308479559E+02 -0.11061377324E+03 -0.19038710138E+03  0.28261289249E+03  0.17178989317E+03 0.  0.
        -24    2    3    3    0    0 -0.28260791479E+02 -0.13139159955E+03 -0.20167802742E+03  0.25419237184E+03  0.76663618428E+02 0.  0.
          6    2    1    2  501    0  0.43308479559E+02  0.11061377324E+03 -0.96482644065E+02  0.23001276042E+03  0.17171469978E+03 0.  0.
         24    2    5    5    0    0  0.47419481646E+02  0.84651973247E+00 -0.70800511938E+02  0.11710832211E+03  0.80326351724E+02 0.  0.
          5    1    5    5  501    0 -0.41110020871E+01  0.10976725351E+03 -0.25682132127E+02  0.11290443831E+03  0.47000000000E+01 0. -1.
        -13    1    6    6    0    0 -0.63538282923E+01 -0.27122833160E+02 -0.40994755551E+02  0.49563990913E+02  0.00000000000E+00 0.  1.
         14    1    6    6    0    0  0.53773309938E+02  0.27969352892E+02 -0.29805756387E+02  0.67544331196E+02  0.00000000000E+00 0. -1.
         -5    1    3    3    0  503 -0.15047688080E+02  0.20777826316E+02  0.11290926038E+02  0.28420520645E+02  0.47000000000E+01 0.  1.
         13    1    4    4    0    0 -0.23976801215E+02 -0.49229786335E+02 -0.26879735839E+02  0.60999828343E+02  0.00000000000E+00 0. -1.
        -14    1    4    4    0    0 -0.42839902638E+01 -0.82161813219E+02 -0.17479829158E+03  0.19319254350E+03  0.00000000000E+00 0.  1.
</event>
<event>
12    1  0.8219652E-002  0.8047695E+03  0.7818608E-02  0.9553322E-01
         21   -1    0    0  503  502  0.00000000000E+00  0.00000000000E+00  0.94599483110E+03  0.94599483110E+03  0.00000000000E+00 0.  1.
         21   -1    0    0  501  503 -0.00000000000E+00 -0.00000000000E+00 -0.91360990645E+03  0.91360990645E+03  0.00000000000E+00 0. -1.
          6    2    1    2  501    0 -0.55044358360E+03  0.56060489928E+03 -0.44973407223E+03  0.92190818911E+03  0.17432148924E+03 0.  0.
         24    2    3    3    0    0 -0.11753629554E+03  0.12341802633E+03 -0.11970956083E+03  0.22371097481E+03  0.81666586220E+02 0.  0.
         -6    2    1    2    0  502  0.55044358360E+03 -0.56060489928E+03  0.48211899688E+03  0.93769654844E+03  0.17195958240E+03 0.  0.
        -24    2    5    5    0    0  0.17871388354E+03 -0.19624574017E+03  0.10879397641E+03  0.29712318992E+03  0.77427501446E+02 0.  0.
          5    1    3    3  501    0 -0.43290728806E+03  0.43718687294E+03 -0.33002451139E+03  0.69819721430E+03  0.47000000000E+01 0. -1.
        -13    1    4    4    0    0 -0.76534039452E+02  0.12355109676E+03 -0.76872344801E+02  0.16441316888E+03  0.00000000000E+00 0.  1.
         14    1    4    4    0    0 -0.41002256085E+02 -0.13307042151E+00 -0.42837216033E+02  0.59297805940E+02  0.00000000000E+00 0. -1.
         -5    1    5    5    0  502  0.37172970006E+03 -0.36435915910E+03  0.37332502047E+03  0.64057335852E+03  0.47000000000E+01 0.  1.
         13    1    6    6    0    0  0.73095544290E+02 -0.51579838113E+02  0.38910776574E+01  0.89546517409E+02  0.00000000000E+00 0. -1.
        -14    1    6    6    0    0  0.10561833925E+03 -0.14466590206E+03  0.10490289875E+03  0.20757667251E+03  0.00000000000E+00 0.  1.
</event>
<event>
12    1  0.8219652E-002  0.1792096E+03  0.7818608E-02  0.1168746E+00
         21   -1    0    0  503  502  0.00000000000E+00  0.00000000000E+00  0.45665572262E+03  0.45665572262E+03  0.00000000000E+00 0. -1.
         21   -1    0    0  501  503 -0.00000000000E+00 -0.00000000000E+00 -0.85121937443E+02  0.85121937443E+02  0.00000000000E+00 0. -1.
          6    2    1    2  501    0  0.13517765459E+02 -0.50083853523E+02  0.72074850317E+02  0.19316024960E+03  0.17153709689E+03 0.  0.
         24    2    3    3    0    0  0.19111568251E+02  0.29005699268E+02  0.75928477516E+02  0.11364051347E+03  0.77087288018E+02 0.  0.
         -6    2    1    2    0  502 -0.13517765459E+02  0.50083853523E+02  0.29945893486E+03  0.34861741047E+03  0.17078443385E+03 0.  0.
        -24    2    5    5    0    0 -0.99097815442E+01  0.99608207660E+02  0.22675268049E+03  0.26044729860E+03  0.79975111372E+02 0.  0.
          5    1    3    3  501    0 -0.55938027921E+01 -0.79089552792E+02 -0.38536271984E+01  0.79519736123E+02  0.47000000000E+01 0. -1.
        -11    1    4    4    0    0  0.35638930442E+02  0.23782851737E+02  0.80645944254E+01  0.43598108709E+02  0.00000000000E+00 0.  1.
         12    1    4    4    0    0 -0.16527362190E+02  0.52228475315E+01  0.67863883090E+02  0.70042404766E+02  0.00000000000E+00 0. -1.
         -5    1    5    5    0  502 -0.36079839147E+01 -0.49524354137E+02  0.72706254375E+02  0.88170111862E+02  0.47000000000E+01 0.  1.
         11    1    6    6    0    0 -0.40278145568E+02  0.74598045476E+02  0.18253501381E+03  0.20126159263E+03  0.00000000000E+00 0. -1.
        -12    1    6    6    0    0  0.30368364024E+02  0.25010162184E+02  0.44217666676E+02  0.59185705979E+02  0.00000000000E+00 0.  1.
</event>
<event>
12    1  0.8219652E-002  0.1969560E+03  0.7818608E-02  0.1154863E+00
         21   -1    0    0  501  502  0.00000000000E+00  0.00000000000E+00  0.36677987964E+03  0.36677987964E+03  0.00000000000E+00 0.  1.
         21   -1    0    0  502  503 -0.00000000000E+00 -0.00000000000E+00 -0.67287827279E+03  0.67287827279E+03  0.00000000000E+00 0.  1.
         -6    2    1    2    0  503  0.16003945561E+02 -0.69663783026E+02 -0.63345276542E+03  0.66336572761E+03  0.18352796410E+03 0.  0.
        -24    2    3    3    0    0  0.43945584341E+02 -0.48249228612E+02 -0.17750814729E+03  0.20603991036E+03  0.81756344482E+02 0.  0.
          6    2    1    2  501    0 -0.16003945561E+02  0.69663783026E+02  0.32735437228E+03  0.37629242482E+03  0.17124816785E+03 0.  0.
         24    2    5    5    0    0  0.34531292263E+02  0.91374540506E+00  0.23051234842E+03  0.24713807716E+03  0.82146462695E+02 0.  0.
          5    1    5    5  501    0 -0.50535237824E+02  0.68750037621E+02  0.96842023859E+02  0.12915434766E+03  0.47000000000E+01 0. -1.
        -13    1    6    6    0    0  0.44659591808E+02  0.32779242350E+02  0.13409696330E+03  0.14508946700E+03  0.00000000000E+00 0.  1.
         14    1    6    6    0    0 -0.10128299545E+02 -0.31865496945E+02  0.96415385119E+02  0.10204861016E+03  0.00000000000E+00 0. -1.
         -5    1    3    3    0  503 -0.27941638780E+02 -0.21414554415E+02 -0.45594461813E+03  0.45732581725E+03  0.47000000000E+01 0.  1.
         13    1    4    4    0    0  0.58305443853E+02 -0.49206299765E+01 -0.10911031033E+03  0.12380951984E+03  0.00000000000E+00 0. -1.
        -14    1    4    4    0    0 -0.14359859513E+02 -0.43328598635E+02 -0.68397836964E+02  0.82230390527E+02  0.00000000000E+00 0.  1.
</event>
<event>
12    1  0.8219652E-002  0.1772948E+03  0.7818608E-02  0.1171995E+00
         21   -1    0    0  503  502  0.00000000000E+00  0.00000000000E+00  0.13757409811E+03  0.13757409811E+03  0.00000000000E+00 0. -1.
         21   -1    0    0  501  503 -0.00000000000E+00 -0.00000000000E+00 -0.46800366933E+03  0.46800366933E+03  0.00000000000E+00 0. -1.
          6    2    1    2  501    0  0.33881517317E+02  0.14258879105E+02 -0.38671426192E+03  0.42541903696E+03  0.17344210500E+03 0.  0.
         24    2    3    3    0    0  0.54664250786E+01  0.14270717879E+02 -0.11022307136E+03  0.14743183211E+03  0.96713414093E+02 0.  0.
         -6    2    1    2    0  502 -0.33881517317E+02 -0.14258879105E+02  0.56284690699E+02  0.18015873048E+03  0.16714642955E+03 0.  0.
        -24    2    5    5    0    0 -0.66683431875E+02 -0.11262185430E+02  0.85712720878E+02  0.13573976233E+03  0.80654173167E+02 0.  0.
          5    1    3    3  501    0  0.28415092239E+02 -0.11838773235E-01 -0.27649119056E+03  0.27798720485E+03  0.47000000000E+01 0. -1.
        -13    1    4    4    0    0  0.45102242865E+02 -0.11237827783E+02 -0.76358638191E+02  0.89393191637E+02  0.00000000000E+00 0.  1.
         14    1    4    4    0    0 -0.39635817786E+02  0.25508545661E+02 -0.33864433171E+02  0.58038640468E+02  0.00000000000E+00 0. -1.
         -5    1    5    5    0  502  0.32801914557E+02 -0.29966936751E+01 -0.29428030180E+02  0.44418968154E+02  0.47000000000E+01 0.  1.
         13    1    6    6    0    0 -0.73705578457E+02  0.35146956464E+01  0.33525755512E+02  0.81048390878E+02  0.00000000000E+00 0. -1.
        -14    1    6    6    0    0  0.70221465827E+01 -0.14776881077E+02  0.52186965366E+02  0.54691371450E+02  0.00000000000E+00 0.  1.
</event>
<event>
12    1  0.8219652E-002  0.1966044E+03  0.7818608E-02  0.1152942E+00
         21   -1    0    0  503  502  0.00000000000E+00  0.00000000000E+00  0.10072717649E+04  0.10072717649E+04  0.00000000000E+00 0.  1.
         21   -1    0    0  501  503 -0.00000000000E+00 -0.00000000000E+00 -0.45950219582E+02  0.45950219582E+02  0.00000000000E+00 0.  1.
          6    2    1    2  501    0 -0.53777447740E+02 -0.77401542787E+02  0.69978067502E+03  0.72687432183E+03  0.17254064420E+03 0.  0.
         24    2    3    3    0    0 -0.86548953233E+02 -0.99293457750E+02  0.53871217947E+03  0.56098768051E+03  0.84536698017E+02 0.  0.
         -6    2    1    2    0  502  0.53777447740E+02  0.77401542787E+02  0.26154087033E+03  0.32634766268E+03  0.17092734530E+03 0.  0.
        -24    2    5    5    0    0  0.97423588879E+02  0.35635228935E+02  0.14819168213E+03  0.19781930365E+03  0.80065454675E+02 0.  0.
          5    1    3    3  501    0  0.32771505493E+02  0.21891914963E+02  0.16106849554E+03  0.16588664132E+03  0.47000000000E+01 0. -1.
        -11    1    4    4    0    0 -0.63116954034E+02 -0.13758354600E+02  0.28475031450E+03  0.29198593085E+03  0.00000000000E+00 0.  1.
         12    1    4    4    0    0 -0.23431999199E+02 -0.85535103150E+02  0.25396186498E+03  0.26900174966E+03  0.00000000000E+00 0. -1.
         -5    1    5    5    0  502 -0.43646141139E+02  0.41766313852E+02  0.11334918820E+03  0.12852835903E+03  0.47000000000E+01 0.  1.
         13    1    6    6    0    0  0.63650370279E+02 -0.46318433057E+01  0.34451328388E+02  0.72523910794E+02  0.00000000000E+00 0. -1.
        -14    1    6    6    0    0  0.33773218599E+02  0.40267072240E+02  0.11374035374E+03  0.12529539285E+03  0.00000000000E+00 0.  1.
</event>
<event>
12    1  0.8219652E-002  0.2404479E+03  0.7818608E-02  0.1119572E+00
         21   -1    0    0  503  502  0.00000000000E+00  0.00000000000E+00  0.14805815166E+03  0.14805815166E+03  0.00000000000E+00 0. -1.
         21   -1    0    0  501  503 -0.00000000000E+00 -0.00000000000E+00 -0.48350541815E+03  0.48350541815E+03  0.00000000000E+00 0. -1.
          6    2    1    2  501    0 -0.57899751140E+02  0.15917114823E+03 -0.30665790717E+03  0.38939833244E+03  0.17001221624E+03 0.  0.
         24    2    3    3    0    0  0.19319205013E+02  0.57308472650E+02 -0.80490609293E+02  0.12956663982E+03  0.81555399877E+02 0.  0.
         -6    2    1    2    0  502  0.57899751140E+02 -0.15917114823E+03 -0.28789359315E+02  0.24216523736E+03  0.17066733538E+03 0.  0.
        -24    2    5    5    0    0  0.10949467710E+02 -0.30236498779E+02 -0.53165675556E+02  0.10272074039E+03  0.81797461742E+02 0.  0.
          5    1    3    3  501    0 -0.77218956153E+02  0.10186267558E+03 -0.22616729788E+03  0.25983169263E+03  0.47000000000E+01 0. -1.
        -13    1    4    4    0    0 -0.24590117385E+02  0.51704575910E+02 -0.46402237338E+02  0.73696707342E+02  0.00000000000E+00 0.  1.
         14    1    4    4    0    0  0.43909322398E+02  0.56038967395E+01 -0.34088371954E+02  0.55869932474E+02  0.00000000000E+00 0. -1.
         -5    1    5    5    0  502  0.46950283430E+02 -0.12893464945E+03  0.24376316241E+02  0.13944449697E+03  0.47000000000E+01 0.  1.
         11    1    6    6    0    0  0.39388107366E+02 -0.35704356859E+02 -0.15827526212E+02  0.55468321469E+02  0.00000000000E+00 0. -1.
        -12    1    6    6    0    0 -0.28438639657E+02  0.54678580793E+01 -0.37338149344E+02  0.47252418921E+02  0.00000000000E+00 0.  1.
</event>
<event>
12    1  0.8219652E-002  0.3128265E+03  0.7818608E-02  0.1079106E+00
         21   -1    0    0  501  502  0.00000000000E+00  0.00000000000E+00  0.11331534841E+03  0.11331534841E+03  0.00000000000E+00 0. -1.
         21   -1    0    0  502  503 -0.00000000000E+00 -0.00000000000E+00 -0.16218960302E+04  0.16218960302E+04  0.00000000000E+00 0.  1.
         -6    2    1    2    0  503 -0.58298233392E+02 -0.25407360594E+03 -0.13479186448E+04  0.13835400971E+04  0.17130804477E+03 0.  0.
        -24    2    3    3    0    0 -0.34537737859E+02 -0.21955354333E+03 -0.80205162815E+03  0.83604663990E+03  0.79313026408E+02 0.  0.
          6    2    1    2  501    0  0.58298233392E+02  0.25407360594E+03 -0.16066203706E+03  0.35167128151E+03  0.17294021751E+03 0.  0.
         24    2    5    5    0    0  0.71977511208E+02  0.16120175366E+03 -0.16952422986E+03  0.25726295534E+03  0.79240117243E+02 0.  0.
          5    1    5    5  501    0 -0.13679277817E+02  0.92871852282E+02  0.88621928008E+01  0.94408326164E+02  0.47000000000E+01 0. -1.
        -11    1    6    6    0    0  0.17788750714E+02  0.65441143132E+02 -0.11724460233E+03  0.13544474757E+03  0.00000000000E+00 0.  1.
         12    1    6    6    0    0  0.54188760494E+02  0.95760610525E+02 -0.52279627521E+02  0.12181820778E+03  0.00000000000E+00 0. -1.
         -5    1    3    3    0  503 -0.23760495533E+02 -0.34520062613E+02 -0.54586701664E+03  0.54749345724E+03  0.47000000000E+01 0.  1.
         13    1    4    4    0    0 -0.35068821713E+02 -0.10467669672E+03 -0.51822591629E+03  0.52985387929E+03  0.00000000000E+00 0. -1.
        -14    1    4    4    0    0  0.53108385455E+00 -0.11487684661E+03 -0.28382571186E+03  0.30619276061E+03  0.00000000000E+00 0.  1.
</event>
<event>
12    1  0.8219652E-002  0.2576499E+03  0.7818608E-02  0.1108614E+00
         21   -1    0    0  501  502  0.00000000000E+00  0.00000000000E+00  0.37283230068E+03  0.37283230068E+03  0.00000000000E+00 0.  1.
         21   -1    0    0  502  503 -0.00000000000E+00 -0.00000000000E+00 -0.57162849737E+03  0.57162849737E+03  0.00000000000E+00 0. -1.
         -6    2    1    2    0  503  0.17279677658E+03  0.90605353402E+02 -0.49133538702E+03  0.55463691751E+03  0.16776051881E+03 0.  0.
        -24    2    3    3    0    0  0.10240484967E+03  0.12184012440E+03 -0.31365649597E+03  0.36092963159E+03  0.80981679099E+02 0.  0.
          6    2    1    2  501    0 -0.17279677658E+03 -0.90605353402E+02  0.29253919033E+03  0.38982388054E+03  0.16827187495E+03 0.  0.
         24    2    5    5    0    0 -0.11005953906E+03  0.11917490817E+02  0.15266592356E+03  0.20534213263E+03  0.81261174545E+02 0.  0.
          5    1    5    5  501    0 -0.62737237518E+02 -0.10252284422E+03  0.13987326677E+03  0.18448174792E+03  0.47000000000E+01 0. -1.
        -11    1    6    6    0    0 -0.56740614760E+02 -0.29070898399E+02  0.10525402147E+03  0.12305699302E+03  0.00000000000E+00 0.  1.
         12    1    6    6    0    0 -0.53318924298E+02  0.40988389216E+02  0.47411902097E+02  0.82285139601E+02  0.00000000000E+00 0. -1.
         -5    1    3    3    0  503  0.70391926904E+02 -0.31234771001E+02 -0.17767889105E+03  0.19370728592E+03  0.47000000000E+01 0.  1.
         11    1    4    4    0    0  0.38028972921E+02  0.30222215376E+02 -0.18064201767E+03  0.18705914474E+03  0.00000000000E+00 0. -1.
        -12    1    4    4    0    0  0.64375876750E+02  0.91617909027E+02 -0.13301447830E+03  0.17387048685E+03  0.00000000000E+00 0.  1.
</event>
<event>
12    1  0.8219652E-002  0.1825738E+03  0.7818608E-02  0.1166602E+00
         21   -1    0    0  503  502  0.00000000000E+00  0.00000000000E+00  0.11643472998E+03  0.11643472998E+03  0.00000000000E+00 0. -1.
         21   -1    0    0  501  503 -0.00000000000E+00 -0.00000000000E+00 -0.33166065011E+03  0.33166065011E+03  0.00000000000E+00 0. -1.
          6    2    1    2  501    0 -0.21225667666E+02 -0.40579597632E+02 -0.19895334909E+03  0.27002891235E+03  0.17673693919E+03 0.  0.
         24    2    3    3    0    0 -0.27190101467E+02 -0.92925740094E+02 -0.16315639051E+03  0.20616025536E+03  0.80669376694E+02 0.  0.
         -6    2    1    2    0  502  0.21225667666E+02  0.40579597632E+02 -0.16272571028E+02  0.17806646774E+03  0.17130568483E+03 0.  0.
        -24    2    5    5    0    0  0.61314115319E+02 -0.15662131490E+01 -0.48415474412E+02  0.11144357949E+03  0.79459042816E+02 0.  0.
          5    1    3    3  501    0  0.59644338018E+01  0.52346142462E+02 -0.35796958585E+02  0.63868656985E+02  0.47000000000E+01 0. -1.
        -11    1    4    4    0    0  0.78297495097E+01 -0.21548440187E+02  0.18471112054E+01  0.23001131966E+02  0.00000000000E+00 0.  1.
         12    1    4    4    0    0 -0.35019850977E+02 -0.71377299907E+02 -0.16500350171E+03  0.18315912339E+03  0.00000000000E+00 0. -1.
         -5    1    5    5    0  502 -0.40088447653E+02  0.42145810781E+02  0.32142903385E+02  0.66622888257E+02  0.47000000000E+01 0.  1.
         13    1    6    6    0    0  0.50762668835E+02 -0.69386878010E+01  0.96908593566E+01  0.52143136563E+02  0.00000000000E+00 0. -1.
        -14    1    6    6    0    0  0.10551446484E+02  0.53724746520E+01 -0.58106333769E+02  0.59300442923E+02  0.00000000000E+00 0.  1.
</event>
<event>
12    1  0.8219652E-002  0.2114416E+03  0.7818608E-02  0.1140587E+00
         21   -1    0    0  501  502  0.00000000000E+00  0.00000000000E+00  0.83337380359E+02  0.83337380359E+02  0.00000000000E+00 0.  1.
         21   -1    0    0  502  503 -0.00000000000E+00 -0.00000000000E+00 -0.60464436212E+03  0.60464436212E+03  0.00000000000E+00 0. -1.
         -6    2    1    2    0  503 -0.11447958869E+03  0.44987603874E+02 -0.37830415695E+03  0.43338388225E+03  0.17198282909E+03 0.  0.
        -24    2    3    3    0    0  0.87179368566E+01  0.35274381878E+02 -0.17512942050E+03  0.19553090137E+03  0.79004651932E+02 0.  0.
          6    2    1    2  501    0  0.11447958869E+03 -0.44987603874E+02 -0.14300282481E+03  0.25459786023E+03  0.17099942047E+03 0.  0.
         24    2    5    5    0    0  0.78317420921E+02 -0.23885261882E+02 -0.86460500974E+01  0.11379003329E+03  0.78544849223E+02 0.  0.
          5    1    5    5  501    0  0.36162167764E+02 -0.21102341993E+02 -0.13435677471E+03  0.14080782694E+03  0.47000000000E+01 0. -1.
        -13    1    6    6    0    0  0.88246888280E+02 -0.51323262287E+01 -0.18631947700E+02  0.90338272835E+02  0.00000000000E+00 0.  1.
         14    1    6    6    0    0 -0.99294673587E+01 -0.18752935653E+02  0.99858976025E+01  0.23451760458E+02  0.00000000000E+00 0. -1.
         -5    1    3    3    0  503 -0.12319752554E+03  0.97132219961E+01 -0.20317473645E+03  0.23785298088E+03  0.47000000000E+01 0.  1.
         11    1    4    4    0    0 -0.13593178696E+02 -0.32209981088E+01 -0.13466921205E+03  0.13539182401E+03  0.00000000000E+00 0. -1.
        -12    1    4    4    0    0  0.22311115553E+02  0.38495379987E+02 -0.40460208447E+02  0.60139077355E+02  0.00000000000E+00 0.  1.
</event>
<event>
12    1  0.8219652E-002  0.2074845E+03  0.7818608E-02  0.1147658E+00
         21   -1    0    0  501  502  0.00000000000E+00  0.00000000000E+00  0.51888319047E+03  0.51888319047E+03  0.00000000000E+00 0. -1.
         21   -1    0    0  502  503 -0.00000000000E+00 -0.00000000000E+00 -0.25806246557E+03  0.25806246557E+03  0.00000000000E+00 0. -1.
         -6    2    1    2    0  503 -0.38048823811E+02  0.69275126355E+02 -0.19813259222E+03  0.27327119460E+03  0.17080358770E+03 0.  0.
        -24    2    3    3    0    0 -0.17685067189E+02  0.16979788112E+02 -0.19983024577E+03  0.21692887468E+03  0.80777068164E+02 0.  0.
          6    2    1    2  501    0  0.38048823811E+02 -0.69275126355E+02  0.45895331713E+03  0.50367446144E+03  0.19184123562E+03 0.  0.
         24    2    5    5    0    0  0.59035919926E+02 -0.27543706678E+02  0.44355968942E+03  0.45426774767E+03  0.73280917565E+02 0.  0.
          5    1    5    5  501    0 -0.20987096116E+02 -0.41731419676E+02  0.15393627709E+02  0.49406713771E+02  0.47000000000E+01 0. -1.
        -11    1    6    6    0    0 -0.26497883818E+01 -0.26058970944E+02  0.55953515986E+02  0.61780962248E+02  0.00000000000E+00 0.  1.
         12    1    6    6    0    0  0.61685708308E+02 -0.14847357347E+01  0.38760617343E+03  0.39248678543E+03  0.00000000000E+00 0. -1.
         -5    1    3    3    0  503 -0.20363756621E+02  0.52295338243E+02  0.16976535469E+01  0.56342319913E+02  0.47000000000E+01 0.  1.
         13    1    4    4    0    0 -0.27352655734E+02 -0.14573590547E+02 -0.27397078660E+02  0.41366136346E+02  0.00000000000E+00 0. -1.
        -14    1    4    4    0    0  0.96675885444E+01  0.31553378659E+02 -0.17243316711E+03  0.17556273834E+03  0.00000000000E+00 0.  1.
</event>
<event>
12    1  0.8219652E-002  0.2533684E+03  0.7818608E-02  0.1111703E+00
         21   -1    0    0  501  502  0.00000000000E+00  0.00000000000E+00  0.62599985141E+03  0.62599985141E+03  0.00000000000E+00 0.  1.
         21   -1    0    0  502  503 -0.00000000000E+00 -0.00000000000E+00 -0.29164130013E+03  0.29164130013E+03  0.00000000000E+00 0.  1.
         -6    2    1    2    0  503  0.11034271371E+03  0.14454604658E+03 -0.20317212790E+03  0.32476828078E+03  0.17642689305E+03 0.  0.
        -24    2    3    3    0    0  0.28654579087E+02  0.14581592264E+03 -0.11137026650E+03  0.20178764946E+03  0.78940173637E+02 0.  0.
          6    2    1    2  501    0 -0.11034271371E+03 -0.14454604658E+03  0.53753067919E+03  0.59287287076E+03  0.17172633974E+03 0.  0.
         24    2    5    5    0    0 -0.11338986966E+03 -0.13381928038E+03  0.54540312717E+03  0.57843631612E+03  0.79744205683E+02 0.  0.
          5    1    5    5  501    0  0.30471559481E+01 -0.10726766203E+02 -0.78724479821E+01  0.14436554636E+02  0.47000000000E+01 0. -1.
        -11    1    6    6    0    0 -0.47566321654E+02 -0.10414011416E+03  0.40045243035E+03  0.41649713962E+03  0.00000000000E+00 0.  1.
         12    1    6    6    0    0 -0.65823548009E+02 -0.29679166217E+02  0.14495069682E+03  0.16193917651E+03  0.00000000000E+00 0. -1.
         -5    1    3    3    0  503  0.81688134627E+02 -0.12698760586E+01 -0.91801861402E+02  0.12298063132E+03  0.47000000000E+01 0.  1.
         13    1    4    4    0    0  0.48899782752E+02  0.12129597170E+03 -0.66294311645E+02  0.14662481802E+03  0.00000000000E+00 0. -1.
        -14    1    4    4    0    0 -0.20245203664E+02  0.24519950945E+02 -0.45075954857E+02  0.55162831436E+02  0.00000000000E+00 0.  1.
</event>
<event>
12    1  0.8219652E-002  0.2441357E+03  0.7818608E-02  0.1117343E+00
         21   -1    0    0  503  502  0.00000000000E+00  0.00000000000E+00  0.24321193957E+04  0.24321193957E+04  0.00000000000E+00 0. -1.
         21   -1    0    0  501  503 -0.00000000000E+00 -0.00000000000E+00 -0.25639899364E+02  0.25639899364E+02  0.00000000000E+00 0. -1.
          6    2    1    2  501    0 -0.14142025884E+03 -0.10003222571E+03  0.93023204700E+03  0.96173485152E+03  0.17203525099E+03 0.  0.
         24    2    3    3    0    0 -0.28223673739E+02  0.52313115125E+01  0.25162891123E+03  0.26573328182E+03  0.80455737668E+02 0.  0.
         -6    2    1    2    0  502  0.14142025884E+03  0.10003222571E+03  0.14762474493E+04  0.14960244435E+04  0.16963628211E+03 0.  0.
        -24    2    5    5    0    0  0.13673244552E+03  0.16725978925E+02  0.10056539693E+04  0.10180681487E+04  0.78404906439E+02 0.  0.
          5    1    3    3  501    0 -0.11319658510E+03 -0.10526353722E+03  0.67860313577E+03  0.69600156970E+03  0.47000000000E+01 0. -1.
        -13    1    4    4    0    0 -0.34719796445E+02  0.35518654892E+02  0.19455572707E+03  0.20079584170E+03  0.00000000000E+00 0.  1.
         14    1    4    4    0    0  0.64961227061E+01 -0.30287343380E+02  0.57073184160E+02  0.64937440120E+02  0.00000000000E+00 0. -1.
         -5    1    5    5    0  502  0.46878133185E+01  0.83306246783E+02  0.47059348000E+03  0.47795629483E+03  0.47000000000E+01 0.  1.
         11    1    6    6    0    0  0.84746561425E+02  0.47555398735E+02  0.67095602204E+03  0.67795684164E+03  0.00000000000E+00 0. -1.
        -12    1    6    6    0    0  0.51985884093E+02 -0.30829419810E+02  0.33469794729E+03  0.34011130707E+03  0.00000000000E+00 0.  1.
</event>
<event>
12    1  0.8219652E-002  0.2234097E+03  0.7818608E-02  0.1131570E+00
         21   -1    0    0  503  502  0.00000000000E+00  0.00000000000E+00  0.20670579945E+03  0.20670579945E+03  0.00000000000E+00 0. -1.
         21   -1    0    0  501  503 -0.00000000000E+00 -0.00000000000E+00 -0.49599050117E+03  0.49599050117E+03  0.00000000000E+00 0.  1.
          6    2    1    2  501    0 -0.14029131001E+03 -0.21016854511E+02 -0.39710234780E+03  0.45563381231E+03  0.17259355856E+03 0.  0.
         24    2    3    3    0    0 -0.90123259385E+02 -0.80953788008E+02 -0.26821397821E+03  0.30482409407E+03  0.79393151747E+02 0.  0.
         -6    2    1    2    0  502  0.14029131001E+03  0.21016854511E+02  0.10781764608E+03  0.24706248831E+03  0.17114867364E+03 0.  0.
        -24    2    5    5    0    0  0.12602566074E+03  0.68289171650E+02  0.10654110676E+03  0.19744494837E+03  0.84188016253E+02 0.  0.
          5    1    3    3  501    0 -0.50168050623E+02  0.59936933497E+02 -0.12888836960E+03  0.15080971825E+03  0.47000000000E+01 0. -1.
        -13    1    4    4    0    0 -0.73523915722E+02 -0.52976975750E+02 -0.25332852693E+03  0.26904956550E+03  0.00000000000E+00 0.  1.
         14    1    4    4    0    0 -0.16599343664E+02 -0.27976812259E+02 -0.14885451278E+02  0.35774528564E+02  0.00000000000E+00 0. -1.
         -5    1    5    5    0  502  0.14265649272E+02 -0.47272317139E+02  0.12765393216E+01  0.49617539938E+02  0.47000000000E+01 0.  1.
         13    1    6    6    0    0  0.13796320331E+03  0.60253847540E+02  0.89503244995E+02  0.17514337691E+03  0.00000000000E+00 0. -1.
        -14    1    6    6    0    0 -0.11937542574E+02  0.80353241104E+01  0.17037861764E+02  0.22301571464E+02  0.00000000000E+00 0.  1.
</event>
<event>
12    1  0.8219652E-002  0.1894904E+03  0.7818608E-02  0.1159019E+00
         21   -1    0    0  503  502  0.00000000000E+00  0.00000000000E+00  0.34587865353E+03  0.34587865353E+03  0.00000000000E+00 0. -1.
         21   -1    0    0  501  503 -0.00000000000E+00 -0.00000000000E+00 -0.11300310216E+03  0.11300310216E+03  0.00000000000E+00 0.  1.
          6    2    1    2  501    0 -0.54065368706E+02  0.60394476035E+02  0.50295985088E+02  0.19605181227E+03  0.17127775732E+03 0.  0.
         24    2    3    3    0    0 -0.95399094623E+02  0.29279163643E+02  0.75000876463E+01  0.12874491514E+03  0.80998427036E+02 0.  0.
         -6    2    1    2    0  502  0.54065368706E+02 -0.60394476035E+02  0.18257956628E+03  0.26282994341E+03  0.17080317415E+03 0.  0.
        -24    2    5    5    0    0 -0.32234244887E+00  0.52618794058E+01  0.15285149842E+03  0.17241629315E+03  0.79599034513E+02 0.  0.
          5    1    3    3  501    0  0.41333725917E+02  0.31115312392E+02  0.42795897442E+02  0.67306897130E+02  0.47000000000E+01 0. -1.
        -13    1    4    4    0    0 -0.80758329470E+02  0.18307938967E+02 -0.29144863550E+02  0.87786738631E+02  0.00000000000E+00 0.  1.
         14    1    4    4    0    0 -0.14640765153E+02  0.10971224675E+02  0.36644951197E+02  0.40958176514E+02  0.00000000000E+00 0. -1.
         -5    1    5    5    0  502  0.54387711155E+02 -0.65656355441E+02  0.29728067863E+02  0.90413650260E+02  0.47000000000E+01 0.  1.
         11    1    6    6    0    0  0.51457564456E+01 -0.19161121258E+02  0.14475983576E+03  0.14611309807E+03  0.00000000000E+00 0. -1.
        -12    1    6    6    0    0 -0.54680988945E+01  0.24423000664E+02  0.80916626549E+01  0.26303195081E+02  0.00000000000E+00 0.  1.
</event>
<event>
12    1  0.8219652E-002  0.2438347E+03  0.7818608E-02  0.1117987E+00
         21   -1    0    0  501  502  0.00000000000E+00  0.00000000000E+00  0.40203116564E+03  0.40203116564E+03  0.00000000000E+00 0. -1.
         21   -1    0    0  502  503 -0.00000000000E+00 -0.00000000000E+00 -0.38487521101E+03  0.38487521101E+03  0.00000000000E+00 0.  1.
         -6    2    1    2    0  503  0.15818846263E+03 -0.68922602222E+02 -0.30190900150E+03  0.38533717211E+03  0.16601739734E+03 0.  0.
        -24    2    3    3    0    0  0.17282645718E+03 -0.30544841162E+02 -0.21316060546E+03  0.28743165016E+03  0.79859490195E+02 0.  0.
          6    2    1    2  501    0 -0.15818846263E+03  0.68922602222E+02  0.31906495613E+03  0.40156920455E+03  0.17228309553E+03 0.  0.
         24    2    5    5    0    0 -0.18257460523E+03  0.47792364232E+02  0.30219387676E+03  0.36485552552E+03  0.78618183635E+02 0.  0.
          5    1    5    5  501    0  0.24386142602E+02  0.21130237990E+02  0.16871079363E+02  0.36713679023E+02  0.47000000000E+01 0. -1.
        -13    1    6    6    0    0 -0.17027080793E+03  0.57503372187E+02  0.29900617911E+03  0.34886025998E+03  0.00000000000E+00 0.  1.
         14    1    6    6    0    0 -0.12303797297E+02 -0.97110079551E+01  0.31876976504E+01  0.15995265542E+02  0.00000000000E+00 0. -1.
         -5    1    3    3    0  503 -0.14637994550E+02 -0.38377761060E+02 -0.88748396035E+02  0.97905521945E+02  0.47000000000E+01 0.  1.
         13    1    4    4    0    0  0.87997933307E+02 -0.55931694148E+02 -0.11632108405E+03  0.15621326855E+03  0.00000000000E+00 0. -1.
        -14    1    4    4    0    0  0.84828523868E+02  0.25386852987E+02 -0.96839521411E+02  0.13121838161E+03  0.00000000000E+00 0.  1.
</event>
<event>
12    1  0.8219652E-002  0.1779480E+03  0.7818608E-02  0.1170078E+00
         21   -1    0    0  501  502  0.00000000000E+00  0.00000000000E+00  0.68153148021E+03  0.68153148021E+03  0.00000000000E+00 0. -1.
         21   -1    0    0  502  503 -0.00000000000E+00 -0.00000000000E+00 -0.50761754182E+02  0.50761754182E+02  0.00000000000E+00 0. -1.
         -6    2    1    2    0  503  0.25444947343E+02 -0.41793616937E+02  0.20619013919E+03  0.27235983852E+03  0.17108873832E+03 0.  0.
        -24    2    3    3    0    0  0.34495835742E+02 -0.79233261643E+02  0.86644183269E+02  0.14667383630E+03  0.80858687396E+02 0.  0.
          6    2    1    2  501    0 -0.25444947343E+02  0.41793616937E+02  0.42457958684E+03  0.45993339587E+03  0.16993160776E+03 0.  0.
         24    2    5    5    0    0  0.23994797970E+02 -0.25701214504E+02  0.16090432643E+03  0.18326288129E+03  0.80366526847E+02 0.  0.
          5    1    5    5  501    0 -0.49439745313E+02  0.67494831441E+02  0.26367526041E+03  0.27667051459E+03  0.47000000000E+01 0. -1.
        -13    1    6    6    0    0 -0.12343432158E+01 -0.44056199690E+01 -0.90450285070E+01  0.10136351966E+02  0.00000000000E+00 0.  1.
         14    1    6    6    0    0  0.25229141186E+02 -0.21295594535E+02  0.16994935493E+03  0.17312652932E+03  0.00000000000E+00 0. -1.
         -5    1    3    3    0  503 -0.90508883990E+01  0.37439644706E+02  0.11954595592E+03  0.12568600222E+03  0.47000000000E+01 0.  1.
         13    1    4    4    0    0  0.15122569812E+02 -0.10075411466E+02 -0.14064897323E+02  0.22978846156E+02  0.00000000000E+00 0. -1.
        -14    1    4    4    0    0  0.19373265930E+02 -0.69157850177E+02  0.10070908059E+03  0.12369499015E+03  0.00000000000E+00 0.  1.
</event>
<event>
12    1  0.8219652E-002  0.2562833E+03  0.7818608E-02  0.1109414E+00
         21   -1    0    0  501  502  0.00000000000E+00  0.00000000000E+00  0.12045575703E+03  0.12045575703E+03  0.00000000000E+00 0.  1.
         21   -1    0    0  502  503 -0.00000000000E+00 -0.00000000000E+00 -0.69245984501E+03  0.69245984501E+03  0.00000000000E+00 0. -1.
         -6    2    1    2    0  503 -0.92419584997E+01  0.19067122428E+03 -0.47359140148E+03  0.53848858136E+03  0.17099768165E+03 0.  0.
        -24    2    3    3    0    0 -0.44826277082E+02  0.11423938266E+03 -0.17209121391E+03  0.22538712296E+03  0.78255591662E+02 0.  0.
          6    2    1    2  501    0  0.92419584997E+01 -0.19067122428E+03 -0.98412686497E+02  0.27442702068E+03  0.17083384691E+03 0.  0.
         24    2    5    5    0    0 -0.47457586177E+01 -0.50788896956E+02  0.13144534464E+02  0.94900350584E+02  0.78938352376E+02 0.  0.
          5    1    5    5  501    0  0.13987717117E+02 -0.13988232732E+03 -0.11155722096E+03  0.17952667010E+03  0.47000000000E+01 0. -1.
        -11    1    6    6    0    0 -0.23460609070E+02 -0.35305502427E+02  0.40284518119E+02  0.58478381302E+02  0.00000000000E+00 0.  1.
         12    1    6    6    0    0  0.18714850453E+02 -0.15483394529E+02 -0.27139983655E+02  0.36421969283E+02  0.00000000000E+00 0. -1.
         -5    1    3    3    0  503  0.35584318582E+02  0.76431841623E+02 -0.30150018757E+03  0.31310145839E+03  0.47000000000E+01 0.  1.
         11    1    4    4    0    0 -0.12698646633E+02  0.66761674653E+02 -0.14866012052E+03  0.16345705327E+03  0.00000000000E+00 0. -1.
        -12    1    4    4    0    0 -0.32127630449E+02  0.47477708002E+02 -0.23431093389E+02  0.61930069698E+02  0.00000000000E+00 0.  1.
</event>
<event>
12    1  0.8219652E-002  0.1794999E+03  0.7818608E-02  0.1168357E+00
         21   -1    0    0  501  502  0.00000000000E+00  0.00000000000E+00  0.13143711502E+04  0.13143711502E+04  0.00000000000E+00 0. -1.
         21   -1    0    0  502  503 -0.00000000000E+00 -0.00000000000E+00 -0.34563267423E+02  0.34563267423E+02  0.00000000000E+00 0. -1.
         -6    2    1    2    0  503  0.33160332617E+01  0.47860646534E+02  0.27587543702E+03  0.32913138770E+03  0.17296987037E+03 0.  0.
        -24    2    3    3    0    0 -0.59397614633E+02  0.57294474761E+02  0.18617129360E+03  0.21917265866E+03  0.81031909008E+02 0.  0.
          6    2    1    2  501    0 -0.33160332617E+01 -0.47860646534E+02  0.10039324457E+04  0.10198030299E+04  0.17267375781E+03 0.  0.
         24    2    5    5    0    0 -0.77596769931E+01 -0.27880253477E+02  0.22387649684E+03  0.23946442681E+03  0.79906224707E+02 0.  0.
          5    1    5    5  501    0  0.44436437314E+01 -0.19980393057E+02  0.78005594891E+03  0.78033860311E+03  0.47000000000E+01 0. -1.
        -13    1    6    6    0    0  0.31009666850E+02  0.58018412729E+01  0.60878924061E+02  0.68567515597E+02  0.00000000000E+00 0.  1.
         14    1    6    6    0    0 -0.38769343843E+02 -0.33682094750E+02  0.16299757278E+03  0.17089691121E+03  0.00000000000E+00 0. -1.
         -5    1    3    3    0  503  0.62713647894E+02 -0.94338282269E+01  0.89704143417E+02  0.10995872905E+03  0.47000000000E+01 0.  1.
         13    1    4    4    0    0 -0.15319193769E+02  0.63412980527E+02  0.74869194606E+02  0.99303978258E+02  0.00000000000E+00 0. -1.
        -14    1    4    4    0    0 -0.44078420864E+02 -0.61185057655E+01  0.11130209900E+03  0.11986868040E+03  0.00000000000E+00 0.  1.
</event>
<event>
12    1  0.8219652E-002  0.2139761E+03  0.7818608E-02  0.1138867E+00
         21   -1    0    0  501  502  0.00000000000E+00  0.00000000000E+00  0.26857119763E+03  0.26857119763E+03  0.00000000000E+00 0.  1.
         21   -1    0    0  502  503 -0.00000000000E+00 -0.00000000000E+00 -0.23099885078E+03  0.23099885078E+03  0.00000000000E+00 0. -1.
         -6    2    1    2    0  503  0.74527210533E+02 -0.10432216728E+03 -0.11089991105E+03  0.23912852196E+03  0.16866013178E+03 0.  0.
        -24    2    3    3    0    0 -0.12224004990E+01 -0.68048588441E+02 -0.11422656376E+03  0.15494460003E+03  0.79548831293E+02 0.  0.
          6    2    1    2  501    0 -0.74527210533E+02  0.10432216728E+03  0.14847225790E+03  0.26044152644E+03  0.17131362360E+03 0.  0.
         24    2    5    5    0    0 -0.11849652500E+03  0.88430653805E+02  0.11287982931E+03  0.20149450117E+03  0.77438822077E+02 0.  0.
          5    1    5    5  501    0  0.43969314472E+02  0.15891513474E+02  0.35592428587E+02  0.58947025271E+02  0.47000000000E+01 0. -1.
        -13    1    6    6    0    0 -0.58844485609E+02  0.20895243945E+02  0.75785622594E+01  0.62902458713E+02  0.00000000000E+00 0.  1.
         14    1    6    6    0    0 -0.59652039395E+02  0.67535409859E+02  0.10530126705E+03  0.13859204246E+03  0.00000000000E+00 0. -1.
         -5    1    3    3    0  503  0.75749611032E+02 -0.36273578838E+02  0.33266527101E+01  0.84183921929E+02  0.47000000000E+01 0.  1.
         11    1    4    4    0    0  0.14645158282E+02 -0.65399658553E+02 -0.38007908406E+02  0.77046720250E+02  0.00000000000E+00 0. -1.
        -12    1    4    4    0    0 -0.15867558781E+02 -0.26489298879E+01 -0.76218655352E+02  0.77897879784E+02  0.00000000000E+00 0.  1.
</event>
<event>
12    1  0.8219652E-002  0.1955488E+03  0.7818608E-02  0.1153666E+00
         21   -1    0    0  501  502  0.00000000000E+00  0.00000000000E+00  0.30233242754E+03  0.30233242754E+03  0.00000000000E+00 0.  1.
         21   -1    0    0  502  503 -0.00000000000E+00 -0.00000000000E+00 -0.20626579020E+03  0.20626579020E+03  0.00000000000E+00 0.  1.
         -6    2    1    2    0  503 -0.90248071987E+02 -0.11036518262E+02 -0.11050778700E+03  0.22414731443E+03  0.17252109536E+03 0.  0.
        -24    2    3    3    0    0 -0.66625662440E+01  0.48336571058E+02 -0.48990680326E+02  0.10448886333E+03  0.78339146733E+02 0.  0.
          6    2    1    2  501    0  0.90248071987E+02  0.11036518262E+02  0.20657442434E+03  0.28445090331E+03  0.17312655593E+03 0.  0.
         24    2    5    5    0    0  0.81701867318E+01 -0.30464129192E+01  0.17634644796E+03  0.19573264840E+03  0.84481757541E+02 0.  0.
          5    1    5    5  501    0  0.82077885255E+02  0.14082931182E+02  0.30227976381E+02  0.88718254913E+02  0.47000000000E+01 0. -1.
        -13    1    6    6    0    0 -0.32234465624E+02  0.13185355035E+02  0.42305860315E+02  0.54796899351E+02  0.00000000000E+00 0.  1.
         14    1    6    6    0    0  0.40404652355E+02 -0.16231767954E+02  0.13404058764E+03  0.14093574905E+03  0.00000000000E+00 0. -1.
         -5    1    3    3    0  503 -0.83585505743E+02 -0.59373089320E+02 -0.61517106670E+02  0.11965845110E+03  0.47000000000E+01 0.  1.
         11    1    4    4    0    0  0.20985859547E+02  0.81828346684E+00  0.10504274536E+02  0.23482241637E+02  0.00000000000E+00 0. -1.
        -12    1    4    4    0    0 -0.27648425791E+02  0.47518287591E+02 -0.59494954862E+02  0.81006621694E+02  0.00000000000E+00 0.  1.
</event>
<event>
12    1  0.8219652E-002  0.1841015E+03  0.7818608E-02  0.1164193E+00
         21   -1    0    0  503  502  0.00000000000E+00  0.00000000000E+00  0.23818624164E+03  0.23818624164E+03  0.00000000000E+00 0. -1.
         21   -1    0    0  501  503 -0.00000000000E+00 -0.00000000000E+00 -0.14455315209E+03  0.14455315209E+03  0.00000000000E+00 0. -1.
          6    2    1    2  501    0 -0.52143936736E+02  0.29604039578E+02  0.18002433282E+02  0.18370832148E+03  0.17271152388E+03 0.  0.
         24    2    3    3    0    0 -0.10055461799E+03  0.21908949316E+02 -0.75057493790E+01  0.12825053704E+03  0.76161871813E+02 0.  0.
         -6    2    1    2    0  502  0.52143936736E+02 -0.29604039578E+02  0.75630656269E+02  0.19903107224E+03  0.17406315592E+03 0.  0.
        -24    2    5    5    0    0 -0.15099128445E+02 -0.65697285696E+02  0.59729034354E+02  0.12093303251E+03  0.80703926661E+02 0.  0.
          5    1    3    3  501    0  0.48410681250E+02  0.76950902624E+01  0.25508182661E+02  0.55457784448E+02  0.47000000000E+01 0. -1.
        -13    1    4    4    0    0  0.59233163404E+01  0.20036019059E+02 -0.60296367714E+01  0.21745902046E+02  0.00000000000E+00 0.  1.
         14    1    4    4    0    0 -0.10647793433E+03  0.18729302567E+01 -0.14761126077E+01  0.10650463499E+03  0.00000000000E+00 0. -1.
         -5    1    5    5    0  502  0.67243065180E+02  0.36093246118E+02  0.15901621915E+02  0.78098039731E+02  0.47000000000E+01 0.  1.
         13    1    6    6    0    0 -0.80633172314E+01 -0.73588594293E+01 -0.19466569064E+02  0.22318539558E+02  0.00000000000E+00 0. -1.
        -14    1    6    6    0    0 -0.70358112135E+01 -0.58338426267E+02  0.79195603417E+02  0.98614492948E+02  0.00000000000E+00 0.  1.
</event>
<event>
12    1  0.8219652E-002  0.1907661E+03  0.7818608E-02  0.1157962E+00
         21   -1    0    0  501  502  0.00000000000E+00  0.00000000000E+00  0.23937238230E+03  0.23937238230E+03  0.00000000000E+00 0.  1.
         21   -1    0    0  502  503 -0.00000000000E+00 -0.00000000000E+00 -0.15406470606E+03  0.15406470606E+03  0.00000000000E+00 0. -1.
         -6    2    1    2    0  503 -0.79207923339E+02 -0.21879599042E+02  0.16675981878E+02  0.19149363262E+03  0.17216013182E+03 0.  0.
        -24    2    3    3    0    0 -0.10806733383E+03 -0.46560544220E+02 -0.13920716589E+02  0.14250115783E+03  0.79160348109E+02 0.  0.
          6    2    1    2  501    0  0.79207923339E+02  0.21879599042E+02  0.68631694359E+02  0.20194345574E+03  0.17122569280E+03 0.  0.
         24    2    5    5    0    0  0.10027675054E+03  0.27841029413E+02  0.98957770046E+02  0.16424471573E+03  0.79706566701E+02 0.  0.
          5    1    5    5  501    0 -0.21068827205E+02 -0.59614303709E+01 -0.30326075687E+02  0.37698740011E+02  0.47000000000E+01 0. -1.
        -11    1    6    6    0    0  0.57427587553E+02  0.24359590654E+02  0.10367622854E+03  0.12099618934E+03  0.00000000000E+00 0.  1.
         12    1    6    6    0    0  0.42849162992E+02  0.34814387592E+01 -0.47184584971E+01  0.43248526397E+02  0.00000000000E+00 0. -1.
         -5    1    3    3    0  503  0.28859410496E+02  0.24680945178E+02  0.30596698466E+02  0.48992474790E+02  0.47000000000E+01 0.  1.
         13    1    4    4    0    0 -0.38702222368E+01 -0.36304509765E+02  0.21541081005E+01  0.36573709562E+02  0.00000000000E+00 0. -1.
        -14    1    4    4    0    0 -0.10419711160E+03 -0.10256034456E+02 -0.16074824689E+02  0.10592744827E+03  0.00000000000E+00 0.  1.
</event>
<event>
12    1  0.8219652E-002  0.2151741E+03  0.7818608E-02  0.1137673E+00
         21   -1    0    0  503  502  0.00000000000E+00  0.00000000000E+00  0.67463920267E+03  0.67463920267E+03  0.00000000000E+00 0. -1.
         21   -1    0    0  501  503 -0.00000000000E+00 -0.00000000000E+00 -0.13141107299E+03  0.13141107299E+03  0.00000000000E+00 0.  1.
          6    2    1    2  501    0 -0.98949406873E+02 -0.82313693553E+02 -0.72297435578E+01  0.21529553573E+03  0.17243366623E+03 0.  0.
         24    2    3    3    0    0 -0.91994141082E+02 -0.12517157421E+03  0.69518011978E+01  0.16937843796E+03  0.67155660391E+02 0.  0.
         -6    2    1    2    0  502  0.98949406873E+02  0.82313693553E+02  0.55045787324E+03  0.59075473992E+03  0.17152481822E+03 0.  0.
        -24    2    5    5    0    0  0.14146129446E+02  0.51077784005E+02  0.13608426221E+03  0.16661460103E+03  0.80202530239E+02 0.  0.
          5    1    3    3  501    0 -0.69552657908E+01  0.42857880655E+02 -0.14181544756E+02  0.45917097775E+02  0.47000000000E+01 0. -1.
        -11    1    4    4    0    0 -0.88924766108E+02 -0.10447946694E+03 -0.16227796752E+02  0.13815539956E+03  0.00000000000E+00 0.  1.
         12    1    4    4    0    0 -0.30693749741E+01 -0.20692107267E+02  0.23179597950E+02  0.31223038402E+02  0.00000000000E+00 0. -1.
         -5    1    5    5    0  502  0.84803277427E+02  0.31235909549E+02  0.41437361103E+03  0.42414013890E+03  0.47000000000E+01 0.  1.
         13    1    6    6    0    0  0.31849878084E+02  0.37700247477E+02  0.13572771123E+03  0.14442207237E+03  0.00000000000E+00 0. -1.
        -14    1    6    6    0    0 -0.17703748638E+02  0.13377536528E+02  0.35655098364E+00  0.22192528653E+02  0.00000000000E+00 0.  1.
</event>
<event>
12    1  0.8219652E-002  0.2211375E+03  0.7818608E-02  0.1133582E+00
         21   -1    0    0  501  502  0.00000000000E+00  0.00000000000E+00  0.11859329871E+03  0.11859329871E+03  0.00000000000E+00 0.  1.
         21   -1    0    0  502  503 -0.00000000000E+00 -0.00000000000E+00 -0.44717070221E+03  0.44717070221E+03  0.00000000000E+00 0.  1.
         -6    2    1    2    0  503 -0.36765904894E+02  0.12877963289E+03 -0.24815834945E+03  0.33045779618E+03  0.17229005498E+03 0.  0.
        -24    2    3    3    0    0  0.31465772023E+02  0.94321565152E+02 -0.92206064843E+02  0.15671624893E+03  0.78558079295E+02 0.  0.
          6    2    1    2  501    0  0.36765904894E+02 -0.12877963289E+03 -0.80419054055E+02  0.23530620474E+03  0.17597119117E+03 0.  0.
         24    2    5    5    0    0  0.48874184667E+02 -0.16058640096E+03 -0.76174888337E+02  0.20068852317E+03  0.79351065646E+02 0.  0.
          5    1    5    5  501    0 -0.12108279773E+02  0.31806768073E+02 -0.42441657172E+01  0.34617681565E+02  0.47000000000E+01 0. -1.
        -13    1    6    6    0    0  0.83359144237E+01 -0.10052240619E+03 -0.79812617815E+01  0.10118271668E+03  0.00000000000E+00 0.  1.
         14    1    6    6    0    0  0.40538270243E+02 -0.60063994768E+02 -0.68193626556E+02  0.99505806487E+02  0.00000000000E+00 0. -1.
         -5    1    3    3    0  503 -0.68231676917E+02  0.34458067735E+02 -0.15595228460E+03  0.17374154725E+03  0.47000000000E+01 0.  1.
         11    1    4    4    0    0 -0.16226389035E+02  0.72014620673E+02 -0.58630938317E+02  0.94270823799E+02  0.00000000000E+00 0. -1.
        -12    1    4    4    0    0  0.47692161058E+02  0.22306944479E+02 -0.33575126526E+02  0.62445425130E+02  0.00000000000E+00 0.  1.
</event>
<event>
12    1  0.8219652E-002  0.1735870E+03  0.7818608E-02  0.1174223E+00
         21   -1    0    0  503  502  0.00000000000E+00  0.00000000000E+00  0.12176376341E+02  0.12176376341E+02  0.00000000000E+00 0.  1.
         21   -1    0    0  501  503 -0.00000000000E+00 -0.00000000000E+00 -0.31042675871E+04  0.31042675871E+04  0.00000000000E+00 0.  1.
          6    2    1    2  501    0 -0.10354269700E+02 -0.11979741467E+02 -0.22489188338E+04  0.22555885156E+04  0.17260621479E+03 0.  0.
         24    2    3    3    0    0  0.38506932719E+02  0.10285350156E+02 -0.67196767631E+03  0.67771646925E+03  0.78552418113E+02 0.  0.
         -6    2    1    2    0  502  0.10354269700E+02  0.11979741467E+02 -0.84317237694E+03  0.86085544787E+03  0.17286329795E+03 0.  0.
        -24    2    5    5    0    0 -0.10281008484E+02  0.45248935490E+02 -0.78416054372E+03  0.78988263309E+03  0.82786776948E+02 0.  0.
          5    1    3    3  501    0 -0.48861202418E+02 -0.22265091623E+02 -0.15769511575E+04  0.15778720464E+04  0.47000000000E+01 0. -1.
        -11    1    4    4    0    0 -0.17453927740E+01 -0.22139452477E+02 -0.41544887239E+03  0.41604202590E+03  0.00000000000E+00 0.  1.
         12    1    4    4    0    0  0.40252325493E+02  0.32424802633E+02 -0.25651880392E+03  0.26167444334E+03  0.00000000000E+00 0. -1.
         -5    1    5    5    0  502  0.20635278184E+02 -0.33269194023E+02 -0.59011833224E+02  0.70972814776E+02  0.47000000000E+01 0.  1.
         13    1    6    6    0    0 -0.43484373479E+02  0.43680552551E+02 -0.51863446768E+03  0.52228401514E+03  0.00000000000E+00 0. -1.
        -14    1    6    6    0    0  0.33203364995E+02  0.15683829384E+01 -0.26552607604E+03  0.26759861795E+03  0.00000000000E+00 0.  1.
</event>
<event>
12    1  0.8219652E-002  0.2517487E+03  0.7818608E-02  0.1112492E+00
         21   -1    0    0  503  502  0.00000000000E+00  0.00000000000E+00  0.62877812769E+03  0.62877812769E+03  0.00000000000E+00 0.  1.
         21   -1    0    0  501  503 -0.00000000000E+00 -0.00000000000E+00 -0.15225607278E+04  0.15225607278E+04  0.00000000000E+00 0. -1.
          6    2    1    2  501    0  0.75041088178E+02  0.16561204395E+03 -0.14865057205E+04  0.15073682665E+04  0.17146812979E+03 0.  0.
         24    2    3    3    0    0  0.39540465917E+02  0.15354967432E+03 -0.78309174647E+03  0.80294005589E+03  0.79618459091E+02 0.  0.
         -6    2    1    2    0  502 -0.75041088178E+02 -0.16561204395E+03  0.59272312045E+03  0.64397058900E+03  0.17412325513E+03 0.  0.
        -24    2    5    5    0    0 -0.44472062118E+02 -0.18315668244E+03  0.41535855361E+03  0.46307681005E+03  0.79957922201E+02 0.  0.
          5    1    3    3  501    0  0.35500622260E+02  0.12062369622E+02 -0.70341397406E+03  0.70442821057E+03  0.47000000000E+01 0. -1.
        -11    1    4    4    0    0  0.35714637458E+02  0.96176851322E+02 -0.64872037782E+03  0.65678280326E+03  0.00000000000E+00 0.  1.
         12    1    4    4    0    0  0.38258284596E+01  0.57372823002E+02 -0.13437136865E+03  0.14615725263E+03  0.00000000000E+00 0. -1.
         -5    1    5    5    0  502 -0.30569026060E+02  0.17544638491E+02  0.17736456684E+03  0.18089377895E+03  0.47000000000E+01 0.  1.
         13    1    6    6    0    0 -0.52597401280E+02 -0.89961658291E+02  0.15826567750E+03  0.18949303749E+03  0.00000000000E+00 0. -1.
        -14    1    6    6    0    0  0.81253391619E+01 -0.93195024145E+02  0.25709287611E+03  0.27358377256E+03  0.00000000000E+00 0.  1.
</event>
<event>
12    1  0.8219652E-002  0.1811154E+03  0.7818608E-02  0.1166937E+00
         21   -1    0    0  501  502  0.00000000000E+00  0.00000000000E+00  0.45665704313E+03  0.45665704313E+03  0.00000000000E+00 0.  1.
         21   -1    0    0  502  503 -0.00000000000E+00 -0.00000000000E+00 -0.99390285480E+02  0.99390285480E+02  0.00000000000E+00 0.  1.
         -6    2    1    2    0  503 -0.15693654905E+02 -0.53738425651E+02  0.32624808719E+03  0.37314955936E+03  0.17224595803E+03 0.  0.
        -24    2    3    3    0    0 -0.76574637095E+02 -0.21866408630E+02  0.20342447534E+03  0.23233035225E+03  0.79082618440E+02 0.  0.
          6    2    1    2  501    0  0.15693654905E+02  0.53738425651E+02  0.31018670455E+02  0.18289776925E+03  0.17133396302E+03 0.  0.
         24    2    5    5    0    0  0.55649041741E+02  0.76101487976E+02 -0.36965314878E+01  0.12524558161E+03  0.82368313372E+02 0.  0.
          5    1    5    5  501    0 -0.39955386836E+02 -0.22363062325E+02  0.34715201943E+02  0.57652187640E+02  0.47000000000E+01 0. -1.
        -13    1    6    6    0    0  0.65415692247E+02  0.22644282223E+02  0.79202229474E+01  0.69675722035E+02  0.00000000000E+00 0.  1.
         14    1    6    6    0    0 -0.97666505056E+01  0.53457205754E+02 -0.11616754435E+02  0.55569859571E+02  0.00000000000E+00 0. -1.
         -5    1    3    3    0  503  0.60880982190E+02 -0.31872017021E+02  0.12282361186E+03  0.14081920711E+03  0.47000000000E+01 0.  1.
         13    1    4    4    0    0  0.61898915731E+01 -0.23369975497E+02  0.21077288624E+02  0.32073705869E+02  0.00000000000E+00 0. -1.
        -14    1    4    4    0    0 -0.82764528668E+02  0.15035668669E+01  0.18234718671E+03  0.20025664638E+03  0.00000000000E+00 0.  1.
</event>
<event>
12    1  0.8219652E-002  0.1885259E+03  0.7818608E-02  0.1160014E+00
         21   -1    0    0  503  502  0.00000000000E+00  0.00000000000E+00  0.10318179378E+03  0.10318179378E+03  0.00000000000E+00 0. -1.
         21   -1    0    0  501  503 -0.00000000000E+00 -0.00000000000E+00 -0.50106856892E+03  0.50106856892E+03  0.00000000000E+00 0. -1.
          6    2    1    2  501    0 -0.23060029025E+02  0.72683840523E+02 -0.36843718634E+03  0.41343815022E+03  0.17137805625E+03 0.  0.
         24    2    3    3    0    0 -0.73761865222E+02  0.71639853403E+02 -0.30934625067E+03  0.33542792793E+03  0.79017154311E+02 0.  0.
         -6    2    1    2    0  502  0.23060029025E+02 -0.72683840523E+02 -0.29449588797E+02  0.19081221249E+03  0.17241611451E+03 0.  0.
        -24    2    5    5    0    0  0.48646445611E+02 -0.92434144446E+02  0.18400335509E+02  0.13287738294E+03  0.80045479693E+02 0.  0.
          5    1    3    3  501    0  0.50701836197E+02  0.10439871198E+01 -0.59090935673E+02  0.78010222288E+02  0.47000000000E+01 0. -1.
        -11    1    4    4    0    0  0.70318230677E+01  0.38270388160E+02 -0.13347021759E+03  0.13902650154E+03  0.00000000000E+00 0.  1.
         12    1    4    4    0    0 -0.80793688290E+02  0.33369465244E+02 -0.17587603308E+03  0.19640142639E+03  0.00000000000E+00 0. -1.
         -5    1    5    5    0  502 -0.25586416586E+02  0.19750303923E+02 -0.47849924306E+02  0.57934829549E+02  0.47000000000E+01 0.  1.
         13    1    6    6    0    0  0.25994859987E+01 -0.29300001317E+02  0.41975496670E+02  0.51256118906E+02  0.00000000000E+00 0. -1.
        -14    1    6    6    0    0  0.46046959612E+02 -0.63134143130E+02 -0.23575161161E+02  0.81621264031E+02  0.00000000000E+00 0.  1.
</event>
<event>
12    1  0.8219652E-002  0.1808174E+03  0.7818608E-02  0.1167547E+00
         21   -1    0    0  501  502  0.00000000000E+00  0.00000000000E+00  0.82728676587E+03  0.82728676587E+03  0.00000000000E+00 0.  1.
         21   -1    0    0  502  503 -0.00000000000E+00 -0.00000000000E+00 -0.99192983178E+02  0.99192983178E+02  0.00000000000E+00 0.  1.
         -6    2    1    2    0  503 -0.38095272839E-01 -0.53805455160E+02  0.24376488268E+01  0.17863499681E+03  0.17032172938E+03 0.  0.
        -24    2    3    3    0    0  0.22118117668E+00 -0.71148422374E+02 -0.49332574713E+02  0.12383452436E+03  0.88538915556E+02 0.  0.
          6    2    1    2  501    0  0.38095272839E-01  0.53805455160E+02  0.72565613387E+03  0.74784475223E+03  0.17262653437E+03 0.  0.
         24    2    5    5    0    0  0.51162873066E+02  0.10739032687E+01  0.53990555920E+03  0.54804553938E+03  0.78975360254E+02 0.  0.
          5    1    5    5  501    0 -0.51124777793E+02  0.52731551891E+02  0.18575057466E+03  0.19979921285E+03  0.47000000000E+01 0. -1.
        -13    1    6    6    0    0  0.31924724871E+02  0.37291206937E+02  0.37095398590E+03  0.37418803005E+03  0.00000000000E+00 0.  1.
         14    1    6    6    0    0  0.19238148194E+02 -0.36217303668E+02  0.16895157330E+03  0.17385750933E+03  0.00000000000E+00 0. -1.
         -5    1    3    3    0  503 -0.25927644952E+00  0.17342967215E+02  0.51770223540E+02  0.54800472456E+02  0.47000000000E+01 0.  1.
         13    1    4    4    0    0  0.27614742958E+02 -0.52778318861E+02  0.55283271906E+01  0.59822131122E+02  0.00000000000E+00 0. -1.
        -14    1    4    4    0    0 -0.27393561782E+02 -0.18370103513E+02 -0.54860901903E+02  0.64012393236E+02  0.00000000000E+00 0.  1.
</event>
<event>
12    1  0.8219652E-002  0.1796498E+03  0.7818608E-02  0.1168309E+00
         21   -1    0    0  503  502  0.00000000000E+00  0.00000000000E+00  0.37148304415E+03  0.37148304415E+03  0.00000000000E+00 0.  1.
         21   -1    0    0  501  503 -0.00000000000E+00 -0.00000000000E+00 -0.98919660950E+02  0.98919660950E+02  0.00000000000E+00 0.  1.
          6    2    1    2  501    0 -0.47284088354E+02 -0.23273562860E+02  0.53328855608E+02  0.18739806319E+03  0.17174581074E+03 0.  0.
         24    2    3    3    0    0 -0.84737546739E+02 -0.56657037915E+02  0.43302486591E+02  0.13601872855E+03  0.78965292371E+02 0.  0.
         -6    2    1    2    0  502  0.47284088354E+02  0.23273562860E+02  0.21923452759E+03  0.28300464192E+03  0.17102749930E+03 0.  0.
        -24    2    5    5    0    0  0.24529055221E+02 -0.54102865316E+02  0.97235437003E+02  0.13668044270E+03  0.75485221222E+02 0.  0.
          5    1    3    3  501    0  0.37453458386E+02  0.33383475055E+02  0.10026369017E+02  0.51379334634E+02  0.47000000000E+01 0. -1.
        -11    1    4    4    0    0 -0.51876466931E+02  0.87331739262E+01  0.33035780793E+02  0.62119231810E+02  0.00000000000E+00 0.  1.
         12    1    4    4    0    0 -0.32861079808E+02 -0.65390211841E+02  0.10266705798E+02  0.73899496742E+02  0.00000000000E+00 0. -1.
         -5    1    5    5    0  502  0.22755033133E+02  0.77376428176E+02  0.12199909059E+03  0.14632419921E+03  0.47000000000E+01 0.  1.
         11    1    6    6    0    0 -0.42861416601E+01 -0.15560569054E+02  0.85683414757E+02  0.87190308430E+02  0.00000000000E+00 0. -1.
        -12    1    6    6    0    0  0.28815196881E+02 -0.38542296262E+02  0.11552022246E+02  0.49490134273E+02  0.00000000000E+00 0.  1.
</event>
<event>
12    1  0.8219652E-002  0.1778938E+03  0.7818608E-02  0.1170204E+00
         21   -1    0    0  501  502  0.00000000000E+00  0.00000000000E+00  0.11625273544E+03  0.11625273544E+03  0.00000000000E+00 0.  1.
         21   -1    0    0  502  503 -0.00000000000E+00 -0.00000000000E+00 -0.33070534229E+03  0.33070534229E+03  0.00000000000E+00 0.  1.
         -6    2    1    2    0  503  0.32702853820E+02 -0.29742449453E+02 -0.11188323169E+02  0.17684225712E+03  0.17086227021E+03 0.  0.
        -24    2    3    3    0    0  0.87035170381E+02 -0.14175577993E+02 -0.85774618171E+01  0.12006871833E+03  0.81036142404E+02 0.  0.
          6    2    1    2  501    0 -0.32702853820E+02  0.29742449453E+02 -0.20326428368E+03  0.27011582061E+03  0.17231395061E+03 0.  0.
         24    2    5    5    0    0  0.14691020870E+02  0.60006634993E+02 -0.63641133137E+02  0.11952095200E+03  0.80115178352E+02 0.  0.
          5    1    5    5  501    0 -0.47393874690E+02 -0.30264185540E+02 -0.13962315054E+03  0.15059486861E+03  0.47000000000E+01 0. -1.
        -11    1    6    6    0    0 -0.18426522757E+02  0.24545984796E+01  0.93818453721E+01  0.20822603517E+02  0.00000000000E+00 0.  1.
         12    1    6    6    0    0  0.33117543627E+02  0.57552036513E+02 -0.73022978509E+02  0.98698348482E+02  0.00000000000E+00 0. -1.
         -5    1    3    3    0  503 -0.54332316561E+02 -0.15566871459E+02 -0.26108613521E+01  0.56773538791E+02  0.47000000000E+01 0.  1.
         11    1    4    4    0    0  0.30743257421E+02  0.10870827810E+02  0.32483747091E+02  0.46027346211E+02  0.00000000000E+00 0. -1.
        -12    1    4    4    0    0  0.56291912960E+02 -0.25046405803E+02 -0.41061208908E+02  0.74041372120E+02  0.00000000000E+00 0.  1.
</event>
<event>
12    1  0.8219652E-002  0.2384567E+03  0.7818608E-02  0.1120938E+00
         21   -1    0    0  501  502  0.00000000000E+00  0.00000000000E+00  0.40060315693E+03  0.40060315693E+03  0.00000000000E+00 0.  1.
         21   -1    0    0  502  503 -0.00000000000E+00 -0.00000000000E+00 -0.14373385365E+03  0.14373385365E+03  0.00000000000E+00 0.  1.
         -6    2    1    2    0  503  0.14531020213E+03  0.77246386767E+02  0.94638983760E+02  0.25592712787E+03  0.17163944308E+03 0.  0.
        -24    2    3    3    0    0  0.91618655816E+02 -0.21995563140E+02  0.65312583937E+02  0.13924861874E+03  0.79035822944E+02 0.  0.
          6    2    1    2  501    0 -0.14531020213E+03 -0.77246386767E+02  0.16223031952E+03  0.28840988272E+03  0.17256744990E+03 0.  0.
         24    2    5    5    0    0 -0.12938579755E+03 -0.64859887453E+02  0.46992495488E+02  0.17132504973E+03  0.78717777067E+02 0.  0.
          5    1    5    5  501    0 -0.15924404578E+02 -0.12386499315E+02  0.11523782403E+03  0.11708483298E+03  0.47000000000E+01 0. -1.
        -13    1    6    6    0    0 -0.53517396794E+02 -0.70680141352E+02  0.24473449522E+02  0.91971429654E+02  0.00000000000E+00 0.  1.
         14    1    6    6    0    0 -0.75868400755E+02  0.58202538989E+01  0.22519045966E+02  0.79353620080E+02  0.00000000000E+00 0. -1.
         -5    1    3    3    0  503  0.53691546311E+02  0.99241949907E+02  0.29326399824E+02  0.11667850913E+03  0.47000000000E+01 0.  1.
         11    1    4    4    0    0  0.42704351108E+02  0.74391468926E+01 -0.10252404459E+02  0.44543398021E+02  0.00000000000E+00 0. -1.
        -12    1    4    4    0    0  0.48914304708E+02 -0.29434710032E+02  0.75564988396E+02  0.94705220717E+02  0.00000000000E+00 0.  1.
</event>
<event>
12    1  0.8219652E-002  0.1738120E+03  0.7818608E-02  0.1174715E+00
         21   -1    0    0  501  502  0.00000000000E+00  0.00000000000E+00  0.13607014406E+03  0.13607014406E+03  0.00000000000E+00 0.  1.
         21   -1    0    0  502  503 -0.00000000000E+00 -0.00000000000E+00 -0.13747585719E+04  0.13747585719E+04  0.00000000000E+00 0.  1.
         -6    2    1    2    0  503  0.47610992633E+01 -0.17960339313E+02 -0.13131176990E+04  0.13245711358E+04  0.17281597337E+03 0.  0.
        -24    2    3    3    0    0  0.18698885267E+02  0.51500549579E+02 -0.63165316749E+03  0.63941781384E+03  0.82870149829E+02 0.  0.
          6    2    1    2  501    0 -0.47610992633E+01  0.17960339313E+02  0.74429271143E+02  0.18625758013E+03  0.16972603777E+03 0.  0.
         24    2    5    5    0    0  0.55632551635E+02 -0.13793573831E+02  0.20494260890E+02  0.99155459602E+02  0.78272261747E+02 0.  0.
          5    1    5    5  501    0 -0.60393650898E+02  0.31753913143E+02  0.53935010253E+02  0.87102120523E+02  0.47000000000E+01 0. -1.
        -13    1    6    6    0    0  0.59360929594E+02  0.12332617574E+02  0.33998137624E+02  0.69510335781E+02  0.00000000000E+00 0.  1.
         14    1    6    6    0    0 -0.37283779591E+01 -0.26126191404E+02 -0.13503876734E+02  0.29645123821E+02  0.00000000000E+00 0. -1.
         -5    1    3    3    0  503 -0.13937786004E+02 -0.69460888892E+02 -0.68146453146E+03  0.68515332197E+03  0.47000000000E+01 0.  1.
         11    1    4    4    0    0 -0.26083797023E+02  0.29406424707E+02 -0.42512430934E+03  0.42693767774E+03  0.00000000000E+00 0. -1.
        -12    1    4    4    0    0  0.44782682289E+02  0.22094124872E+02 -0.20652885815E+03  0.21248013610E+03  0.00000000000E+00 0.  1.
</event>
<event>
12    1  0.8219652E-002  0.2116160E+03  0.7818608E-02  0.1140640E+00
         21   -1    0    0  503  502  0.00000000000E+00  0.00000000000E+00  0.31102810149E+02  0.31102810149E+02  0.00000000000E+00 0. -1.
         21   -1    0    0  501  503 -0.00000000000E+00 -0.00000000000E+00 -0.14321214136E+04  0.14321214136E+04  0.00000000000E+00 0.  1.
          6    2    1    2  501    0 -0.68439890963E+02 -0.10353723978E+03 -0.65739199341E+03  0.69007360115E+03  0.16921395720E+03 0.  0.
         24    2    3    3    0    0  0.19049891578E+02 -0.23262032034E+02 -0.35354526831E+03  0.36381681060E+03  0.80401457868E+02 0.  0.
         -6    2    1    2    0  502  0.68439890963E+02  0.10353723978E+03 -0.74362661001E+03  0.77315062257E+03  0.17139828285E+03 0.  0.
        -24    2    5    5    0    0 -0.26294482065E+02  0.23361650198E+02 -0.33291795949E+03  0.34407439133E+03  0.79471079849E+02 0.  0.
          5    1    3    3  501    0 -0.87489782541E+02 -0.80275207744E+02 -0.30384672509E+03  0.32625679055E+03  0.47000000000E+01 0. -1.
        -13    1    4    4    0    0 -0.30268184541E+02 -0.47063111539E+01 -0.17490765934E+03  0.17756970928E+03  0.00000000000E+00 0.  1.
         14    1    4    4    0    0  0.49318076119E+02 -0.18555720880E+02 -0.17863760898E+03  0.18624710132E+03  0.00000000000E+00 0. -1.
         -5    1    5    5    0  502  0.94734373028E+02  0.80175589580E+02 -0.41070865052E+03  0.42907623123E+03  0.47000000000E+01 0.  1.
         13    1    6    6    0    0 -0.61231360201E+01 -0.24052986946E+02 -0.43306365808E+02  0.49914730243E+02  0.00000000000E+00 0. -1.
        -14    1    6    6    0    0 -0.20171346045E+02  0.47414637144E+02 -0.28961159368E+03  0.29415966109E+03  0.00000000000E+00 0.  1.
</event>
<event>
12    1  0.8219652E-002  0.2002787E+03  0.7818608E-02  0.1149539E+00
         21   -1    0    0  503  502  0.00000000000E+00  0.00000000000E+00  0.51322671728E+02  0.51322671728E+02  0.00000000000E+00 0. -1.
         21   -1    0    0  501  503 -0.00000000000E+00 -0.00000000000E+00 -0.12548988103E+04  0.12548988103E+04  0.00000000000E+00 0.  1.
          6    2    1    2  501    0  0.10105221081E+03 -0.14935736671E+02 -0.10030228032E+04  0.10227903326E+04  0.17207758477E+03 0.  0.
         24    2    3    3    0    0  0.70628092072E+02 -0.71555875733E+02 -0.50675638811E+03  0.52235660882E+03  0.77109137889E+02 0.  0.
         -6    2    1    2    0  502 -0.10105221081E+03  0.14935736671E+02 -0.20055333535E+03  0.28343114941E+03  0.17226999331E+03 0.  0.
        -24    2    5    5    0    0 -0.70294722651E+02 -0.23739183616E+02 -0.20657991438E+03  0.23342932753E+03  0.79429799539E+02 0.  0.
          5    1    3    3  501    0  0.30424118734E+02  0.56620139063E+02 -0.49626641512E+03  0.50043372381E+03  0.47000000000E+01 0. -1.
        -13    1    4    4    0    0  0.23904571356E+02 -0.58087667236E+00 -0.26547238507E+03  0.26654709374E+03  0.00000000000E+00 0.  1.
         14    1    4    4    0    0  0.46723520716E+02 -0.70974999061E+02 -0.24128400305E+03  0.25580951508E+03  0.00000000000E+00 0. -1.
         -5    1    5    5    0  502 -0.30757488156E+02  0.38674920286E+02  0.60265790249E+01  0.50001821882E+02  0.47000000000E+01 0.  1.
         11    1    6    6    0    0  0.10289861838E+02  0.13408231694E+02 -0.16321387952E+02  0.23495736603E+02  0.00000000000E+00 0. -1.
        -12    1    6    6    0    0 -0.80584584489E+02 -0.37147415310E+02 -0.19025852642E+03  0.20993359093E+03  0.00000000000E+00 0.  1.
</event>
<event>
12    1  0.8219652E-002  0.2521196E+03  0.7818608E-02  0.1112096E+00
         21   -1    0    0  501  502  0.00000000000E+00  0.00000000000E+00  0.86641449323E+03  0.86641449323E+03  0.00000000000E+00 0. -1.
         21   -1    0    0  502  503 -0.00000000000E+00 -0.00000000000E+00 -0.19148880423E+03  0.19148880423E+03  0.00000000000E+00 0.  1.
         -6    2    1    2    0  503 -0.11754946786E+03 -0.14033134948E+03 -0.78182453732E+02  0.26396357011E+03  0.17335946826E+03 0.  0.
        -24    2    3    3    0    0 -0.76252625485E+02 -0.40135867703E+02  0.18766421829E+02  0.11847907530E+03  0.79118657258E+02 0.  0.
          6    2    1    2  501    0  0.11754946786E+03  0.14033134948E+03  0.75310814274E+03  0.79393972735E+03  0.17221396858E+03 0.  0.
         24    2    5    5    0    0  0.76707080122E+02  0.16126712317E+03  0.50443755711E+03  0.54102559684E+03  0.79752029805E+02 0.  0.
          5    1    5    5  501    0  0.40842387733E+02 -0.20935773698E+02  0.24867058563E+03  0.25291413051E+03  0.47000000000E+01 0. -1.
        -13    1    6    6    0    0 -0.74875071422E+01  0.46571512805E+02  0.74695548811E+02  0.88342478912E+02  0.00000000000E+00 0.  1.
         14    1    6    6    0    0  0.84194587264E+02  0.11469561037E+03  0.42974200829E+03  0.45268311793E+03  0.00000000000E+00 0. -1.
         -5    1    3    3    0  503 -0.41296842370E+02 -0.10019548177E+03 -0.96948875561E+02  0.14548449481E+03  0.47000000000E+01 0.  1.
         13    1    4    4    0    0 -0.11544806395E+02 -0.45929698443E+02  0.24389011035E+02  0.53269537384E+02  0.00000000000E+00 0. -1.
        -14    1    4    4    0    0 -0.64707819090E+02  0.57938307406E+01 -0.56225892059E+01  0.65209537918E+02  0.00000000000E+00 0.  1.
</event>
<event>
12    1  0.8219652E-002  0.1752773E+03  0.7818608E-02  0.1173191E+00
         21   -1    0    0  501  502  0.00000000000E+00  0.00000000000E+00  0.56281809645E+03  0.56281809645E+03  0.00000000000E+00 0.  1.
         21   -1    0    0  502  503 -0.00000000000E+00 -0.00000000000E+00 -0.47632307554E+03  0.47632307554E+03  0.00000000000E+00 0.  1.
         -6    2    1    2    0  503 -0.21474412072E+02  0.15327341840E+02 -0.44620928705E+03  0.47834173703E+03  0.17032912772E+03 0.  0.
        -24    2    3    3    0    0 -0.19221156816E+01 -0.56493472465E+02 -0.28553317583E+03  0.30119935255E+03  0.77438030166E+02 0.  0.
          6    2    1    2  501    0  0.21474412072E+02 -0.15327341840E+02  0.53270430796E+03  0.56079943496E+03  0.17328026072E+03 0.  0.
         24    2    5    5    0    0  0.81074672190E+02  0.29084248098E+01  0.32171749265E+03  0.34074884890E+03  0.77627775607E+02 0.  0.
          5    1    5    5  501    0 -0.59600260118E+02 -0.18235766650E+02  0.21098681531E+03  0.22005058606E+03  0.47000000000E+01 0. -1.
        -13    1    6    6    0    0 -0.19531351022E+00 -0.10853416488E+02  0.14874638516E+03  0.14914195217E+03  0.00000000000E+00 0.  1.
         14    1    6    6    0    0  0.81269985700E+02  0.13761841298E+02  0.17297110748E+03  0.19160689673E+03  0.00000000000E+00 0. -1.
         -5    1    3    3    0  503 -0.19552296391E+02  0.71820814304E+02 -0.16067611122E+03  0.17714238448E+03  0.47000000000E+01 0.  1.
         11    1    4    4    0    0  0.36893540593E+02 -0.23593140139E+02 -0.10866428769E+03  0.11715671990E+03  0.00000000000E+00 0. -1.
        -12    1    4    4    0    0 -0.38815656275E+02 -0.32900332325E+02 -0.17686888814E+03  0.18404263265E+03  0.00000000000E+00 0.  1.
</event>
<event>
12    1  0.8219652E-002  0.3635912E+03  0.7818608E-02  0.1057217E+00
         21   -1    0    0  503  502  0.00000000000E+00  0.00000000000E+00  0.21441867241E+03  0.21441867241E+03  0.00000000000E+00 0. -1.
         21   -1    0    0  501  503 -0.00000000000E+00 -0.00000000000E+00 -0.15763239755E+04  0.15763239755E+04  0.00000000000E+00 0.  1.
          6    2    1    2  501    0  0.29020420016E+03  0.13563733638E+03 -0.13800736990E+04  0.14271657260E+04  0.17199601738E+03 0.  0.
         24    2    3    3    0    0  0.75788614456E+02 -0.52948052806E+01 -0.52784900835E+03  0.53714048743E+03  0.64213538873E+02 0.  0.
         -6    2    1    2    0  502 -0.29020420016E+03 -0.13563733638E+03  0.18168395839E+02  0.36357692198E+03  0.17100328295E+03 0.  0.
        -24    2    5    5    0    0 -0.64434272888E+02 -0.43743327150E+02 -0.23812575749E+02  0.11618844010E+03  0.82870143335E+02 0.  0.
          5    1    3    3  501    0  0.21441558570E+03  0.14093214166E+03 -0.85222469060E+03  0.89002523853E+03  0.47000000000E+01 0. -1.
        -11    1    4    4    0    0  0.15204533559E+02 -0.28106814446E+02 -0.11982576691E+03  0.12401364955E+03  0.00000000000E+00 0.  1.
         12    1    4    4    0    0  0.60584080897E+02  0.22812009166E+02 -0.40802324145E+03  0.41312683789E+03  0.00000000000E+00 0. -1.
         -5    1    5    5    0  502 -0.22576992727E+03 -0.91894009231E+02  0.41980971587E+02  0.24738848188E+03  0.47000000000E+01 0.  1.
         11    1    6    6    0    0 -0.12835690606E+02  0.24318470137E+02  0.85937225419E-01  0.27498187728E+02  0.00000000000E+00 0. -1.
        -12    1    6    6    0    0 -0.51598582282E+02 -0.68061797287E+02 -0.23898512974E+02  0.88690252372E+02  0.00000000000E+00 0.  1.
</event>
<event>
12    1  0.8219652E-002  0.2078544E+03  0.7818608E-02  0.1143331E+00
         21   -1    0    0  503  502  0.00000000000E+00  0.00000000000E+00  0.25586101530E+03  0.25586101530E+03  0.00000000000E+00 0.  1.
         21   -1    0    0  501  503 -0.00000000000E+00 -0.00000000000E+00 -0.35150611102E+03  0.35150611102E+03  0.00000000000E+00 0.  1.
          6    2    1    2  501    0 -0.28186165199E+02  0.11361195798E+03 -0.26684939349E+03  0.33808221142E+03  0.17143175308E+03 0.  0.
         24    2    3    3    0    0 -0.19989625778E+02  0.14689171635E+03 -0.24431320001E+03  0.29679425201E+03  0.80131934061E+02 0.  0.
         -6    2    1    2    0  502  0.28186165199E+02 -0.11361195798E+03  0.17120429777E+03  0.26928491490E+03  0.17175947400E+03 0.  0.
        -24    2    5    5    0    0  0.60874313545E+02 -0.11833119708E+03  0.84820101501E+02  0.17668304869E+03  0.79463801954E+02 0.  0.
          5    1    3    3  501    0 -0.81965394206E+01 -0.33279758368E+02 -0.22536193485E+02  0.41287959410E+02  0.47000000000E+01 0. -1.
        -13    1    4    4    0    0 -0.43915991638E+02  0.81781077472E+02 -0.98648304885E+02  0.13545570129E+03  0.00000000000E+00 0.  1.
         14    1    4    4    0    0  0.23926365860E+02  0.65110638877E+02 -0.14566489512E+03  0.16133855072E+03  0.00000000000E+00 0. -1.
         -5    1    5    5    0  502 -0.32688148346E+02  0.47192391031E+01  0.86384196273E+02  0.92601866211E+02  0.47000000000E+01 0.  1.
         11    1    6    6    0    0  0.37904955737E+02 -0.14788482280E+02  0.51249697044E+02  0.65437117331E+02  0.00000000000E+00 0. -1.
        -12    1    6    6    0    0  0.22969357807E+02 -0.10354271481E+03  0.33570404458E+02  0.11124593135E+03  0.00000000000E+00 0.  1.
</event>
<event>
12    1  0.8219652E-002  0.2201599E+03  0.7818608E-02  0.1134093E+00
         21   -1    0    0  503  502  0.00000000000E+00  0.00000000000E+00  0.27962984070E+02  0.27962984070E+02  0.00000000000E+00 0.  1.
         21   -1    0    0  501  503 -0.00000000000E+00 -0.00000000000E+00 -0.19313863791E+04  0.19313863791E+04  0.00000000000E+00 0.  1.
          6    2    1    2  501    0  0.13491974562E+03  0.75149413433E+01 -0.12795573331E+04  0.12983594883E+04  0.17381191047E+03 0.  0.
         24    2    3    3    0    0  0.38923827017E+02  0.67346778836E+02 -0.78771311766E+03  0.79365374495E+03  0.57824373869E+02 0.  0.
         -6    2    1    2    0  502 -0.13491974562E+03 -0.75149413433E+01 -0.62386606191E+03  0.66098987479E+03  0.17157779364E+03 0.  0.
        -24    2    5    5    0    0 -0.51701412890E+02 -0.30727252797E+02 -0.26387506865E+03  0.29074710641E+03  0.10623854232E+03 0.  0.
          5    1    3    3  501    0  0.95995918605E+02 -0.59831837493E+02 -0.49184421541E+03  0.50470574338E+03  0.47000000000E+01 0. -1.
        -13    1    4    4    0    0  0.21828283619E+01 -0.89926179515E+01 -0.35561244644E+02  0.36745530857E+02  0.00000000000E+00 0.  1.
         14    1    4    4    0    0  0.36740998655E+02  0.76339396787E+02 -0.75215187302E+03  0.75690821409E+03  0.00000000000E+00 0. -1.
         -5    1    5    5    0  502 -0.83218332732E+02  0.23212311454E+02 -0.35999099326E+03  0.37024276837E+03  0.47000000000E+01 0.  1.
         11    1    6    6    0    0 -0.25434422038E+00 -0.44534236813E+02 -0.21115924300E+03  0.21580451534E+03  0.00000000000E+00 0. -1.
        -12    1    6    6    0    0 -0.51447068670E+02  0.13806984016E+02 -0.52715825652E+02  0.74942591072E+02  0.00000000000E+00 0.  1.
</event>
<event>
12    1  0.8219652E-002  0.1873221E+03  0.7818608E-02  0.1161491E+00
         21   -1    0    0  501  502  0.00000000000E+00  0.00000000000E+00  0.92559989447E+03  0.92559989447E+03  0.00000000000E+00 0. -1.
         21   -1    0    0  502  503 -0.00000000000E+00 -0.00000000000E+00 -0.49828271135E+02  0.49828271135E+02  0.00000000000E+00 0. -1.
         -6    2    1    2    0  503  0.71826405596E+02 -0.36115578924E+01  0.19651894247E+03  0.27149448597E+03  0.17296671723E+03 0.  0.
        -24    2    3    3    0    0 -0.22508247982E+02  0.82846391164E+01  0.53426019771E+02  0.99627616283E+02  0.80598175321E+02 0.  0.
          6    2    1    2  501    0 -0.71826405596E+02  0.36115578924E+01  0.67925268086E+03  0.70393367963E+03  0.17019502041E+03 0.  0.
         24    2    5    5    0    0  0.12008670117E+02  0.39784418985E+02  0.32658316170E+03  0.33960597612E+03  0.83358559013E+02 0.  0.
          5    1    5    5  501    0 -0.83835075713E+02 -0.36172861092E+02  0.35266951916E+03  0.36432770351E+03  0.47000000000E+01 0. -1.
        -13    1    6    6    0    0  0.25558668423E+02 -0.12755152058E+02  0.48565260926E+02  0.56342914412E+02  0.00000000000E+00 0.  1.
         14    1    6    6    0    0 -0.13549998306E+02  0.52539571042E+02  0.27801790077E+03  0.28326306171E+03  0.00000000000E+00 0. -1.
         -5    1    3    3    0  503  0.94334653578E+02 -0.11896197009E+02  0.14309292270E+03  0.17186686969E+03  0.47000000000E+01 0.  1.
         11    1    4    4    0    0  0.61151940223E+01  0.30487270445E+02  0.55203998757E+02  0.63358904156E+02  0.00000000000E+00 0. -1.
        -12    1    4    4    0    0 -0.28623442004E+02 -0.22202631328E+02 -0.17779789859E+01  0.36268712127E+02  0.00000000000E+00 0.  1.
</event>
<event>
12    1  0.8219652E-002  0.1958007E+03  0.7818608E-02  0.1153713E+00
         21   -1    0    0  503  502  0.00000000000E+00  0.00000000000E+00  0.56757866803E+03  0.56757866803E+03  0.00000000000E+00 0. -1.
         21   -1    0    0  501  503 -0.00000000000E+00 -0.00000000000E+00 -0.66996847687E+02  0.66996847687E+02  0.00000000000E+00 0. -1.
          6    2    1    2  501    0  0.31181783852E+02 -0.84635764772E+02  0.24242712872E+03  0.31162292063E+03  0.17378842194E+03 0.  0.
         24    2    3    3    0    0 -0.10649076117E+02  0.20045451977E+02  0.11891436756E+03  0.14433433717E+03  0.78591037068E+02 0.  0.
         -6    2    1    2    0  502 -0.31181783852E+02  0.84635764772E+02  0.25815469162E+03  0.32295259509E+03  0.17181099367E+03 0.  0.
        -24    2    5    5    0    0  0.42170378250E+02  0.18149606066E+02  0.96564746233E+02  0.13338901885E+03  0.79750430301E+02 0.  0.
          5    1    3    3  501    0  0.41830859969E+02 -0.10468121675E+03  0.12351276116E+03  0.16728858346E+03  0.47000000000E+01 0. -1.
        -11    1    4    4    0    0 -0.13573129749E+02  0.25150888841E+02  0.35263176441E+01  0.28796388260E+02  0.00000000000E+00 0.  1.
         12    1    4    4    0    0  0.29240536324E+01 -0.51054368641E+01  0.11538804992E+03  0.11553794891E+03  0.00000000000E+00 0. -1.
         -5    1    5    5    0  502 -0.73352162102E+02  0.66486158706E+02  0.16158994539E+03  0.18956357624E+03  0.47000000000E+01 0.  1.
         11    1    6    6    0    0 -0.21508974278E+02 -0.15553960421E+01  0.90696184293E+01  0.23394726110E+02  0.00000000000E+00 0. -1.
        -12    1    6    6    0    0  0.63679352528E+02  0.19705002108E+02  0.87495127803E+02  0.10999429274E+03  0.00000000000E+00 0.  1.
</event>
<event>
12    1  0.8219652E-002  0.1918067E+03  0.7818608E-02  0.1156930E+00
         21   -1    0    0  503  502  0.00000000000E+00  0.00000000000E+00  0.14492768660E+03  0.14492768660E+03  0.00000000000E+00 0.  1.
         21   -1    0    0  501  503 -0.00000000000E+00 -0.00000000000E+00 -0.25612799582E+03  0.25612799582E+03  0.00000000000E+00 0.  1.
          6    2    1    2  501    0 -0.71345894240E+02  0.43524585543E+02 -0.34567059536E+02  0.19450671583E+03  0.17220149455E+03 0.  0.
         24    2    3    3    0    0 -0.26752389373E+02  0.91314749003E+02 -0.25318485371E+01  0.12156272949E+03  0.75610933208E+02 0.  0.
         -6    2    1    2    0  502  0.71345894240E+02 -0.43524585543E+02 -0.76633249686E+02  0.20654896658E+03  0.17264180973E+03 0.  0.
        -24    2    5    5    0    0  0.48125897731E+02  0.20123328432E+02  0.10086977318E+02  0.96400371664E+02  0.80437765794E+02 0.  0.
          5    1    3    3  501    0 -0.44593504867E+02 -0.47790163461E+02 -0.32035210999E+02  0.72943986344E+02  0.47000000000E+01 0. -1.
        -13    1    4    4    0    0 -0.36743758818E+02  0.37820954976E+02  0.27432524853E+02  0.59439648949E+02  0.00000000000E+00 0.  1.
         14    1    4    4    0    0  0.99913694455E+01  0.53493794027E+02 -0.29964373390E+02  0.62123080538E+02  0.00000000000E+00 0. -1.
         -5    1    5    5    0  502  0.23219996509E+02 -0.63647913975E+02 -0.86720227005E+02  0.11014859492E+03  0.47000000000E+01 0.  1.
         11    1    6    6    0    0 -0.22100751742E+02  0.52267202033E+01 -0.44802526999E+01  0.23148099185E+02  0.00000000000E+00 0. -1.
        -12    1    6    6    0    0  0.70226649473E+02  0.14896608229E+02  0.14567230018E+02  0.73252272479E+02  0.00000000000E+00 0.  1.
</event>
<event>
12    1  0.8219652E-002  0.2273873E+03  0.7818608E-02  0.1128512E+00
         21   -1    0    0  501  502  0.00000000000E+00  0.00000000000E+00  0.86485482025E+03  0.86485482025E+03  0.00000000000E+00 0.  1.
         21   -1    0    0  502  503 -0.00000000000E+00 -0.00000000000E+00 -0.32282865634E+03  0.32282865634E+03  0.00000000000E+00 0. -1.
         -6    2    1    2    0  503  0.78911430955E+02 -0.12651951758E+03 -0.26507033192E+03  0.34916708078E+03  0.17152599561E+03 0.  0.
        -24    2    3    3    0    0 -0.20659487844E+02 -0.55418311811E+02 -0.14846997744E+03  0.18008874983E+03  0.83009757807E+02 0.  0.
          6    2    1    2  501    0 -0.78911430955E+02  0.12651951758E+03  0.80709649583E+03  0.83851639581E+03  0.17167058629E+03 0.  0.
         24    2    5    5    0    0  0.11237515431E+02  0.10853016807E+03  0.49360548241E+03  0.51179150431E+03  0.79869221133E+02 0.  0.
          5    1    5    5  501    0 -0.90148946385E+02  0.17989349511E+02  0.31349101342E+03  0.32672489150E+03  0.47000000000E+01 0. -1.
        -13    1    6    6    0    0 -0.13177110696E+01  0.38932806536E+02  0.34526339439E+03  0.34745404198E+03  0.00000000000E+00 0.  1.
         14    1    6    6    0    0  0.12555226500E+02  0.69597361531E+02  0.14834208802E+03  0.16433746232E+03  0.00000000000E+00 0. -1.
         -5    1    3    3    0  503  0.99570918799E+02 -0.71101205767E+02 -0.11660035448E+03  0.16907833095E+03  0.47000000000E+01 0.  1.
         13    1    4    4    0    0  0.18702934491E+02 -0.50360998480E+01 -0.94365427569E+02  0.96332735768E+02  0.00000000000E+00 0. -1.
        -14    1    4    4    0    0 -0.39362422335E+02 -0.50382211963E+02 -0.54104549873E+02  0.83756014061E+02  0.00000000000E+00 0.  1.
</event>
<event>
12    1  0.8219652E-002  0.1829764E+03  0.7818608E-02  0.1166206E+00
         21   -1    0    0  501  502  0.00000000000E+00  0.00000000000E+00  0.37144291063E+03  0.37144291063E+03  0.00000000000E+00 0. -1.
         21   -1    0    0  502  503 -0.00000000000E+00 -0.00000000000E+00 -0.89325472295E+02  0.89325472295E+02  0.00000000000E+00 0. -1.
         -6    2    1    2    0  503 -0.40680834780E+02  0.18885142604E+02  0.17118087553E+03  0.24678874226E+03  0.17201805786E+03 0.  0.
        -24    2    3    3    0    0 -0.56390305066E+02 -0.38927874161E+02  0.13251496383E+03  0.17533053705E+03  0.92115881863E+02 0.  0.
          6    2    1    2  501    0  0.40680834780E+02 -0.18885142604E+02  0.11093656280E+03  0.21397964067E+03  0.17739443825E+03 0.  0.
         24    2    5    5    0    0 -0.31599903512E+02  0.12294855082E+02  0.10263449753E+03  0.13468454831E+03  0.80351540789E+02 0.  0.
          5    1    5    5  501    0  0.72280738292E+02 -0.31179997686E+02  0.83020652734E+01  0.79295092355E+02  0.47000000000E+01 0. -1.
        -11    1    6    6    0    0 -0.54880075308E+02  0.25267718536E+01  0.92283497124E+02  0.10739856183E+03  0.00000000000E+00 0.  1.
         12    1    6    6    0    0  0.23280171796E+02  0.97680832284E+01  0.10351000406E+02  0.27285986480E+02  0.00000000000E+00 0. -1.
         -5    1    3    3    0  503  0.15709470286E+02  0.57813016765E+02  0.38665911704E+02  0.71458205211E+02  0.47000000000E+01 0.  1.
         13    1    4    4    0    0  0.83190379937E+01 -0.47655325449E+02  0.68754421268E+02  0.84067870680E+02  0.00000000000E+00 0. -1.
        -14    1    4    4    0    0 -0.64709343060E+02  0.87274512879E+01  0.63760542563E+02  0.91262666371E+02  0.00000000000E+00 0.  1.
</event>
<event>
12    1  0.8219652E-002  0.1803532E+03  0.7818608E-02  0.1168248E+00
         21   -1    0    0  501  502  0.00000000000E+00  0.00000000000E+00  0.40221913935E+03  0.40221913935E+03  0.00000000000E+00 0. -1.
         21   -1    0    0  502  503 -0.00000000000E+00 -0.00000000000E+00 -0.13097191154E+03  0.13097191154E+03  0.00000000000E+00 0.  1.
         -6    2    1    2    0  503 -0.33119656316E+02  0.35084725439E+02 -0.32357938961E+02  0.18005742705E+03  0.17042825830E+03 0.  0.
        -24    2    3    3    0    0  0.41585441101E+02 -0.10792308777E+02 -0.21231927958E+02  0.91562048808E+02  0.78019171854E+02 0.  0.
          6    2    1    2  501    0  0.33119656316E+02 -0.35084725439E+02  0.30360516677E+03  0.35313362384E+03  0.17377977270E+03 0.  0.
         24    2    5    5    0    0  0.79366466055E+02 -0.41110006044E+02  0.26904850195E+03  0.29489854419E+03  0.81172571949E+02 0.  0.
          5    1    5    5  501    0 -0.46246809739E+02  0.60252806058E+01  0.34556664827E+02  0.58235079646E+02  0.47000000000E+01 0. -1.
        -13    1    6    6    0    0 -0.40413551288E+01  0.16553255339E+02  0.21829993850E+02  0.27692804933E+02  0.00000000000E+00 0.  1.
         14    1    6    6    0    0  0.83407821184E+02 -0.57663261383E+02  0.24721850810E+03  0.26720573926E+03  0.00000000000E+00 0. -1.
         -5    1    3    3    0  503 -0.74705097417E+02  0.45877034215E+02 -0.11126011002E+02  0.88495378237E+02  0.47000000000E+01 0.  1.
         13    1    4    4    0    0  0.29652651309E+02  0.30894084715E+02  0.10010347538E+01  0.42833704843E+02  0.00000000000E+00 0. -1.
        -14    1    4    4    0    0  0.11932789793E+02 -0.41686393492E+02 -0.22232962712E+02  0.48728343965E+02  0.00000000000E+00 0.  1.
</event>
<event>
12    1  0.8219652E-002  0.1781992E+03  0.7818608E-02  0.1169878E+00
         21   -1    0    0  503  502  0.00000000000E+00  0.00000000000E+00  0.41652773799E+03  0.41652773799E+03  0.00000000000E+00 0. -1.
         21   -1    0    0  501  503 -0.00000000000E+00 -0.00000000000E+00 -0.15582534523E+03  0.15582534523E+03  0.00000000000E+00 0. -1.
          6    2    1    2  501    0 -0.39935285732E+02  0.17920287269E+02 -0.75114403389E+02  0.19218487662E+03  0.17139687705E+03 0.  0.
         24    2    3    3    0    0  0.80589901438E+01  0.46686467022E+02  0.72096238356E+01  0.92534091007E+02  0.79158106328E+02 0.  0.
         -6    2    1    2    0  502  0.39935285732E+02 -0.17920287269E+02  0.33581679616E+03  0.38016820660E+03  0.17273963351E+03 0.  0.
        -24    2    5    5    0    0  0.29156622268E+02  0.17226730099E+02  0.33159400484E+03  0.34286653931E+03  0.80349305442E+02 0.  0.
          5    1    3    3  501    0 -0.47994275876E+02 -0.28766179753E+02 -0.82324027225E+02  0.99650785611E+02  0.47000000000E+01 0. -1.
        -11    1    4    4    0    0  0.43291447887E+02  0.27862357481E+02  0.10174310250E+02  0.52478348046E+02  0.00000000000E+00 0.  1.
         12    1    4    4    0    0 -0.35232457743E+02  0.18824109541E+02 -0.29646864145E+01  0.40055742961E+02  0.00000000000E+00 0. -1.
         -5    1    5    5    0  502  0.10778663464E+02 -0.35147017369E+02  0.42227913214E+01  0.37301667289E+02  0.47000000000E+01 0.  1.
         11    1    6    6    0    0 -0.23648051414E+02 -0.49306369402E+01  0.16375766581E+03  0.16552979982E+03  0.00000000000E+00 0. -1.
        -12    1    6    6    0    0  0.52804673683E+02  0.22157367039E+02  0.16783633903E+03  0.17733673950E+03  0.00000000000E+00 0.  1.
</event>
<event>
12    1  0.8219652E-002  0.2042345E+03  0.7818608E-02  0.1148582E+00
         21   -1    0    0  503  502  0.00000000000E+00  0.00000000000E+00  0.65001487201E+02  0.65001487201E+02  0.00000000000E+00 0. -1.
         21   -1    0    0  501  503 -0.00000000000E+00 -0.00000000000E+00 -0.61391418049E+03  0.61391418049E+03  0.00000000000E+00 0. -1.
          6    2    1    2  501    0 -0.20179994989E+02 -0.10744365268E+03 -0.31806308561E+03  0.37798924659E+03  0.17251195150E+03 0.  0.
         24    2    3    3    0    0 -0.79882191064E+02 -0.57875600429E+02 -0.22401142493E+03  0.25596814637E+03  0.74885405034E+02 0.  0.
         -6    2    1    2    0  502  0.20179994989E+02  0.10744365268E+03 -0.23084960768E+03  0.30092642110E+03  0.15910310762E+03 0.  0.
        -24    2    5    5    0    0  0.59205620897E+01  0.51049458874E+02 -0.22216253810E+03  0.24192479655E+03  0.80810355442E+02 0.  0.
          5    1    3    3  501    0  0.59702196075E+02 -0.49568052251E+02 -0.94051660687E+02  0.12202110022E+03  0.47000000000E+01 0. -1.
        -11    1    4    4    0    0 -0.94817192093E+01  0.11476595265E+02 -0.79603735775E+02  0.80983763726E+02  0.00000000000E+00 0.  1.
         12    1    4    4    0    0 -0.70400471854E+02 -0.69352195693E+02 -0.14440768915E+03  0.17498438265E+03  0.00000000000E+00 0. -1.
         -5    1    5    5    0  502  0.14259432899E+02  0.56394193805E+02 -0.86870695811E+01  0.59001624549E+02  0.47000000000E+01 0.  1.
         11    1    6    6    0    0  0.52683383140E+00  0.54554503899E+02 -0.66000084988E+02  0.85629916898E+02  0.00000000000E+00 0. -1.
        -12    1    6    6    0    0  0.53937282583E+01 -0.35050450252E+01 -0.15616245311E+03  0.15629487965E+03  0.00000000000E+00 0.  1.
</event>
<event>
12    1  0.8219652E-002  0.2330570E+03  0.7818608E-02  0.1124775E+00
         21   -1    0    0  503  502  0.00000000000E+00  0.00000000000E+00  0.41285904983E+02  0.41285904983E+02  0.00000000000E+00 0. -1.
         21   -1    0    0  501  503 -0.00000000000E+00 -0.00000000000E+00 -0.13068741941E+04  0.13068741941E+04  0.00000000000E+00 0.  1.
          6    2    1    2  501    0  0.82873195522E+02  0.13001151703E+03 -0.63384175772E+03  0.67533024809E+03  0.17477016069E+03 0.  0.
         24    2    3    3    0    0 -0.23898609089E+02  0.77968581998E+02 -0.33008612687E+03  0.34914278877E+03  0.79332165632E+02 0.  0.
         -6    2    1    2    0  502 -0.82873195522E+02 -0.13001151703E+03 -0.63174653136E+03  0.67282985095E+03  0.17270022394E+03 0.  0.
        -24    2    5    5    0    0 -0.21892587256E+02 -0.42007217545E+02 -0.46940781138E+03  0.47830648136E+03  0.78673407346E+02 0.  0.
          5    1    3    3  501    0  0.10677180461E+03  0.52042935031E+02 -0.30375563085E+03  0.32618745932E+03  0.47000000000E+01 0. -1.
        -11    1    4    4    0    0  0.21507013857E+02  0.16695518538E+01 -0.10469410379E+03  0.10689337874E+03  0.00000000000E+00 0.  1.
         12    1    4    4    0    0 -0.45405622947E+02  0.76299030144E+02 -0.22539202308E+03  0.24224941004E+03  0.00000000000E+00 0. -1.
         -5    1    5    5    0  502 -0.60980608267E+02 -0.88004299483E+02 -0.16233871997E+03  0.19452336959E+03  0.47000000000E+01 0.  1.
         13    1    6    6    0    0  0.20841896720E+02 -0.14061232063E+02 -0.51696616670E+02  0.57486025094E+02  0.00000000000E+00 0. -1.
        -14    1    6    6    0    0 -0.42734483976E+02 -0.27945985483E+02 -0.41771119471E+03  0.42082045627E+03  0.00000000000E+00 0.  1.
</event>
<event>
12    1  0.8219652E-002  0.2038365E+03  0.7818608E-02  0.1147043E+00
         21   -1    0    0  501  502  0.00000000000E+00  0.00000000000E+00  0.22913172042E+02  0.22913172042E+02  0.00000000000E+00 0. -1.
         21   -1    0    0  502  503 -0.00000000000E+00 -0.00000000000E+00 -0.18281479060E+04  0.18281479060E+04  0.00000000000E+00 0. -1.
         -6    2    1    2    0  503 -0.56041189972E+02 -0.89452215788E+02 -0.10383021729E+04  0.10581213260E+04  0.17437610035E+03 0.  0.
        -24    2    3    3    0    0 -0.28318351258E+02  0.19843579918E+02 -0.40863018144E+03  0.41841589880E+03  0.83051444905E+02 0.  0.
          6    2    1    2  501    0  0.56041189972E+02  0.89452215788E+02 -0.76693256100E+03  0.79293975200E+03  0.17153886818E+03 0.  0.
         24    2    5    5    0    0  0.93161330212E+02  0.53330259806E+02 -0.65765229819E+03  0.67191510015E+03  0.86256631261E+02 0.  0.
          5    1    5    5  501    0 -0.37120140240E+02  0.36121955982E+02 -0.10928026281E+03  0.12102465184E+03  0.47000000000E+01 0. -1.
        -13    1    6    6    0    0  0.42304463586E+02  0.18180007680E+01 -0.45038045120E+03  0.45236658098E+03  0.00000000000E+00 0.  1.
         14    1    6    6    0    0  0.50856866626E+02  0.51512259038E+02 -0.20727184700E+03  0.21954851917E+03  0.00000000000E+00 0. -1.
         -5    1    3    3    0  503 -0.27722838714E+02 -0.10929579571E+03 -0.62967199150E+03  0.63970542722E+03  0.47000000000E+01 0.  1.
         13    1    4    4    0    0 -0.16807185081E+02 -0.27249374195E+02 -0.79017401943E+02  0.85257021260E+02  0.00000000000E+00 0. -1.
        -14    1    4    4    0    0 -0.11511166177E+02  0.47092954113E+02 -0.32961277950E+03  0.33315887754E+03  0.00000000000E+00 0.  1.
</event>
<event>
12    1  0.8219652E-002  0.1779229E+03  0.7818608E-02  0.1173810E+00
         21   -1    0    0  501  502  0.00000000000E+00  0.00000000000E+00  0.25457419976E+02  0.25457419976E+02  0.00000000000E+00 0.  1.
         21   -1    0    0  502  503 -0.00000000000E+00 -0.00000000000E+00 -0.11608825605E+04  0.11608825605E+04  0.00000000000E+00 0.  1.
         -6    2    1    2    0  503 -0.37593246387E+02 -0.14012019655E+02 -0.67626690669E+03  0.69928068318E+03  0.17334057784E+03 0.  0.
        -24    2    3    3    0    0 -0.37850155414E+01 -0.69236915326E+01 -0.15111408416E+03  0.17297201151E+03  0.83794907291E+02 0.  0.
          6    2    1    2  501    0  0.37593246387E+02  0.14012019655E+02 -0.45915823387E+03  0.48705929733E+03  0.15745121947E+03 0.  0.
         24    2    5    5    0    0 -0.33309448589E+02  0.79711052292E+00 -0.30504776869E+03  0.31684193201E+03  0.78895588876E+02 0.  0.
          5    1    5    5  501    0  0.70902694976E+02  0.13214909132E+02 -0.15411046518E+03  0.17021736532E+03  0.47000000000E+01 0. -1.
        -13    1    6    6    0    0 -0.31278669005E+01 -0.42631429794E+01  0.37811901837E+01  0.65004106498E+01  0.00000000000E+00 0.  1.
         14    1    6    6    0    0 -0.30181581689E+02  0.50602535024E+01 -0.30882895887E+03  0.31034152136E+03  0.00000000000E+00 0. -1.
         -5    1    3    3    0  503 -0.33808230846E+02 -0.70883281223E+01 -0.52515282253E+03  0.52630867167E+03  0.47000000000E+01 0.  1.
         11    1    4    4    0    0  0.17131764902E+02  0.73647564561E+01 -0.14592889398E+03  0.14711552979E+03  0.00000000000E+00 0. -1.
        -12    1    4    4    0    0 -0.20916780444E+02 -0.14288447989E+02 -0.51851901820E+01  0.25856481727E+02  0.00000000000E+00 0.  1.
</event>
<event>
12    1  0.8219652E-002  0.1895640E+03  0.7818608E-02  0.1160241E+00
         21   -1    0    0  503  502  0.00000000000E+00  0.00000000000E+00  0.40210240709E+02  0.40210240709E+02  0.00000000000E+00 0.  1.
         21   -1    0    0  501  503 -0.00000000000E+00 -0.00000000000E+00 -0.98051970486E+03  0.98051970486E+03  0.00000000000E+00 0.  1.
          6    2    1    2  501    0  0.41865972649E+02  0.69829007587E+02 -0.63823617309E+03  0.66410299795E+03  0.16449476977E+03 0.  0.
         24    2    3    3    0    0  0.33343869368E+02  0.14664412520E+02 -0.56371621968E+03  0.57087707748E+03  0.82448787943E+02 0.  0.
         -6    2    1    2    0  502 -0.41865972649E+02 -0.69829007587E+02 -0.30207329106E+03  0.35662694761E+03  0.17118895007E+03 0.  0.
        -24    2    5    5    0    0 -0.60866897398E+02  0.94290652874E+01 -0.11788970232E+03  0.15516091669E+03  0.79895191863E+02 0.  0.
          5    1    3    3  501    0  0.85221032805E+01  0.55164595067E+02 -0.74519953405E+02  0.93225920477E+02  0.47000000000E+01 0. -1.
        -11    1    4    4    0    0  0.17830662844E+02  0.48609081960E+02 -0.36919428138E+03  0.37280717910E+03  0.00000000000E+00 0.  1.
         12    1    4    4    0    0  0.15513206524E+02 -0.33944669440E+02 -0.19452193830E+03  0.19806989837E+03  0.00000000000E+00 0. -1.
         -5    1    5    5    0  502  0.19000924749E+02 -0.79258072874E+02 -0.18418358874E+03  0.20146603092E+03  0.47000000000E+01 0.  1.
         11    1    6    6    0    0  0.11498378795E+02  0.24155145703E+02 -0.36611534777E+02  0.45344109403E+02  0.00000000000E+00 0. -1.
        -12    1    6    6    0    0 -0.72365276192E+02 -0.14726080415E+02 -0.81278167546E+02  0.10981680729E+03  0.00000000000E+00 0.  1.
</event>
<event>
12    1  0.8219652E-002  0.1993589E+03  0.7818608E-02  0.1151053E+00
         21   -1    0    0  501  502  0.00000000000E+00  0.00000000000E+00  0.82751094653E+03  0.82751094653E+03  0.00000000000E+00 0.  1.
         21   -1    0    0  502  503 -0.00000000000E+00 -0.00000000000E+00 -0.89557417935E+02  0.89557417935E+02  0.00000000000E+00 0.  1.
         -6    2    1    2    0  503  0.81331353159E+02 -0.48155738321E+02  0.55275804459E+02  0.20688011732E+03  0.17552835737E+03 0.  0.
        -24    2    3    3    0    0  0.60412552595E+02 -0.90769518739E+02  0.74760859424E+02  0.15535063192E+03  0.81583397157E+02 0.  0.
          6    2    1    2  501    0 -0.81331353159E+02  0.48155738321E+02  0.68267772413E+03  0.71018824714E+03  0.17141968153E+03 0.  0.
         24    2    5    5    0    0 -0.31816877666E+02 -0.42134283560E+02  0.37337382010E+03  0.38415915889E+03  0.73366465583E+02 0.  0.
          5    1    5    5  501    0 -0.49514475494E+02  0.90290021882E+02  0.30930390404E+03  0.32602908825E+03  0.47000000000E+01 0. -1.
        -13    1    6    6    0    0 -0.54320713839E+02 -0.19335253309E+02  0.21639720170E+03  0.22394718323E+03  0.00000000000E+00 0.  1.
         14    1    6    6    0    0  0.22503836173E+02 -0.22799030252E+02  0.15697661840E+03  0.16021197566E+03  0.00000000000E+00 0. -1.
         -5    1    3    3    0  503  0.20918800564E+02  0.42613780418E+02 -0.19485054966E+02  0.51529485400E+02  0.47000000000E+01 0.  1.
         13    1    4    4    0    0 -0.28045637234E+00 -0.57661448583E+02  0.62185749517E+01  0.57996482504E+02  0.00000000000E+00 0. -1.
        -14    1    4    4    0    0  0.60693008967E+02 -0.33108070156E+02  0.68542284473E+02  0.97354149412E+02  0.00000000000E+00 0.  1.
</event>
<event>
12    1  0.8219652E-002  0.1989663E+03  0.7818608E-02  0.1151132E+00
         21   -1    0    0  503  502  0.00000000000E+00  0.00000000000E+00  0.19990055703E+03  0.19990055703E+03  0.00000000000E+00 0. -1.
         21   -1    0    0  501  503 -0.00000000000E+00 -0.00000000000E+00 -0.28074340680E+03  0.28074340680E+03  0.00000000000E+00 0. -1.
          6    2    1    2  501    0  0.15028126340E+01  0.82520666382E+02 -0.17257061192E+03  0.26155133432E+03  0.17837198648E+03 0.  0.
         24    2    3    3    0    0  0.42430960217E+02  0.60394308690E+02 -0.18393241043E+03  0.21342785321E+03  0.79198851059E+02 0.  0.
         -6    2    1    2    0  502 -0.15028126340E+01 -0.82520666382E+02  0.91727762158E+02  0.21909262951E+03  0.18104054554E+03 0.  0.
        -24    2    5    5    0    0 -0.13434679149E+02  0.22371047376E+02  0.74166892308E+02  0.11197066536E+03  0.79722942880E+02 0.  0.
          5    1    3    3  501    0 -0.40928147583E+02  0.22126357692E+02  0.11361798510E+02  0.48123481115E+02  0.47000000000E+01 0. -1.
        -11    1    4    4    0    0  0.27348222674E+02  0.21403613743E+02 -0.12401718677E+02  0.36876043590E+02  0.00000000000E+00 0.  1.
         12    1    4    4    0    0  0.15082737543E+02  0.38990694947E+02 -0.17153069176E+03  0.17655180962E+03  0.00000000000E+00 0. -1.
         -5    1    5    5    0  502  0.11931866515E+02 -0.10489171376E+03  0.17560869850E+02  0.10712196415E+03  0.47000000000E+01 0.  1.
         11    1    6    6    0    0  0.73632473097E+00 -0.51113004764E+01  0.80284560745E+02  0.80450470854E+02  0.00000000000E+00 0. -1.
        -12    1    6    6    0    0 -0.14171003880E+02  0.27482347853E+02 -0.61176684363E+01  0.31520194504E+02  0.00000000000E+00 0.  1.
</event>
<event>
12    1  0.8219652E-002  0.2311406E+03  0.7818608E-02  0.1125853E+00
         21   -1    0    0  503  502  0.00000000000E+00  0.00000000000E+00  0.13054422068E+03  0.13054422068E+03  0.00000000000E+00 0. -1.
         21   -1    0    0  501  503 -0.00000000000E+00 -0.00000000000E+00 -0.46851163222E+03  0.46851163222E+03  0.00000000000E+00 0. -1.
          6    2    1    2  501    0 -0.96064497360E+02 -0.12079643551E+03 -0.27560483560E+03  0.35965024050E+03  0.17195959874E+03 0.  0.
         24    2    3    3    0    0 -0.78342388483E+02 -0.68185458413E+02 -0.74902463455E+02  0.15135832938E+03  0.80698068547E+02 0.  0.
         -6    2    1    2    0  502  0.96064497360E+02  0.12079643551E+03 -0.62362575939E+02  0.23940561240E+03  0.17206333103E+03 0.  0.
        -24    2    5    5    0    0  0.37239810372E+02  0.12045885492E+03  0.13006722160E+02  0.14368164019E+03  0.67661656056E+02 0.  0.
          5    1    3    3  501    0 -0.17722108877E+02 -0.52610977099E+02 -0.20070237215E+03  0.20829191113E+03  0.47000000000E+01 0. -1.
        -13    1    4    4    0    0 -0.45917396382E+02 -0.83613476685E+02 -0.50410624164E+02  0.10789277920E+03  0.00000000000E+00 0.  1.
         14    1    4    4    0    0 -0.32424992101E+02  0.15428018272E+02 -0.24491839291E+02  0.43465550180E+02  0.00000000000E+00 0. -1.
         -5    1    5    5    0  502  0.58824686988E+02  0.33758059316E+00 -0.75369298099E+02  0.95723972211E+02  0.47000000000E+01 0.  1.
         11    1    6    6    0    0  0.24801623271E+01  0.64979889181E+02 -0.22987388941E+02  0.68970698513E+02  0.00000000000E+00 0. -1.
        -12    1    6    6    0    0  0.34759648045E+02  0.55478965739E+02  0.35994111101E+02  0.74710941673E+02  0.00000000000E+00 0.  1.
</event>
<event>
12    1  0.8219652E-002  0.1761539E+03  0.7818608E-02  0.1171668E+00
         21   -1    0    0  501  502  0.00000000000E+00  0.00000000000E+00  0.24704792600E+03  0.24704792600E+03  0.00000000000E+00 0. -1.
         21   -1    0    0  502  503 -0.00000000000E+00 -0.00000000000E+00 -0.21883773905E+03  0.21883773905E+03  0.00000000000E+00 0. -1.
         -6    2    1    2    0  503 -0.22660333896E+02  0.25513561327E+02 -0.13815775652E+03  0.22358734243E+03  0.17245086682E+03 0.  0.
        -24    2    3    3    0    0 -0.20232915409E+02 -0.15658245505E+02 -0.67840919492E+01  0.85811655971E+02  0.81627598756E+02 0.  0.
          6    2    1    2  501    0  0.22660333896E+02 -0.25513561327E+02  0.16636794347E+03  0.24229832262E+03  0.17281710558E+03 0.  0.
         24    2    5    5    0    0 -0.52762576340E+02 -0.95951575516E+00  0.76573435289E+02  0.12239561104E+03  0.79576280873E+02 0.  0.
          5    1    5    5  501    0  0.75422910237E+02 -0.24554045572E+02  0.89794508186E+02  0.11990271157E+03  0.47000000000E+01 0. -1.
        -13    1    6    6    0    0 -0.52567415715E+02  0.12207247435E+02  0.89133716886E+02  0.10419774264E+03  0.00000000000E+00 0.  1.
         14    1    6    6    0    0 -0.19516062496E+00 -0.13166763190E+02 -0.12560281598E+02  0.18197868403E+02  0.00000000000E+00 0. -1.
         -5    1    3    3    0  503 -0.24274184874E+01  0.41171806832E+02 -0.13137366457E+03  0.13777568646E+03  0.47000000000E+01 0.  1.
         11    1    4    4    0    0 -0.42631753831E+02  0.15027419876E+02 -0.13620888493E+02  0.47210363123E+02  0.00000000000E+00 0. -1.
        -12    1    4    4    0    0  0.22398838422E+02 -0.30685665381E+02  0.68367965442E+01  0.38601292848E+02  0.00000000000E+00 0.  1.
</event>
<event>
12    1  0.8219652E-002  0.1836921E+03  0.7818608E-02  0.1165196E+00
         21   -1    0    0  501  502  0.00000000000E+00  0.00000000000E+00  0.97561292345E+02  0.97561292345E+02  0.00000000000E+00 0.  1.
         21   -1    0    0  502  503 -0.00000000000E+00 -0.00000000000E+00 -0.33864350820E+03  0.33864350820E+03  0.00000000000E+00 0. -1.
         -6    2    1    2    0  503 -0.18216457063E+02  0.49946090357E+02 -0.12160128267E+03  0.22029446362E+03  0.17583039414E+03 0.  0.
        -24    2    3    3    0    0 -0.93530307232E+01  0.66559001282E+02 -0.15124642705E+03  0.18486179901E+03  0.82345753992E+02 0.  0.
          6    2    1    2  501    0  0.18216457063E+02 -0.49946090357E+02 -0.11948093319E+03  0.21591033693E+03  0.17179967680E+03 0.  0.
         24    2    5    5    0    0  0.24711153983E+02  0.33473921513E+02 -0.33242677973E+02  0.95659739710E+02  0.79464241078E+02 0.  0.
          5    1    5    5  501    0 -0.64946969197E+01 -0.83420011870E+02 -0.86238255217E+02  0.12025059722E+03  0.47000000000E+01 0. -1.
        -13    1    6    6    0    0 -0.16767884725E+02  0.15278020715E+02  0.16751003261E+02  0.28198864966E+02  0.00000000000E+00 0.  1.
         14    1    6    6    0    0  0.41479038708E+02  0.18195900798E+02 -0.49993681234E+02  0.67460874744E+02  0.00000000000E+00 0. -1.
         -5    1    3    3    0  503 -0.88634263396E+01 -0.16612910925E+02  0.29645144385E+02  0.35432664612E+02  0.47000000000E+01 0.  1.
         11    1    4    4    0    0 -0.16962846368E+02  0.84736834055E+02 -0.11894704825E+03  0.14702540424E+03  0.00000000000E+00 0. -1.
        -12    1    4    4    0    0  0.76098156445E+01 -0.18177832772E+02 -0.32299378800E+02  0.37836394772E+02  0.00000000000E+00 0.  1.
</event>
<event>
12    1  0.8219652E-002  0.2037968E+03  0.7818608E-02  0.1146946E+00
         21   -1    0    0  501  502  0.00000000000E+00  0.00000000000E+00  0.26349611974E+03  0.26349611974E+03  0.00000000000E+00 0.  1.
         21   -1    0    0  502  503 -0.00000000000E+00 -0.00000000000E+00 -0.17413482249E+03  0.17413482249E+03  0.00000000000E+00 0.  1.
         -6    2    1    2    0  503 -0.86494242903E+02  0.63017507222E+02  0.11465148451E+03  0.23227096269E+03  0.17132535405E+03 0.  0.
        -24    2    3    3    0    0 -0.12490820064E+03  0.60006858278E+02  0.76818502529E+02  0.17806652854E+03  0.81263304321E+02 0.  0.
          6    2    1    2  501    0  0.86494242903E+02 -0.63017507222E+02 -0.25290187254E+02  0.20535997954E+03  0.17343779101E+03 0.  0.
         24    2    5    5    0    0  0.59887618082E+02 -0.71577271566E+02 -0.77639265808E+02  0.14583101116E+03  0.80802200573E+02 0.  0.
          5    1    5    5  501    0  0.26606624821E+02  0.85597643442E+01  0.52349078554E+02  0.59528968372E+02  0.47000000000E+01 0. -1.
        -11    1    6    6    0    0  0.65060422402E+02 -0.38211342845E+02 -0.18428349639E+02  0.77669616682E+02  0.00000000000E+00 0.  1.
         12    1    6    6    0    0 -0.51728043208E+01 -0.33365928721E+02 -0.59210916169E+02  0.68161394481E+02  0.00000000000E+00 0. -1.
         -5    1    3    3    0  503  0.38413957737E+02  0.30106489434E+01  0.37832981981E+02  0.54204434151E+02  0.47000000000E+01 0.  1.
         11    1    4    4    0    0  0.10535809830E+02 -0.40580210072E+00 -0.98708696592E+00  0.10589726380E+02  0.00000000000E+00 0. -1.
        -12    1    4    4    0    0 -0.13544401047E+03  0.60412660379E+02  0.77805589495E+02  0.16747680216E+03  0.00000000000E+00 0.  1.
</event>
<event>
12    1  0.8219652E-002  0.2026452E+03  0.7818608E-02  0.1148303E+00
         21   -1    0    0  503  502  0.00000000000E+00  0.00000000000E+00  0.99833614876E+02  0.99833614876E+02  0.00000000000E+00 0.  1.
         21   -1    0    0  501  503 -0.00000000000E+00 -0.00000000000E+00 -0.59380193015E+03  0.59380193015E+03  0.00000000000E+00 0. -1.
          6    2    1    2  501    0 -0.10259030654E+03 -0.23694363408E+01 -0.44469108148E+03  0.48868725400E+03  0.17474177821E+03 0.  0.
         24    2    3    3    0    0 -0.37785839508E+02 -0.40941367590E+02 -0.11718480770E+03  0.15257735800E+03  0.80272073415E+02 0.  0.
         -6    2    1    2    0  502  0.10259030654E+03  0.23694363408E+01 -0.49277233796E+02  0.20494829102E+03  0.17042643867E+03 0.  0.
        -24    2    5    5    0    0  0.93782698558E+02 -0.57120748947E+02 -0.53637515645E+02  0.14446888823E+03  0.77047401474E+02 0.  0.
          5    1    3    3  501    0 -0.64804467032E+02  0.38571931249E+02 -0.32750627378E+03  0.33610989600E+03  0.47000000000E+01 0. -1.
        -13    1    4    4    0    0 -0.57783753818E+02 -0.48234297674E+02 -0.80828495490E+02  0.11044797581E+03  0.00000000000E+00 0.  1.
         14    1    4    4    0    0  0.19997914310E+02  0.72929300845E+01 -0.36356312209E+02  0.42129382186E+02  0.00000000000E+00 0. -1.
         -5    1    5    5    0  502  0.88076079821E+01  0.59490185288E+02  0.43602818493E+01  0.60479402790E+02  0.47000000000E+01 0.  1.
         11    1    6    6    0    0  0.80657178631E+02 -0.17945974747E+02 -0.60733861438E+02  0.10254872208E+03  0.00000000000E+00 0. -1.
        -12    1    6    6    0    0  0.13125519927E+02 -0.39174774201E+02  0.70963457936E+01  0.41920166157E+02  0.00000000000E+00 0.  1.
</event>
<event>
12    1  0.8219652E-002  0.1721629E+03  0.7818608E-02  0.1175811E+00
         21   -1    0    0  501  502  0.00000000000E+00  0.00000000000E+00  0.47370564040E+03  0.47370564040E+03  0.00000000000E+00 0. -1.
         21   -1    0    0  502  503 -0.00000000000E+00 -0.00000000000E+00 -0.62958015819E+02  0.62958015819E+02  0.00000000000E+00 0. -1.
         -6    2    1    2    0  503  0.40253074780E+01 -0.19054472940E+01  0.23351947132E+03  0.29012306818E+03  0.17210525087E+03 0.  0.
        -24    2    3    3    0    0 -0.55207533088E+02  0.33791764141E+02  0.12102355751E+03  0.15798586324E+03  0.78250089315E+02 0.  0.
          6    2    1    2  501    0 -0.40253074780E+01  0.19054472940E+01  0.17722815326E+03  0.24654058804E+03  0.17132603250E+03 0.  0.
         24    2    5    5    0    0  0.15898851215E+02  0.28624724886E+02  0.19141174476E+03  0.21001448556E+03  0.79971743561E+02 0.  0.
          5    1    5    5  501    0 -0.19924158693E+02 -0.26719277592E+02 -0.14183591496E+02  0.36526102480E+02  0.47000000000E+01 0. -1.
        -13    1    6    6    0    0  0.35640440614E+01  0.59392106931E+01 -0.70480321566E+01  0.98818718373E+01  0.00000000000E+00 0.  1.
         14    1    6    6    0    0  0.12334807154E+02  0.22685514193E+02  0.19845977691E+03  0.20013261372E+03  0.00000000000E+00 0. -1.
         -5    1    3    3    0  503  0.59232840566E+02 -0.35697211434E+02  0.11249591380E+03  0.13213720494E+03  0.47000000000E+01 0.  1.
         11    1    4    4    0    0 -0.67067854740E+02  0.29819868798E+02  0.57490917623E+02  0.93233724176E+02  0.00000000000E+00 0. -1.
        -12    1    4    4    0    0  0.11860321652E+02  0.39718953425E+01  0.63532639890E+02  0.64752139067E+02  0.00000000000E+00 0.  1.
</event>
<event>
12    1  0.8219652E-002  0.2546836E+03  0.7818608E-02  0.1110576E+00
         21   -1    0    0  501  502  0.00000000000E+00  0.00000000000E+00  0.15653434946E+03  0.15653434946E+03  0.00000000000E+00 0.  1.
         21   -1    0    0  502  503 -0.00000000000E+00 -0.00000000000E+00 -0.43259666713E+03  0.43259666713E+03  0.00000000000E+00 0.  1.
         -6    2    1    2    0  503  0.18680223578E+03 -0.12977805578E+02 -0.74583440828E+02  0.26537977367E+03  0.17262744826E+03 0.  0.
        -24    2    3    3    0    0  0.35499602659E+02 -0.41555641162E+02 -0.91056613751E+01  0.97992172336E+02  0.80823633107E+02 0.  0.
          6    2    1    2  501    0 -0.18680223578E+03  0.12977805578E+02 -0.20147887685E+03  0.32375124292E+03  0.17075605624E+03 0.  0.
         24    2    5    5    0    0 -0.20161324211E+03 -0.18060758911E+02 -0.18374571869E+03  0.28477287338E+03  0.79743400156E+02 0.  0.
          5    1    5    5  501    0  0.14811006325E+02  0.31038564489E+02 -0.17733158163E+02  0.38978369545E+02  0.47000000000E+01 0. -1.
        -13    1    6    6    0    0 -0.18311517862E+03  0.28612774921E+01 -0.13125632839E+03  0.22531662010E+03  0.00000000000E+00 0.  1.
         14    1    6    6    0    0 -0.18498063488E+02 -0.20922036404E+02 -0.52489390292E+02  0.59456253273E+02  0.00000000000E+00 0. -1.
         -5    1    3    3    0  503  0.15130263313E+03  0.28577835584E+02 -0.65477779453E+02  0.16738760133E+03  0.47000000000E+01 0.  1.
         11    1    4    4    0    0  0.24491943012E+02 -0.23920982752E+02 -0.44981935091E+02  0.56528251104E+02  0.00000000000E+00 0. -1.
        -12    1    4    4    0    0  0.11007659646E+02 -0.17634658410E+02  0.35876273716E+02  0.41463921232E+02  0.00000000000E+00 0.  1.
</event>
<event>
12    1  0.8219652E-002  0.3151233E+03  0.7818608E-02  0.1077990E+00
         21   -1    0    0  501  502  0.00000000000E+00  0.00000000000E+00  0.38503652090E+03  0.38503652090E+03  0.00000000000E+00 0.  1.
         21   -1    0    0  502  503 -0.00000000000E+00 -0.00000000000E+00 -0.32549187559E+03  0.32549187559E+03  0.00000000000E+00 0. -1.
         -6    2    1    2    0  503 -0.14058814105E+03 -0.22686794161E+03 -0.13275254263E+03  0.34136595455E+03  0.16635320561E+03 0.  0.
        -24    2    3    3    0    0 -0.71992604368E+02 -0.82702908728E+02 -0.12076008807E+03  0.18119475450E+03  0.78903954231E+02 0.  0.
          6    2    1    2  501    0  0.14058814105E+03  0.22686794161E+03  0.19229718794E+03  0.36916244193E+03  0.16753689657E+03 0.  0.
         24    2    5    5    0    0  0.59247867786E+02  0.34864610177E+02  0.82453584729E+02  0.13343118286E+03  0.79242892715E+02 0.  0.
          5    1    5    5  501    0  0.81340273263E+02  0.19200333144E+03  0.10984360321E+03  0.23573125907E+03  0.47000000000E+01 0. -1.
        -13    1    6    6    0    0  0.56510534979E+01  0.49120149034E+02  0.39241255231E+02  0.63123684611E+02  0.00000000000E+00 0.  1.
         14    1    6    6    0    0  0.53596814288E+02 -0.14255538857E+02  0.43212329498E+02  0.70307498253E+02  0.00000000000E+00 0. -1.
         -5    1    3    3    0  503 -0.68595536681E+02 -0.14416503288E+03 -0.11992454565E+02  0.16017120005E+03  0.47000000000E+01 0.  1.
         11    1    4    4    0    0 -0.56977765028E+02 -0.92845436583E+02 -0.75774361115E+02  0.13269700300E+03  0.00000000000E+00 0. -1.
        -12    1    4    4    0    0 -0.15014839339E+02  0.10142527855E+02 -0.44985726952E+02  0.48497751505E+02  0.00000000000E+00 0.  1.
</event>
<event>
12    1  0.8219652E-002  0.1808954E+03  0.7818608E-02  0.1166986E+00
         21   -1    0    0  503  502  0.00000000000E+00  0.00000000000E+00  0.16599522260E+03  0.16599522260E+03  0.00000000000E+00 0. -1.
         21   -1    0    0  501  503 -0.00000000000E+00 -0.00000000000E+00 -0.19926548863E+03  0.19926548863E+03  0.00000000000E+00 0. -1.
          6    2    1    2  501    0 -0.55055545448E+02  0.12338434806E+02  0.31830301660E+01  0.18072893680E+03  0.17166673195E+03 0.  0.
         24    2    3    3    0    0 -0.85093314388E+02  0.36239178908E+01 -0.42777060235E+02  0.12493798523E+03  0.80781299420E+02 0.  0.
         -6    2    1    2    0  502  0.55055545448E+02 -0.12338434806E+02 -0.36453296198E+02  0.18453177443E+03  0.17187141389E+03 0.  0.
        -24    2    5    5    0    0 -0.78564369746E+01  0.11029833495E+02 -0.72865567921E+02  0.10803382003E+03  0.78603654194E+02 0.  0.
          5    1    3    3  501    0  0.30037768939E+02  0.87145169148E+01  0.45960090402E+02  0.55790951575E+02  0.47000000000E+01 0. -1.
        -13    1    4    4    0    0 -0.72954350122E+02 -0.86138407111E+01  0.55091247502E+01  0.73667400586E+02  0.00000000000E+00 0.  1.
         14    1    4    4    0    0 -0.12138964265E+02  0.12237758602E+02 -0.48286184986E+02  0.51270584642E+02  0.00000000000E+00 0. -1.
         -5    1    5    5    0  502  0.62911982423E+02 -0.23368268300E+02  0.36412271723E+02  0.76497954403E+02  0.47000000000E+01 0.  1.
         11    1    6    6    0    0 -0.30754050652E+02 -0.21858028091E+02 -0.47276800534E+02  0.60487030777E+02  0.00000000000E+00 0. -1.
        -12    1    6    6    0    0  0.22897613677E+02  0.32887861585E+02 -0.25588767387E+02  0.47546789252E+02  0.00000000000E+00 0.  1.
</event>
<event>
12    1  0.8219652E-002  0.2808711E+03  0.7818608E-02  0.1095418E+00
         21   -1    0    0  503  502  0.00000000000E+00  0.00000000000E+00  0.21370256884E+03  0.21370256884E+03  0.00000000000E+00 0. -1.
         21   -1    0    0  501  503 -0.00000000000E+00 -0.00000000000E+00 -0.37487065146E+03  0.37487065146E+03  0.00000000000E+00 0. -1.
          6    2    1    2  501    0  0.19501719547E+03  0.10168993698E+03 -0.38659397035E+02  0.28351914844E+03  0.17468831886E+03 0.  0.
         24    2    3    3    0    0  0.13367043690E+03  0.13281768061E+03 -0.18398025324E+01  0.20535180392E+03  0.81594463772E+02 0.  0.
         -6    2    1    2    0  502 -0.19501719547E+03 -0.10168993698E+03 -0.12250868558E+03  0.30505407186E+03  0.17227030767E+03 0.  0.
        -24    2    5    5    0    0 -0.40991748852E+02 -0.85680755213E+02 -0.70779796572E+02  0.14171975194E+03  0.77802269881E+02 0.  0.
          5    1    3    3  501    0  0.61346758571E+02 -0.31127743631E+02 -0.36819594502E+02  0.78167344524E+02  0.47000000000E+01 0. -1.
        -13    1    4    4    0    0  0.27570429797E+02  0.91572831169E+01 -0.27974040493E+02  0.40330278635E+02  0.00000000000E+00 0.  1.
         14    1    4    4    0    0  0.10610000710E+03  0.12366039749E+03  0.26134237960E+02  0.16502152528E+03  0.00000000000E+00 0. -1.
         -5    1    5    5    0  502 -0.15402544661E+03 -0.16009181763E+02 -0.51728889009E+02  0.16333431992E+03  0.47000000000E+01 0.  1.
         13    1    6    6    0    0 -0.49573579213E+02 -0.18049659411E+02 -0.43165667845E+02  0.68166009428E+02  0.00000000000E+00 0. -1.
        -14    1    6    6    0    0  0.85818303615E+01 -0.67631095802E+02 -0.27614128727E+02  0.73553742509E+02  0.00000000000E+00 0.  1.
</event>
<event>
12    1  0.8219652E-002  0.2045878E+03  0.7818608E-02  0.1145980E+00
         21   -1    0    0  503  502  0.00000000000E+00  0.00000000000E+00  0.57696059560E+02  0.57696059560E+02  0.00000000000E+00 0.  1.
         21   -1    0    0  501  503 -0.00000000000E+00 -0.00000000000E+00 -0.73786209668E+03  0.73786209668E+03  0.00000000000E+00 0. -1.
          6    2    1    2  501    0 -0.24566468246E+02 -0.10727242299E+03 -0.39338977056E+03  0.44328442194E+03  0.17214727141E+03 0.  0.
         24    2    3    3    0    0  0.23029575204E+02 -0.20756224724E+02 -0.27996993970E+03  0.29282983095E+03  0.80030997512E+02 0.  0.
         -6    2    1    2    0  502  0.24566468246E+02  0.10727242299E+03 -0.28677626656E+03  0.35227373430E+03  0.17246817886E+03 0.  0.
        -24    2    5    5    0    0  0.18165676530E+02  0.16987995418E+02 -0.23252432449E+03  0.24664413989E+03  0.78403995249E+02 0.  0.
          5    1    3    3  501    0 -0.47596043450E+02 -0.86516198270E+02 -0.11341983086E+03  0.15045459098E+03  0.47000000000E+01 0. -1.
        -13    1    4    4    0    0 -0.10413404836E+02 -0.28082508782E+02 -0.37682990953E+02  0.48135995959E+02  0.00000000000E+00 0.  1.
         14    1    4    4    0    0  0.33442980040E+02  0.73262840583E+01 -0.24228694874E+03  0.24469383499E+03  0.00000000000E+00 0. -1.
         -5    1    5    5    0  502  0.64007917162E+01  0.90284427577E+02 -0.54251942072E+02  0.10562959441E+03  0.47000000000E+01 0.  1.
         11    1    6    6    0    0  0.31338863557E+02  0.93110874285E+01 -0.32702518487E+02  0.46241490391E+02  0.00000000000E+00 0. -1.
        -12    1    6    6    0    0 -0.13173187027E+02  0.76769079892E+01 -0.19982180600E+03  0.20040264950E+03  0.00000000000E+00 0.  1.
</event>
<event>
12    1  0.8219652E-002  0.1833762E+03  0.7818608E-02  0.1164882E+00
         21   -1    0    0  503  502  0.00000000000E+00  0.00000000000E+00  0.10010807376E+03  0.10010807376E+03  0.00000000000E+00 0. -1.
         21   -1    0    0  501  503 -0.00000000000E+00 -0.00000000000E+00 -0.41571488269E+03  0.41571488269E+03  0.00000000000E+00 0. -1.
          6    2    1    2  501    0  0.62446858907E+02  0.18810502230E+02 -0.43583266094E+02  0.18848429528E+03  0.17138664855E+03 0.  0.
         24    2    3    3    0    0  0.87946624003E+02  0.46869601998E+02 -0.66737658001E+02  0.14381028758E+03  0.79348065838E+02 0.  0.
         -6    2    1    2    0  502 -0.62446858907E+02 -0.18810502230E+02 -0.27202354284E+03  0.32733866117E+03  0.17000101780E+03 0.  0.
        -24    2    5    5    0    0 -0.80651816806E+02  0.36487201045E+02 -0.15809254351E+03  0.19930890256E+03  0.83034661037E+02 0.  0.
          5    1    3    3  501    0 -0.25499765096E+02 -0.28059099768E+02  0.23154391907E+02  0.44674007704E+02  0.47000000000E+01 0. -1.
        -11    1    4    4    0    0 -0.55971948069E+01  0.32413382548E+01  0.12239820421E+02  0.13843701360E+02  0.00000000000E+00 0.  1.
         12    1    4    4    0    0  0.93543818810E+02  0.43628263743E+02 -0.78977478422E+02  0.12996658622E+03  0.00000000000E+00 0. -1.
         -5    1    5    5    0  502  0.18204957899E+02 -0.55297703275E+02 -0.11393099933E+03  0.12802975860E+03  0.47000000000E+01 0.  1.
         13    1    6    6    0    0 -0.94179316705E+01 -0.94375013233E+01  0.60000777195E+01  0.14620697686E+02  0.00000000000E+00 0. -1.
        -14    1    6    6    0    0 -0.71233885135E+02  0.45924702368E+02 -0.16409262123E+03  0.18468820488E+03  0.00000000000E+00 0.  1.
</event>
<event>
12    1  0.8219652E-002  0.2164823E+03  0.7818608E-02  0.1136650E+00
         21   -1    0    0  503  502  0.00000000000E+00  0.00000000000E+00  0.27279308468E+03  0.27279308468E+03  0.00000000000E+00 0. -1.
         21   -1    0    0  501  503 -0.00000000000E+00 -0.00000000000E+00 -0.17344879056E+03  0.17344879056E+03  0.00000000000E+00 0. -1.
          6    2    1    2  501    0 -0.11793802646E+03 -0.56238279700E+02  0.74530135052E+02  0.22895270326E+03  0.17260497418E+03 0.  0.
         24    2    3    3    0    0 -0.61291467894E+02  0.36420751036E+02  0.35495463561E+02  0.11345238225E+03  0.80798514608E+02 0.  0.
         -6    2    1    2    0  502  0.11793802646E+03  0.56238279700E+02  0.24814159059E+02  0.21728917198E+03  0.17183340648E+03 0.  0.
        -24    2    5    5    0    0  0.10786244087E+03  0.83036978621E+01 -0.36437287535E+02  0.13872027692E+03  0.78818663769E+02 0.  0.
          5    1    3    3  501    0 -0.56646558566E+02 -0.92659030736E+02  0.39034671490E+02  0.11550032101E+03  0.47000000000E+01 0. -1.
        -13    1    4    4    0    0  0.10256283595E+02  0.34500645280E+02  0.87165032914E+01  0.37033272979E+02  0.00000000000E+00 0.  1.
         14    1    4    4    0    0 -0.71547751488E+02  0.19201057564E+01  0.26778960270E+02  0.76419109274E+02  0.00000000000E+00 0. -1.
         -5    1    5    5    0  502  0.10075585594E+02  0.47934581838E+02  0.61251446594E+02  0.78568895059E+02  0.47000000000E+01 0.  1.
         13    1    6    6    0    0  0.20555315568E+02  0.10380150896E+02 -0.45423818163E+02  0.50927318673E+02  0.00000000000E+00 0. -1.
        -14    1    6    6    0    0  0.87307125299E+02 -0.20764530337E+01  0.89865306287E+01  0.87792958248E+02  0.00000000000E+00 0.  1.
</event>
<event>
12    1  0.8219652E-002  0.1895121E+03  0.7818608E-02  0.1159572E+00
         21   -1    0    0  503  502  0.00000000000E+00  0.00000000000E+00  0.31506071138E+02  0.31506071138E+02  0.00000000000E+00 0. -1.
         21   -1    0    0  501  503 -0.00000000000E+00 -0.00000000000E+00 -0.11855191503E+04  0.11855191503E+04  0.00000000000E+00 0. -1.
          6    2    1    2  501    0  0.39645344490E+02 -0.64462512863E+02 -0.43226781774E+03  0.47081409426E+03  0.17053819570E+03 0.  0.
         24    2    3    3    0    0 -0.11270975640E+02 -0.29054904775E+02 -0.94180001155E+02  0.12705308412E+03  0.79381302483E+02 0.  0.
         -6    2    1    2    0  502 -0.39645344490E+02  0.64462512863E+02 -0.72174526139E+03  0.74621112715E+03  0.17374594970E+03 0.  0.
        -24    2    5    5    0    0 -0.29819214351E+02  0.74627545405E+02 -0.72169125767E+03  0.73131234745E+03  0.86723826387E+02 0.  0.
          5    1    3    3  501    0  0.50916320130E+02 -0.35407608088E+02 -0.33808781659E+03  0.34376101014E+03  0.47000000000E+01 0. -1.
        -11    1    4    4    0    0  0.32366551400E+02 -0.16542550433E+02 -0.24303788501E+02  0.43725550424E+02  0.00000000000E+00 0.  1.
         12    1    4    4    0    0 -0.43637527040E+02 -0.12512354341E+02 -0.69876212654E+02  0.83327533697E+02  0.00000000000E+00 0. -1.
         -5    1    5    5    0  502 -0.98261301390E+01 -0.10165032542E+02 -0.54003722239E-01  0.14898779698E+02  0.47000000000E+01 0.  1.
         11    1    6    6    0    0  0.28684774708E+02  0.31839516656E+02 -0.35054436793E+03  0.35315425101E+03  0.00000000000E+00 0. -1.
        -12    1    6    6    0    0 -0.58503989059E+02  0.42788028749E+02 -0.37114688974E+03  0.37815809644E+03  0.00000000000E+00 0.  1.
</event>
<event>
12    1  0.8219652E-002  0.1789788E+03  0.7818608E-02  0.1168922E+00
         21   -1    0    0  501  502  0.00000000000E+00  0.00000000000E+00  0.15467600905E+03  0.15467600905E+03  0.00000000000E+00 0.  1.
         21   -1    0    0  502  503 -0.00000000000E+00 -0.00000000000E+00 -0.25742609949E+03  0.25742609949E+03  0.00000000000E+00 0.  1.
         -6    2    1    2    0  503  0.45246786025E+02 -0.16727967768E+02 -0.14308346186E+03  0.22914250440E+03  0.17235519636E+03 0.  0.
        -24    2    3    3    0    0  0.55045090307E+02  0.25806941021E+02 -0.15454930759E+03  0.18376871404E+03  0.78673322116E+02 0.  0.
          6    2    1    2  501    0 -0.45246786025E+02  0.16727967768E+02  0.40333371419E+02  0.18295960414E+03  0.17181484030E+03 0.  0.
         24    2    5    5    0    0  0.13183795126E+02 -0.40102025054E+02 -0.38487001868E+01  0.90126817106E+02  0.79536443226E+02 0.  0.
          5    1    5    5  501    0 -0.58430581150E+02  0.56829992822E+02  0.44182071606E+02  0.92832787037E+02  0.47000000000E+01 0. -1.
        -11    1    6    6    0    0 -0.26953693627E+02 -0.38291552172E+02  0.95163123925E+01  0.47783938404E+02  0.00000000000E+00 0.  1.
         12    1    6    6    0    0  0.40137488753E+02 -0.18104728822E+01 -0.13365012579E+02  0.42342878701E+02  0.00000000000E+00 0. -1.
         -5    1    3    3    0  503 -0.97983042825E+01 -0.42534908789E+02  0.11465845735E+02  0.45373790352E+02  0.47000000000E+01 0.  1.
         13    1    4    4    0    0  0.54696102477E+02 -0.13341409594E+02 -0.64731842979E+02  0.85789674971E+02  0.00000000000E+00 0. -1.
        -14    1    4    4    0    0  0.34898782974E+00  0.39148350615E+02 -0.89817464612E+02  0.97979039073E+02  0.00000000000E+00 0.  1.
</event>
<event>
12    1  0.8219652E-002  0.1868041E+03  0.7818608E-02  0.1162857E+00
         21   -1    0    0  503  502  0.00000000000E+00  0.00000000000E+00  0.84519727235E+02  0.84519727235E+02  0.00000000000E+00 0. -1.
         21   -1    0    0  501  503 -0.00000000000E+00 -0.00000000000E+00 -0.41979437509E+03  0.41979437509E+03  0.00000000000E+00 0. -1.
          6    2    1    2  501    0  0.45559243615E+02 -0.31893850097E+02 -0.22095508646E+03  0.28530555278E+03  0.17171268404E+03 0.  0.
         24    2    3    3    0    0  0.74046569572E+02 -0.78455212684E+01 -0.22176240987E+03  0.24772109281E+03  0.81502924630E+02 0.  0.
         -6    2    1    2    0  502 -0.45559243615E+02  0.31893850097E+02 -0.11431956140E+03  0.21900854955E+03  0.17833373294E+03 0.  0.
        -24    2    5    5    0    0 -0.87376683562E+02  0.10850915565E+02 -0.92326013021E+02  0.16707292066E+03  0.10787419033E+03 0.  0.
          5    1    3    3  501    0 -0.28487325957E+02 -0.24048328829E+02  0.80732341382E+00  0.37584459964E+02  0.47000000000E+01 0. -1.
        -11    1    4    4    0    0 -0.90556308139E+01 -0.12979388640E+01 -0.98462539247E+02  0.98886605411E+02  0.00000000000E+00 0.  1.
         12    1    4    4    0    0  0.83102200386E+02 -0.65475824043E+01 -0.12329987062E+03  0.14883448740E+03  0.00000000000E+00 0. -1.
         -5    1    5    5    0  502  0.41817439946E+02  0.21042934533E+02 -0.21993548374E+02  0.51935628883E+02  0.47000000000E+01 0.  1.
         13    1    6    6    0    0 -0.76448224994E+02  0.54540718545E+02 -0.67461371909E+02  0.11562896603E+03  0.00000000000E+00 0. -1.
        -14    1    6    6    0    0 -0.10928458568E+02 -0.43689802981E+02 -0.24864641112E+02  0.51443954638E+02  0.00000000000E+00 0.  1.
</event>
<event>
12    1  0.8219652E-002  0.1972044E+03  0.7818608E-02  0.1152231E+00
         21   -1    0    0  503  502  0.00000000000E+00  0.00000000000E+00  0.34283430988E+03  0.34283430988E+03  0.00000000000E+00 0.  1.
         21   -1    0    0  501  503 -0.00000000000E+00 -0.00000000000E+00 -0.14440547748E+03  0.14440547748E+03  0.00000000000E+00 0.  1.
          6    2    1    2  501    0 -0.95086950269E+02 -0.17201164760E+02 -0.14254212297E+02  0.19719899222E+03  0.17130922854E+03 0.  0.
         24    2    3    3    0    0 -0.15418968335E+02  0.45486607562E+02 -0.16978890671E+02  0.95679250215E+02  0.80990494141E+02 0.  0.
         -6    2    1    2    0  502  0.95086950269E+02  0.17201164760E+02  0.21268304469E+03  0.29004079514E+03  0.17190746688E+03 0.  0.
        -24    2    5    5    0    0  0.80242402193E+02  0.16655147949E+02  0.46019858042E+02  0.12265093128E+03  0.78798391770E+02 0.  0.
          5    1    3    3  501    0 -0.79667981935E+02 -0.62687772323E+02  0.27246783734E+01  0.10151974200E+03  0.47000000000E+01 0. -1.
        -13    1    4    4    0    0 -0.48063616990E+01 -0.11900349423E+02 -0.32792599895E+02  0.35214684963E+02  0.00000000000E+00 0.  1.
         14    1    4    4    0    0 -0.10612606636E+02  0.57386956985E+02  0.15813709225E+02  0.60464565252E+02  0.00000000000E+00 0. -1.
         -5    1    5    5    0  502  0.14844548076E+02  0.54601681104E+00  0.16666318665E+03  0.16738986387E+03  0.47000000000E+01 0.  1.
         11    1    6    6    0    0  0.29504299266E+01  0.21271101649E+02 -0.13167900763E+02  0.25190442882E+02  0.00000000000E+00 0. -1.
        -12    1    6    6    0    0  0.77291972267E+02 -0.46159536999E+01  0.59187758804E+02  0.97460488393E+02  0.00000000000E+00 0.  1.
</event>
<event>
12    1  0.8219652E-002  0.2249484E+03  0.7818608E-02  0.1130306E+00
         21   -1    0    0  501  502  0.00000000000E+00  0.00000000000E+00  0.96101282574E+03  0.96101282574E+03  0.00000000000E+00 0. -1.
         21   -1    0    0  502  503 -0.00000000000E+00 -0.00000000000E+00 -0.58191792962E+02  0.58191792962E+02  0.00000000000E+00 0.  1.
         -6    2    1    2    0  503 -0.10123943448E+03 -0.10274430038E+03  0.60939358552E+03  0.64947305021E+03  0.17218852029E+03 0.  0.
        -24    2    3    3    0    0 -0.13651251836E+03 -0.85166958819E+02  0.44119555046E+03  0.47665574094E+03  0.81597200243E+02 0.  0.
          6    2    1    2  501    0  0.10123943448E+03  0.10274430038E+03  0.29342744726E+03  0.36973156849E+03  0.17261503869E+03 0.  0.
         24    2    5    5    0    0  0.83481566942E+02  0.81918340240E+02  0.98204785996E+02  0.17254373939E+03  0.80295551086E+02 0.  0.
          5    1    5    5  501    0  0.17757867539E+02  0.20825960141E+02  0.19522266126E+03  0.19718782910E+03  0.47000000000E+01 0. -1.
        -13    1    6    6    0    0  0.20851956863E+02  0.66828695149E+02  0.78487561743E+02  0.10517212534E+03  0.00000000000E+00 0.  1.
         14    1    6    6    0    0  0.62629610079E+02  0.15089645091E+02  0.19717224253E+02  0.67371614051E+02  0.00000000000E+00 0. -1.
         -5    1    3    3    0  503  0.35273083879E+02 -0.17577341562E+02  0.16819803506E+03  0.17281730926E+03  0.47000000000E+01 0.  1.
         13    1    4    4    0    0 -0.84307452757E+02 -0.94341215084E+01  0.25931388129E+03  0.27283775081E+03  0.00000000000E+00 0. -1.
        -14    1    4    4    0    0 -0.52205065602E+02 -0.75732837311E+02  0.18188166917E+03  0.20381799013E+03  0.00000000000E+00 0.  1.
</event>
<event>
12    1  0.8219652E-002  0.1910870E+03  0.7818608E-02  0.1159224E+00
         21   -1    0    0  503  502  0.00000000000E+00  0.00000000000E+00  0.53992796829E+03  0.53992796829E+03  0.00000000000E+00 0. -1.
         21   -1    0    0  501  503 -0.00000000000E+00 -0.00000000000E+00 -0.84937885436E+02  0.84937885436E+02  0.00000000000E+00 0. -1.
          6    2    1    2  501    0  0.64652889920E+02 -0.27873674420E+02  0.79540655099E+02  0.20698061328E+03  0.17764380248E+03 0.  0.
         24    2    3    3    0    0  0.90149077105E+02 -0.56591686091E+02  0.97236348776E+02  0.16443643237E+03  0.79088290717E+02 0.  0.
         -6    2    1    2    0  502 -0.64652889920E+02  0.27873674420E+02  0.37544942776E+03  0.41788524044E+03  0.16943690117E+03 0.  0.
        -24    2    5    5    0    0 -0.30489181379E+02  0.23022625481E+02  0.37236618859E+03  0.38292400447E+03  0.80712968786E+02 0.  0.
          5    1    3    3  501    0 -0.25496187185E+02  0.28718011671E+02 -0.17695693676E+02  0.42544180918E+02  0.47000000000E+01 0. -1.
        -13    1    4    4    0    0  0.83164500705E+02 -0.17058219689E+02  0.89855843156E+02  0.12361791774E+03  0.00000000000E+00 0.  1.
         14    1    4    4    0    0  0.69845764000E+01 -0.39533466402E+02  0.73805056193E+01  0.40818514628E+02  0.00000000000E+00 0. -1.
         -5    1    5    5    0  502 -0.34163708540E+02  0.48510489391E+01  0.30832391674E+01  0.34961235973E+02  0.47000000000E+01 0.  1.
         11    1    6    6    0    0 -0.68141549206E+01 -0.28458757019E+02  0.81613993506E+02  0.86701657968E+02  0.00000000000E+00 0. -1.
        -12    1    6    6    0    0 -0.23675026459E+02  0.51481382500E+02  0.29075219508E+03  0.29622234650E+03  0.00000000000E+00 0.  1.
</event>
<event>
12    1  0.8219652E-002  0.1780546E+03  0.7818608E-02  0.1169939E+00
         21   -1    0    0  503  502  0.00000000000E+00  0.00000000000E+00  0.30240587132E+02  0.30240587132E+02  0.00000000000E+00 0. -1.
         21   -1    0    0  501  503 -0.00000000000E+00 -0.00000000000E+00 -0.10793000674E+04  0.10793000674E+04  0.00000000000E+00 0. -1.
          6    2    1    2  501    0 -0.13798527704E+02  0.39927291109E+02 -0.42091079685E+03  0.45664386674E+03  0.17196841042E+03 0.  0.
         24    2    3    3    0    0  0.31992826704E+02 -0.28951461010E+02 -0.25185747985E+03  0.26838275918E+03  0.82069404836E+02 0.  0.
         -6    2    1    2    0  502  0.13798527704E+02 -0.39927291109E+02 -0.62814868344E+03  0.65289678782E+03  0.17297068854E+03 0.  0.
        -24    2    5    5    0    0 -0.59065359586E+02 -0.15085159457E+02 -0.33095191081E+03  0.34585560290E+03  0.79816364535E+02 0.  0.
          5    1    3    3  501    0 -0.45791354408E+02  0.68878752120E+02 -0.16905331700E+03  0.18826110756E+03  0.47000000000E+01 0. -1.
        -13    1    4    4    0    0 -0.60292820959E+01 -0.37090714906E+02 -0.20036508807E+03  0.20385838686E+03  0.00000000000E+00 0.  1.
         14    1    4    4    0    0  0.38022108800E+02  0.81392538962E+01 -0.51492391780E+02  0.64524372316E+02  0.00000000000E+00 0. -1.
         -5    1    5    5    0  502  0.72863887291E+02 -0.24842131652E+02 -0.29719677263E+03  0.30704118492E+03  0.47000000000E+01 0.  1.
         13    1    6    6    0    0 -0.54347112681E+02 -0.13608893085E+02 -0.33488442421E+03  0.33953849297E+03  0.00000000000E+00 0. -1.
        -14    1    6    6    0    0 -0.47182469054E+01 -0.14762663727E+01  0.39325133982E+01  0.63171099319E+01  0.00000000000E+00 0.  1.
</event>
<event>
12    1  0.8219652E-002  0.1771239E+03  0.7818608E-02  0.1170702E+00
         21   -1    0    0  503  502  0.00000000000E+00  0.00000000000E+00  0.22541380768E+03  0.22541380768E+03  0.00000000000E+00 0. -1.
         21   -1    0    0  501  503 -0.00000000000E+00 -0.00000000000E+00 -0.13892021106E+03  0.13892021106E+03  0.00000000000E+00 0. -1.
          6    2    1    2  501    0  0.39824937263E+02 -0.18565143656E+01  0.41343108889E+02  0.18188492585E+03  0.17257868155E+03 0.  0.
         24    2    3    3    0    0  0.35584486192E+02  0.38695851787E+02 -0.28755540342E+02  0.10065447313E+03  0.80875319211E+02 0.  0.
         -6    2    1    2    0  502 -0.39824937263E+02  0.18565143656E+01  0.45150487725E+02  0.18244909289E+03  0.17221972210E+03 0.  0.
        -24    2    5    5    0    0 -0.81374817252E+02 -0.36067282668E+02  0.28197082588E+02  0.12350747046E+03  0.80847449131E+02 0.  0.
          5    1    3    3  501    0  0.42404510714E+01 -0.40552366152E+02  0.70098649231E+02  0.81230452725E+02  0.47000000000E+01 0. -1.
        -11    1    4    4    0    0 -0.20419677770E+02  0.31245776430E+02 -0.23049368470E+02  0.43869524408E+02  0.00000000000E+00 0.  1.
         12    1    4    4    0    0  0.56004163961E+02  0.74500753569E+01 -0.57061718719E+01  0.56784948721E+02  0.00000000000E+00 0. -1.
         -5    1    5    5    0  502  0.41549879989E+02  0.37923797034E+02  0.16953405137E+02  0.58941622427E+02  0.47000000000E+01 0.  1.
         11    1    6    6    0    0 -0.45852838851E+02 -0.50532330348E+02  0.44891221682E+02  0.81677542968E+02  0.00000000000E+00 0. -1.
        -12    1    6    6    0    0 -0.35521978401E+02  0.14465047680E+02 -0.16694139094E+02  0.41829927492E+02  0.00000000000E+00 0.  1.
</event>
<event>
12    1  0.8219652E-002  0.2249865E+03  0.7818608E-02  0.1130545E+00
         21   -1    0    0  503  502  0.00000000000E+00  0.00000000000E+00  0.17653428042E+03  0.17653428042E+03  0.00000000000E+00 0.  1.
         21   -1    0    0  501  503 -0.00000000000E+00 -0.00000000000E+00 -0.47291582090E+03  0.47291582090E+03  0.00000000000E+00 0.  1.
          6    2    1    2  501    0 -0.67871700791E+02 -0.12688307893E+03 -0.35282286896E+03  0.41749200418E+03  0.17061568864E+03 0.  0.
         24    2    3    3    0    0 -0.49703637408E+02 -0.65039909625E+02 -0.32942164866E+03  0.34875800075E+03  0.80080453721E+02 0.  0.
         -6    2    1    2    0  502  0.67871700791E+02  0.12688307893E+03  0.56441328482E+02  0.23195809714E+03  0.17295390074E+03 0.  0.
        -24    2    5    5    0    0  0.51747273729E+02 -0.13788426452E+01  0.17568044282E+02  0.96886486883E+02  0.79991709665E+02 0.  0.
          5    1    3    3  501    0 -0.18168063383E+02 -0.61843169302E+02 -0.23401220303E+02  0.68734003434E+02  0.47000000000E+01 0. -1.
        -13    1    4    4    0    0 -0.11096380164E+02 -0.41022095962E+02 -0.27303797912E+03  0.27632531562E+03  0.00000000000E+00 0.  1.
         14    1    4    4    0    0 -0.38607257244E+02 -0.24017813663E+02 -0.56383669539E+02  0.72432685134E+02  0.00000000000E+00 0. -1.
         -5    1    5    5    0  502  0.16124427062E+02  0.12826192157E+03  0.38873284201E+02  0.13507161026E+03  0.47000000000E+01 0.  1.
         13    1    6    6    0    0  0.54007480571E+02 -0.31880086963E+02  0.20935268576E+02  0.66116816112E+02  0.00000000000E+00 0. -1.
        -14    1    6    6    0    0 -0.22602068426E+01  0.30501244318E+02 -0.33672242942E+01  0.30769670771E+02  0.00000000000E+00 0.  1.
</event>
<event>
12    1  0.8219652E-002  0.2208532E+03  0.7818608E-02  0.1133704E+00
         21   -1    0    0  503  502  0.00000000000E+00  0.00000000000E+00  0.12493536915E+03  0.12493536915E+03  0.00000000000E+00 0.  1.
         21   -1    0    0  501  503 -0.00000000000E+00 -0.00000000000E+00 -0.39561609365E+03  0.39561609365E+03  0.00000000000E+00 0.  1.
          6    2    1    2  501    0  0.12840727644E+03 -0.50405445626E+02 -0.17642925001E+03  0.28267189201E+03  0.17247313032E+03 0.  0.
         24    2    3    3    0    0  0.10755693665E+03 -0.53513465336E+01 -0.55422189813E+02  0.15179253102E+03  0.91499846016E+02 0.  0.
         -6    2    1    2    0  502 -0.12840727644E+03  0.50405445626E+02 -0.94251474493E+02  0.23787957079E+03  0.16933461596E+03 0.  0.
        -24    2    5    5    0    0 -0.58973746644E+02  0.53823083654E+02  0.89725664498E+01  0.11334046874E+03  0.79942027613E+02 0.  0.
          5    1    3    3  501    0  0.20850339797E+02 -0.45054099092E+02 -0.12100706020E+03  0.13087936099E+03  0.47000000000E+01 0. -1.
        -11    1    4    4    0    0  0.95838977839E+02 -0.22156011752E+02 -0.74813209663E+02  0.12358403971E+03  0.00000000000E+00 0.  1.
         12    1    4    4    0    0  0.11717958807E+02  0.16804665218E+02  0.19391019850E+02  0.28208491319E+02  0.00000000000E+00 0. -1.
         -5    1    5    5    0  502 -0.69433529799E+02 -0.34176380285E+01 -0.10322404094E+03  0.12453910205E+03  0.47000000000E+01 0.  1.
         11    1    6    6    0    0  0.15155853584E+02  0.32482270133E+02  0.29808004764E+01  0.35967804247E+02  0.00000000000E+00 0. -1.
        -12    1    6    6    0    0 -0.74129600228E+02  0.21340813521E+02  0.59917659734E+01  0.77372664496E+02  0.00000000000E+00 0.  1.
</event>
<event>
12    1  0.8219652E-002  0.3716435E+03  0.7818608E-02  0.1054135E+00
         21   -1    0    0  501  502  0.00000000000E+00  0.00000000000E+00  0.68493863341E+03  0.68493863341E+03  0.00000000000E+00 0. -1.
         21   -1    0    0  502  503 -0.00000000000E+00 -0.00000000000E+00 -0.66996743188E+03  0.66996743188E+03  0.00000000000E+00 0.  1.
         -6    2    1    2    0  503  0.24758093195E+03  0.21810009050E+03 -0.55915286050E+03  0.67099281816E+03  0.16945640524E+03 0.  0.
        -24    2    3    3    0    0  0.26557532268E+03  0.21463310891E+03 -0.54230860612E+03  0.64566226418E+03  0.78635307970E+02 0.  0.
          6    2    1    2  501    0 -0.24758093195E+03 -0.21810009050E+03  0.57412406203E+03  0.68391324713E+03  0.17104070761E+03 0.  0.
         24    2    5    5    0    0 -0.25107350070E+03 -0.23460251219E+03  0.53638147750E+03  0.64230650915E+03  0.82318411189E+02 0.  0.
          5    1    5    5  501    0  0.34925687503E+01  0.16502421686E+02  0.37742584527E+02  0.41606737973E+02  0.47000000000E+01 0. -1.
        -11    1    6    6    0    0 -0.30897848393E+02 -0.93739847282E+01  0.92945134449E+02  0.98393834374E+02  0.00000000000E+00 0.  1.
         12    1    6    6    0    0 -0.22017565230E+03 -0.22522852746E+03  0.44343634305E+03  0.54391267478E+03  0.00000000000E+00 0. -1.
         -5    1    3    3    0  503 -0.17994390735E+02  0.34669815907E+01 -0.16844254384E+02  0.25330553982E+02  0.47000000000E+01 0.  1.
         13    1    4    4    0    0  0.45006262104E+02  0.43443779228E+02 -0.16363380966E+03  0.17518261685E+03  0.00000000000E+00 0. -1.
        -14    1    4    4    0    0  0.22056906058E+03  0.17118932969E+03 -0.37867479646E+03  0.47047964734E+03  0.00000000000E+00 0.  1.
</event>
<event>
12    1  0.8219652E-002  0.1961194E+03  0.7818608E-02  0.1153797E+00
         21   -1    0    0  503  502  0.00000000000E+00  0.00000000000E+00  0.15337709807E+03  0.15337709807E+03  0.00000000000E+00 0.  1.
         21   -1    0    0  501  503 -0.00000000000E+00 -0.00000000000E+00 -0.41614853116E+03  0.41614853116E+03  0.00000000000E+00 0.  1.
          6    2    1    2  501    0  0.91471385475E+02  0.10983068622E+02  0.51135480969E+02  0.19939000635E+03  0.16927461435E+03 0.  0.
         24    2    3    3    0    0  0.25989877236E+02 -0.39074726645E+02  0.67736802417E+02  0.11518012177E+03  0.80472840557E+02 0.  0.
         -6    2    1    2    0  502 -0.91471385475E+02 -0.10983068622E+02 -0.31390691406E+03  0.37013562288E+03  0.17313343546E+03 0.  0.
        -24    2    5    5    0    0 -0.81218035835E+02 -0.72134394221E+02 -0.17737471584E+03  0.22010980193E+03  0.72019406491E+02 0.  0.
          5    1    3    3  501    0  0.65481508239E+02  0.50057795267E+02 -0.16601321449E+02  0.84209884587E+02  0.47000000000E+01 0. -1.
        -13    1    4    4    0    0  0.39935716579E+02 -0.60274916103E+01  0.21737661924E+01  0.40446475412E+02  0.00000000000E+00 0.  1.
         14    1    4    4    0    0 -0.13945839343E+02 -0.33047235034E+02  0.65563036225E+02  0.74733646354E+02  0.00000000000E+00 0. -1.
         -5    1    5    5    0  502 -0.10253349641E+02  0.61151325599E+02 -0.13653219822E+03  0.15002582095E+03  0.47000000000E+01 0.  1.
         13    1    6    6    0    0  0.12835212027E+02 -0.43766933050E+01 -0.27273165100E+02  0.30458556214E+02  0.00000000000E+00 0. -1.
        -14    1    6    6    0    0 -0.94053247862E+02 -0.67757700916E+02 -0.15010155074E+03  0.18965124571E+03  0.00000000000E+00 0.  1.
</event>
<event>
12    1  0.8219652E-002  0.3845499E+03  0.7818608E-02  0.1049308E+00
         21   -1    0    0  503  502  0.00000000000E+00  0.00000000000E+00  0.40738829984E+03  0.40738829984E+03  0.00000000000E+00 0. -1.
         21   -1    0    0  501  503 -0.00000000000E+00 -0.00000000000E+00 -0.48626132030E+03  0.48626132030E+03  0.00000000000E+00 0.  1.
          6    2    1    2  501    0 -0.10124072088E+03 -0.32894794416E+03 -0.26483650829E+03  0.46692286927E+03  0.17152887859E+03 0.  0.
         24    2    3    3    0    0 -0.73008105679E+02 -0.33719083838E+03 -0.23552840293E+03  0.42513673632E+03  0.78992221174E+02 0.  0.
         -6    2    1    2    0  502  0.10124072088E+03  0.32894794416E+03  0.18596348784E+03  0.42672675087E+03  0.17046075082E+03 0.  0.
        -24    2    5    5    0    0  0.12464204621E+03  0.27617502476E+03  0.19348372754E+03  0.36832086886E+03  0.80100097567E+02 0.  0.
          5    1    3    3  501    0 -0.28232615206E+02  0.82428942203E+01 -0.29308105366E+02  0.41786132947E+02  0.47000000000E+01 0. -1.
        -11    1    4    4    0    0  0.74194806438E+01 -0.85310214931E+02 -0.31808915199E+02  0.91349266832E+02  0.00000000000E+00 0.  1.
         12    1    4    4    0    0 -0.80427586323E+02 -0.25188062345E+03 -0.20371948773E+03  0.33378746949E+03  0.00000000000E+00 0. -1.
         -5    1    5    5    0  502 -0.23401325321E+02  0.52772919399E+02 -0.75202397006E+01  0.58405882014E+02  0.47000000000E+01 0.  1.
         11    1    6    6    0    0  0.27125546764E+02  0.85043936800E+02  0.17845236702E+02  0.91031417360E+02  0.00000000000E+00 0. -1.
        -12    1    6    6    0    0  0.97516499441E+02  0.19113108796E+03  0.17563849084E+03  0.27728945150E+03  0.00000000000E+00 0.  1.
</event>
<event>
12    1  0.8219652E-002  0.1832971E+03  0.7818608E-02  0.1164786E+00
         21   -1    0    0  503  502  0.00000000000E+00  0.00000000000E+00  0.35051777920E+03  0.35051777920E+03  0.00000000000E+00 0.  1.
         21   -1    0    0  501  503 -0.00000000000E+00 -0.00000000000E+00 -0.24301624836E+03  0.24301624836E+03  0.00000000000E+00 0.  1.
          6    2    1    2  501    0  0.43245922390E+02  0.44825091646E+02 -0.17745782464E+03  0.25471301561E+03  0.17177875931E+03 0.  0.
         24    2    3    3    0    0  0.50432601462E+02  0.16716465283E+02 -0.19690660912E+03  0.21946974037E+03  0.81067050784E+02 0.  0.
         -6    2    1    2    0  502 -0.43245922390E+02 -0.44825091646E+02  0.28495935549E+03  0.33882101195E+03  0.17239009605E+03 0.  0.
        -24    2    5    5    0    0  0.29047085132E+02 -0.54458743228E+02  0.10875693288E+03  0.14806339110E+03  0.79279312978E+02 0.  0.
          5    1    3    3  501    0 -0.71866790725E+01  0.28108626364E+02  0.19448784473E+02  0.35243275240E+02  0.47000000000E+01 0. -1.
        -13    1    4    4    0    0  0.31621392373E+02  0.10896111366E+02 -0.15266672524E+02  0.36765595173E+02  0.00000000000E+00 0.  1.
         14    1    4    4    0    0  0.18811209090E+02  0.58203539171E+01 -0.18163993659E+03  0.18270414520E+03  0.00000000000E+00 0. -1.
         -5    1    5    5    0  502 -0.72293007522E+02  0.96336515814E+01  0.17620242261E+03  0.19075762085E+03  0.47000000000E+01 0.  1.
         13    1    6    6    0    0  0.28054248658E+02 -0.24524649744E+01  0.73571758869E+00  0.28170848985E+02  0.00000000000E+00 0. -1.
        -14    1    6    6    0    0  0.99283647473E+00 -0.52006278253E+02  0.10802121529E+03  0.11989254211E+03  0.00000000000E+00 0.  1.
</event>
<event>
12    1  0.8219652E-002  0.2001388E+03  0.7818608E-02  0.1150083E+00
         21   -1    0    0  501  502  0.00000000000E+00  0.00000000000E+00  0.25252943951E+03  0.25252943951E+03  0.00000000000E+00 0.  1.
         21   -1    0    0  502  503 -0.00000000000E+00 -0.00000000000E+00 -0.34039129352E+03  0.34039129352E+03  0.00000000000E+00 0. -1.
         -6    2    1    2    0  503 -0.89475603989E+02 -0.43678585761E+02 -0.26170546815E+03  0.32946214085E+03  0.17361407671E+03 0.  0.
        -24    2    3    3    0    0 -0.10126461702E+03 -0.32699287601E+02 -0.27500930769E+03  0.30804700688E+03  0.89101476186E+02 0.  0.
          6    2    1    2  501    0  0.89475603989E+02  0.43678585761E+02  0.17384361414E+03  0.26345859218E+03  0.17109975177E+03 0.  0.
         24    2    5    5    0    0  0.42804819540E+02 -0.41985278914E+02  0.61154640869E+02  0.11433664702E+03  0.75749340136E+02 0.  0.
          5    1    5    5  501    0  0.46670784448E+02  0.85663864674E+02  0.11268897327E+03  0.14912194516E+03  0.47000000000E+01 0. -1.
        -11    1    6    6    0    0  0.53486733342E+02 -0.50518793097E+02  0.66961306852E+02  0.99482640269E+02  0.00000000000E+00 0.  1.
         12    1    6    6    0    0 -0.10681913801E+02  0.85335141838E+01 -0.58066659829E+01  0.14854006753E+02  0.00000000000E+00 0. -1.
         -5    1    3    3    0  503  0.11789013034E+02 -0.10979298160E+02  0.13303839544E+02  0.21415133971E+02  0.47000000000E+01 0.  1.
         11    1    4    4    0    0 -0.79757438659E+02 -0.52203210344E+02 -0.13626012675E+03  0.16629265268E+03  0.00000000000E+00 0. -1.
        -12    1    4    4    0    0 -0.21507178364E+02  0.19503922743E+02 -0.13874918094E+03  0.14175435420E+03  0.00000000000E+00 0.  1.
</event>
<event>
12    1  0.8219652E-002  0.1958301E+03  0.7818608E-02  0.1153658E+00
         21   -1    0    0  503  502  0.00000000000E+00  0.00000000000E+00  0.21103654371E+03  0.21103654371E+03  0.00000000000E+00 0.  1.
         21   -1    0    0  501  503 -0.00000000000E+00 -0.00000000000E+00 -0.20004667139E+03  0.20004667139E+03  0.00000000000E+00 0.  1.
          6    2    1    2  501    0  0.58750597519E+02 -0.71019874404E+02  0.70224075474E+02  0.20804048865E+03  0.17278301095E+03 0.  0.
         24    2    3    3    0    0  0.73178456465E+02 -0.35380390288E+02 -0.11207251035E+02  0.11786573122E+03  0.84616012740E+02 0.  0.
         -6    2    1    2    0  502 -0.58750597519E+02  0.71019874404E+02 -0.59234203159E+02  0.20304272645E+03  0.17094502821E+03 0.  0.
        -24    2    5    5    0    0  0.11126783562E+02  0.85925218859E+02 -0.13693831476E+02  0.11818382513E+03  0.79201937814E+02 0.  0.
          5    1    3    3  501    0 -0.14427858946E+02 -0.35639484116E+02  0.81431326509E+02  0.90174757437E+02  0.47000000000E+01 0. -1.
        -11    1    4    4    0    0  0.27438714067E+02 -0.39605679979E+02 -0.40874262644E+02  0.63183844952E+02  0.00000000000E+00 0.  1.
         12    1    4    4    0    0  0.45739742398E+02  0.42252896912E+01  0.29667011609E+02  0.54681886264E+02  0.00000000000E+00 0. -1.
         -5    1    5    5    0  502 -0.69877381081E+02 -0.14905344455E+02 -0.45540371683E+02  0.84858901319E+02  0.47000000000E+01 0.  1.
         11    1    6    6    0    0  0.31254485330E+02  0.24128708128E+01 -0.61925517541E+01  0.31953286154E+02  0.00000000000E+00 0. -1.
        -12    1    6    6    0    0 -0.20127701768E+02  0.83512348046E+02 -0.75012797217E+01  0.86230538976E+02  0.00000000000E+00 0.  1.
</event>
<event>
12    1  0.8219652E-002  0.1912492E+03  0.7818608E-02  0.1157499E+00
         21   -1    0    0  503  502  0.00000000000E+00  0.00000000000E+00  0.30352171616E+02  0.30352171616E+02  0.00000000000E+00 0. -1.
         21   -1    0    0  501  503 -0.00000000000E+00 -0.00000000000E+00 -0.12224715112E+04  0.12224715112E+04  0.00000000000E+00 0.  1.
          6    2    1    2  501    0  0.40931897994E+00  0.84633343488E+02 -0.67881199353E+03  0.70504573740E+03  0.17070676290E+03 0.  0.
         24    2    3    3    0    0  0.97616255118E+01 -0.18521349540E+02 -0.38954434073E+03  0.39775723894E+03  0.77638250969E+02 0.  0.
         -6    2    1    2    0  502 -0.40931897994E+00 -0.84633343488E+02 -0.51330734608E+03  0.54777794543E+03  0.17150299005E+03 0.  0.
        -24    2    5    5    0    0 -0.62631645420E+02 -0.57225410574E+02 -0.24740361281E+03  0.27327895079E+03  0.79217212094E+02 0.  0.
          5    1    3    3  501    0 -0.93523065319E+01  0.10315469303E+03 -0.28926765280E+03  0.30728849846E+03  0.47000000000E+01 0. -1.
        -13    1    4    4    0    0 -0.18576060828E+02 -0.29633189088E+02 -0.88225126652E+02  0.94904525204E+02  0.00000000000E+00 0.  1.
         14    1    4    4    0    0  0.28337686340E+02  0.11111839548E+02 -0.30131921408E+03  0.30285271374E+03  0.00000000000E+00 0. -1.
         -5    1    5    5    0  502  0.62222326440E+02 -0.27407932913E+02 -0.26590373327E+03  0.27449899465E+03  0.47000000000E+01 0.  1.
         11    1    6    6    0    0 -0.57874529303E+02 -0.56302535062E+02 -0.11351220930E+03  0.13929988607E+03  0.00000000000E+00 0. -1.
        -12    1    6    6    0    0 -0.47571161167E+01 -0.92287551164E+00 -0.13389140350E+03  0.13397906472E+03  0.00000000000E+00 0.  1.
</event>
<event>
12    1  0.8219652E-002  0.1745074E+03  0.7818608E-02  0.1173561E+00
         21   -1    0    0  501  502  0.00000000000E+00  0.00000000000E+00  0.13790590599E+03  0.13790590599E+03  0.00000000000E+00 0. -1.
         21   -1    0    0  502  503 -0.00000000000E+00 -0.00000000000E+00 -0.21993855012E+03  0.21993855012E+03  0.00000000000E+00 0. -1.
         -6    2    1    2    0  503 -0.13632316080E+01 -0.32974586667E+02 -0.30508115849E+02  0.17715412810E+03  0.17135827439E+03 0.  0.
        -24    2    3    3    0    0 -0.68031568236E+01 -0.42990948614E+02 -0.83063315668E+02  0.12317210034E+03  0.79858295036E+02 0.  0.
          6    2    1    2  501    0  0.13632316080E+01  0.32974586667E+02 -0.51524528275E+02  0.18069032802E+03  0.17001481070E+03 0.  0.
         24    2    5    5    0    0 -0.29381720729E+02  0.65649689934E+02  0.67018730895E+01  0.10703356809E+03  0.78981657951E+02 0.  0.
          5    1    5    5  501    0  0.30744952337E+02 -0.32675103267E+02 -0.58226401365E+02  0.73656759931E+02  0.47000000000E+01 0. -1.
        -11    1    6    6    0    0  0.21098402540E+02  0.42275871944E+02 -0.11269827681E+02  0.48573665235E+02  0.00000000000E+00 0.  1.
         12    1    6    6    0    0 -0.50480123269E+02  0.23373817990E+02  0.17971700770E+02  0.58459902850E+02  0.00000000000E+00 0. -1.
         -5    1    3    3    0  503  0.54399252156E+01  0.10016361947E+02  0.52555199819E+02  0.53982027759E+02  0.47000000000E+01 0.  1.
         13    1    4    4    0    0  0.32639885660E+02 -0.19616710706E+02 -0.61897047412E+02  0.72673392333E+02  0.00000000000E+00 0. -1.
        -14    1    4    4    0    0 -0.39443042484E+02 -0.23374237908E+02 -0.21166268256E+02  0.50498708003E+02  0.00000000000E+00 0.  1.
</event>
<event>
12    1  0.8219652E-002  0.2349246E+03  0.7818608E-02  0.1123369E+00
         21   -1    0    0  501  502  0.00000000000E+00  0.00000000000E+00  0.59928094194E+03  0.59928094194E+03  0.00000000000E+00 0. -1.
         21   -1    0    0  502  503 -0.00000000000E+00 -0.00000000000E+00 -0.19378259312E+03  0.19378259312E+03  0.00000000000E+00 0.  1.
         -6    2    1    2    0  503  0.12550557636E+03 -0.98525349134E+02 -0.85152612109E+02  0.24907095779E+03  0.17124976072E+03 0.  0.
        -24    2    3    3    0    0  0.85822112805E+02  0.23450360206E+01 -0.77805542717E+02  0.14032500931E+03  0.79161048006E+02 0.  0.
          6    2    1    2  501    0 -0.12550557636E+03  0.98525349134E+02  0.49065096093E+03  0.54399257726E+03  0.17242582330E+03 0.  0.
         24    2    5    5    0    0 -0.72193191307E+02  0.28116862483E+02  0.12296473862E+03  0.16581958316E+03  0.79833529232E+02 0.  0.
          5    1    5    5  501    0 -0.53312385049E+02  0.70408486652E+02  0.36768622231E+03  0.37817299410E+03  0.47000000000E+01 0. -1.
        -13    1    6    6    0    0 -0.36870385801E+01  0.40492804598E+02  0.35064808674E+02  0.53691733861E+02  0.00000000000E+00 0.  1.
         14    1    6    6    0    0 -0.68506152726E+02 -0.12375942115E+02  0.87899929942E+02  0.11212784930E+03  0.00000000000E+00 0. -1.
         -5    1    3    3    0  503  0.39683463550E+02 -0.10087038516E+03 -0.73470693915E+01  0.10874594847E+03  0.47000000000E+01 0.  1.
         11    1    4    4    0    0  0.35994433755E+02 -0.11108022973E+02 -0.80254228295E+02  0.88655110371E+02  0.00000000000E+00 0. -1.
        -12    1    4    4    0    0  0.49827679050E+02  0.13453058993E+02  0.24486855775E+01  0.51669898944E+02  0.00000000000E+00 0.  1.
</event>
<event>
12    1  0.8219652E-002  0.2394328E+03  0.7818608E-02  0.1120545E+00
         21   -1    0    0  501  502  0.00000000000E+00  0.00000000000E+00  0.71572219231E+03  0.71572219231E+03  0.00000000000E+00 0.  1.
         21   -1    0    0  502  503 -0.00000000000E+00 -0.00000000000E+00 -0.38959919195E+03  0.38959919195E+03  0.00000000000E+00 0.  1.
         -6    2    1    2    0  503  0.15795926466E+03 -0.42368833099E+02 -0.32995778227E+03  0.40767661883E+03  0.17487664267E+03 0.  0.
        -24    2    3    3    0    0  0.18641312685E+03 -0.19672008632E+02 -0.27478446750E+03  0.34141235413E+03  0.76935363697E+02 0.  0.
          6    2    1    2  501    0 -0.15795926466E+03  0.42368833099E+02  0.65608078264E+03  0.69764476542E+03  0.17181378892E+03 0.  0.
         24    2    5    5    0    0 -0.24809925026E+02  0.21455312105E+02  0.13868594768E+03  0.16296203030E+03  0.79037765883E+02 0.  0.
          5    1    5    5  501    0 -0.13314933964E+03  0.20913520994E+02  0.51739483495E+03  0.53468273513E+03  0.47000000000E+01 0. -1.
        -11    1    6    6    0    0  0.96334712298E+01 -0.25114547300E+02  0.54465745194E+02  0.60745877667E+02  0.00000000000E+00 0.  1.
         12    1    6    6    0    0 -0.34443396256E+02  0.46569859406E+02  0.84220202489E+02  0.10221615263E+03  0.00000000000E+00 0. -1.
         -5    1    3    3    0  503 -0.28453862186E+02 -0.22696824467E+02 -0.55173314768E+02  0.66264264703E+02  0.47000000000E+01 0.  1.
         13    1    4    4    0    0  0.85809725936E+02 -0.46335632149E+02 -0.11583023129E+03  0.15141645338E+03  0.00000000000E+00 0. -1.
        -14    1    4    4    0    0  0.10060340091E+03  0.26663623517E+02 -0.15895423621E+03  0.18999590075E+03  0.00000000000E+00 0.  1.
</event>
<event>
12    1  0.8219652E-002  0.2075449E+03  0.7818608E-02  0.1143528E+00
         21   -1    0    0  501  502  0.00000000000E+00  0.00000000000E+00  0.36572619820E+03  0.36572619820E+03  0.00000000000E+00 0. -1.
         21   -1    0    0  502  503 -0.00000000000E+00 -0.00000000000E+00 -0.12055034789E+03  0.12055034789E+03  0.00000000000E+00 0.  1.
         -6    2    1    2    0  503  0.94499463784E+02 -0.67133120406E+02  0.85664136333E+02  0.22452886418E+03  0.17215650463E+03 0.  0.
        -24    2    3    3    0    0  0.12587892092E+03 -0.19776894881E+02  0.54627826029E+02  0.15962412642E+03  0.79114057260E+02 0.  0.
          6    2    1    2  501    0 -0.94499463784E+02  0.67133120406E+02  0.15951171397E+03  0.26174768191E+03  0.17213616000E+03 0.  0.
         24    2    5    5    0    0 -0.47770050822E+00 -0.32972780337E+01  0.89930424212E+02  0.12513077637E+03  0.86943255955E+02 0.  0.
          5    1    5    5  501    0 -0.94021763275E+02  0.70430398440E+02  0.69581289760E+02  0.13661690554E+03  0.47000000000E+01 0. -1.
        -11    1    6    6    0    0  0.36156504348E+02  0.17584414142E+02  0.23865175659E+02  0.46755224699E+02  0.00000000000E+00 0.  1.
         12    1    6    6    0    0 -0.36634204856E+02 -0.20881692176E+02  0.66065248553E+02  0.78375551673E+02  0.00000000000E+00 0. -1.
         -5    1    3    3    0  503 -0.31379457138E+02 -0.47356225525E+02  0.31036310303E+02  0.64904737759E+02  0.47000000000E+01 0.  1.
         13    1    4    4    0    0  0.70254922650E+02  0.26391866804E+02  0.12876918535E+02  0.76145254750E+02  0.00000000000E+00 0. -1.
        -14    1    4    4    0    0  0.55623998272E+02 -0.46168761685E+02  0.41750907495E+02  0.83478871674E+02  0.00000000000E+00 0.  1.
</event>
<event>
12    1  0.8219652E-002  0.3974907E+03  0.7818608E-02  0.1044724E+00
         21   -1    0    0  503  502  0.00000000000E+00  0.00000000000E+00  0.10461525412E+03  0.10461525412E+03  0.00000000000E+00 0.  1.
         21   -1    0    0  501  503 -0.00000000000E+00 -0.00000000000E+00 -0.15139961299E+04  0.15139961299E+04  0.00000000000E+00 0. -1.
          6    2    1    2  501    0  0.41583946932E+02  0.35604089570E+03 -0.75835856649E+03  0.85583428316E+03  0.16985364524E+03 0.  0.
         24    2    3    3    0    0  0.45518392497E+02  0.12744220533E+03 -0.20749897567E+03  0.25939382519E+03  0.76914835289E+02 0.  0.
         -6    2    1    2    0  502 -0.41583946932E+02 -0.35604089570E+03 -0.65102230932E+03  0.76277710090E+03  0.17176878171E+03 0.  0.
        -24    2    5    5    0    0 -0.19764253634E+02 -0.35602358580E+03 -0.64182824395E+03  0.73863750369E+03  0.80612950367E+02 0.  0.
          5    1    3    3  501    0 -0.39344455642E+01  0.22859869038E+03 -0.55085959082E+03  0.59644045797E+03  0.47000000000E+01 0. -1.
        -11    1    4    4    0    0  0.32752195643E+02  0.13120824829E+03 -0.15720570974E+03  0.20736910550E+03  0.00000000000E+00 0.  1.
         12    1    4    4    0    0  0.12766196853E+02 -0.37660429586E+01 -0.50293265923E+02  0.52024719691E+02  0.00000000000E+00 0. -1.
         -5    1    5    5    0  502 -0.21819693299E+02 -0.17309899156E-01 -0.91940653777E+01  0.24139597210E+02  0.47000000000E+01 0.  1.
         11    1    6    6    0    0 -0.47847691488E+02 -0.16481040634E+03 -0.27929437536E+03  0.32780668042E+03  0.00000000000E+00 0. -1.
        -12    1    6    6    0    0  0.28083437854E+02 -0.19121317946E+03 -0.36253386858E+03  0.41083082327E+03  0.00000000000E+00 0.  1.
</event>
<event>
12    1  0.8219652E-002  0.2086948E+03  0.7818608E-02  0.1144105E+00
         21   -1    0    0  501  502  0.00000000000E+00  0.00000000000E+00  0.23134454012E+04  0.23134454012E+04  0.00000000000E+00 0.  1.
         21   -1    0    0  502  503 -0.00000000000E+00 -0.00000000000E+00 -0.25305506534E+02  0.25305506534E+02  0.00000000000E+00 0.  1.
         -6    2    1    2    0  503 -0.10153408287E+03  0.16030188759E+02  0.53782282218E+03  0.57689419867E+03  0.18162431408E+03 0.  0.
        -24    2    3    3    0    0 -0.21369131793E+02 -0.63155958738E+01  0.44195791134E+03  0.44985906730E+03  0.80931196023E+02 0.  0.
          6    2    1    2  501    0  0.10153408287E+03 -0.16030188759E+02  0.17503170725E+04  0.17618567091E+04  0.17309844627E+03 0.  0.
         24    2    5    5    0    0  0.26976583285E+01  0.37509770341E+02  0.75740409132E+03  0.76259025601E+03  0.80428109370E+02 0.  0.
          5    1    5    5  501    0  0.98836424542E+02 -0.53539959100E+02  0.99291298120E+03  0.99926645309E+03  0.47000000000E+01 0. -1.
        -11    1    6    6    0    0  0.32443893774E+02 -0.52118193270E+01  0.19169191454E+03  0.19448794154E+03  0.00000000000E+00 0.  1.
         12    1    6    6    0    0 -0.29746235446E+02  0.42721589668E+02  0.56571217678E+03  0.56810231447E+03  0.00000000000E+00 0. -1.
         -5    1    3    3    0  503 -0.80164951077E+02  0.22345784632E+02  0.95864910837E+02  0.12703513137E+03  0.47000000000E+01 0.  1.
         11    1    4    4    0    0 -0.82383731969E+01  0.37280115998E+02  0.18500041434E+03  0.18889899721E+03  0.00000000000E+00 0. -1.
        -12    1    4    4    0    0 -0.13130758596E+02 -0.43595711872E+02  0.25695749700E+03  0.26096007009E+03  0.00000000000E+00 0.  1.
</event>
<event>
12    1  0.8219652E-002  0.1839363E+03  0.7818608E-02  0.1164445E+00
         21   -1    0    0  501  502  0.00000000000E+00  0.00000000000E+00  0.12033923417E+03  0.12033923417E+03  0.00000000000E+00 0. -1.
         21   -1    0    0  502  503 -0.00000000000E+00 -0.00000000000E+00 -0.32427706402E+03  0.32427706402E+03  0.00000000000E+00 0. -1.
         -6    2    1    2    0  503 -0.63688536578E+02  0.11981337752E+02 -0.18582908406E+03  0.26146701851E+03  0.17214171819E+03 0.  0.
        -24    2    3    3    0    0 -0.33976497810E+02  0.43488012222E+02 -0.19401111888E+03  0.21714420861E+03  0.80409473762E+02 0.  0.
          6    2    1    2  501    0  0.63688536578E+02 -0.11981337752E+02 -0.18108745791E+02  0.18314927969E+03  0.17034068754E+03 0.  0.
         24    2    5    5    0    0  0.30027780219E+02 -0.72278682706E+02 -0.12025642628E+01  0.11189813723E+03  0.79961687056E+02 0.  0.
          5    1    5    5  501    0  0.33660756359E+02  0.60297344955E+02 -0.16906181528E+02  0.71251142455E+02  0.47000000000E+01 0. -1.
        -13    1    6    6    0    0 -0.79172389098E+01  0.11145399007E+02  0.13342344459E+02  0.19102898907E+02  0.00000000000E+00 0.  1.
         14    1    6    6    0    0  0.37945019129E+02 -0.83424081713E+02 -0.14544908722E+02  0.92795238327E+02  0.00000000000E+00 0. -1.
         -5    1    3    3    0  503 -0.29712038768E+02 -0.31506674471E+02  0.81820348237E+01  0.44322809905E+02  0.47000000000E+01 0.  1.
         11    1    4    4    0    0 -0.19055406481E+02  0.57363521971E+02 -0.74636604949E+02  0.96043245299E+02  0.00000000000E+00 0. -1.
        -12    1    4    4    0    0 -0.14921091328E+02 -0.13875509749E+02 -0.11937451393E+03  0.12110096331E+03  0.00000000000E+00 0.  1.
</event>
<event>
12    1  0.8219652E-002  0.1720342E+03  0.7818608E-02  0.1178505E+00
         21   -1    0    0  503  502  0.00000000000E+00  0.00000000000E+00  0.21906111993E+03  0.21906111993E+03  0.00000000000E+00 0.  1.
         21   -1    0    0  501  503 -0.00000000000E+00 -0.00000000000E+00 -0.12951584414E+03  0.12951584414E+03  0.00000000000E+00 0.  1.
          6    2    1    2  501    0 -0.10173566862E+02 -0.44299279839E+01  0.22121657287E+02  0.17345062185E+03  0.17167592951E+03 0.  0.
         24    2    3    3    0    0 -0.30353034021E+02  0.49159457705E+02  0.48277198281E+02  0.11032190035E+03  0.80636684377E+02 0.  0.
         -6    2    1    2    0  502  0.10173566862E+02  0.44299279839E+01  0.67423618503E+02  0.17512634223E+03  0.16124566874E+03 0.  0.
        -24    2    5    5    0    0 -0.42287545315E+02  0.26830124941E+02  0.65919019927E+02  0.11786998074E+03  0.83904249460E+02 0.  0.
          5    1    3    3  501    0  0.20179467160E+02 -0.53589385688E+02 -0.26155540994E+02  0.63128721498E+02  0.47000000000E+01 0. -1.
        -13    1    4    4    0    0 -0.50077320357E+02  0.17357768961E+02  0.49996343075E+02  0.72860582473E+02  0.00000000000E+00 0.  1.
         14    1    4    4    0    0  0.19724286336E+02  0.31801688744E+02 -0.17191447938E+01  0.37461317879E+02  0.00000000000E+00 0. -1.
         -5    1    5    5    0  502  0.52461112176E+02 -0.22400196957E+02  0.15045985753E+01  0.57256361493E+02  0.47000000000E+01 0.  1.
         13    1    6    6    0    0  0.10896608743E+02  0.13032217649E+02 -0.13221286149E+02  0.21526197676E+02  0.00000000000E+00 0. -1.
        -14    1    6    6    0    0 -0.53184154058E+02  0.13797907292E+02  0.79140306076E+02  0.96343783060E+02  0.00000000000E+00 0.  1.
</event>
<event>
12    1  0.8219652E-002  0.1901419E+03  0.7818608E-02  0.1158505E+00
         21   -1    0    0  503  502  0.00000000000E+00  0.00000000000E+00  0.24323254914E+03  0.24323254914E+03  0.00000000000E+00 0. -1.
         21   -1    0    0  501  503 -0.00000000000E+00 -0.00000000000E+00 -0.20890756743E+03  0.20890756743E+03  0.00000000000E+00 0. -1.
          6    2    1    2  501    0  0.28515824839E+02  0.74120947650E+02 -0.10483500445E+03  0.21712744718E+03  0.17276250466E+03 0.  0.
         24    2    3    3    0    0  0.54898750780E+02  0.90498889659E+02 -0.12253349087E+03  0.18107717413E+03  0.81059020090E+02 0.  0.
         -6    2    1    2    0  502 -0.28515824839E+02 -0.74120947650E+02  0.13915998615E+03  0.23501266939E+03  0.17192552423E+03 0.  0.
        -24    2    5    5    0    0 -0.43553702281E+02 -0.11367888810E+03  0.12054316840E+03  0.18854069597E+03  0.78721814043E+02 0.  0.
          5    1    3    3  501    0 -0.26382925941E+02 -0.16377942009E+02  0.17698486424E+02  0.36050273055E+02  0.47000000000E+01 0. -1.
        -11    1    4    4    0    0 -0.46626434939E+01 -0.67828496526E+01  0.52698624445E+01  0.97733691194E+01  0.00000000000E+00 0.  1.
         12    1    4    4    0    0  0.59561394274E+02  0.97281739312E+02 -0.12780335331E+03  0.17130380501E+03  0.00000000000E+00 0. -1.
         -5    1    5    5    0  502  0.15037877442E+02  0.39557940449E+02  0.18616817743E+02  0.46471973418E+02  0.47000000000E+01 0.  1.
         11    1    6    6    0    0  0.58041221038E+01 -0.76313110759E+02  0.93915078027E+02  0.12115040482E+03  0.00000000000E+00 0. -1.
        -12    1    6    6    0    0 -0.49357824385E+02 -0.37365777340E+02  0.26628090378E+02  0.67390291151E+02  0.00000000000E+00 0.  1.
</event>
<event>
12    1  0.8219652E-002  0.1765062E+03  0.7818608E-02  0.1171744E+00
         21   -1    0    0  503  502  0.00000000000E+00  0.00000000000E+00  0.75198593901E+03  0.75198593901E+03  0.00000000000E+00 0.  1.
         21   -1    0    0  501  503 -0.00000000000E+00 -0.00000000000E+00 -0.43676269903E+02  0.43676269903E+02  0.00000000000E+00 0.  1.
          6    2    1    2  501    0  0.32904484499E+02  0.13532974621E+02  0.25272502683E+03  0.30708078851E+03  0.17077126510E+03 0.  0.
         24    2    3    3    0    0 -0.29515107689E+02  0.18114298177E+01  0.60332965664E+02  0.10442246694E+03  0.79934735860E+02 0.  0.
         -6    2    1    2    0  502 -0.32904484499E+02 -0.13532974621E+02  0.45558464228E+03  0.48858142040E+03  0.17288317321E+03 0.  0.
        -24    2    5    5    0    0  0.29005895491E+01  0.55772520600E+02  0.23742141363E+03  0.25684333693E+03  0.80502078255E+02 0.  0.
          5    1    3    3  501    0  0.62419592188E+02  0.11721544803E+02  0.19239206116E+03  0.20265832157E+03  0.47000000000E+01 0. -1.
        -13    1    4    4    0    0  0.24183689585E+01  0.13892126005E+02 -0.15683547178E+02  0.21090598035E+02  0.00000000000E+00 0.  1.
         14    1    4    4    0    0 -0.31933476647E+02 -0.12080696188E+02  0.76016512843E+02  0.83331868909E+02  0.00000000000E+00 0. -1.
         -5    1    5    5    0  502 -0.35805074048E+02 -0.69305495220E+02  0.21816322865E+03  0.23173808347E+03  0.47000000000E+01 0.  1.
         11    1    6    6    0    0  0.13902287118E+02  0.34068966310E+02  0.28586621400E+02  0.46595739887E+02  0.00000000000E+00 0. -1.
        -12    1    6    6    0    0 -0.11001697569E+02  0.21703554290E+02  0.20883479223E+03  0.21024759705E+03  0.00000000000E+00 0.  1.
</event>
<event>
12    1  0.8219652E-002  0.1912488E+03  0.7818608E-02  0.1161418E+00
         21   -1    0    0  503  502  0.00000000000E+00  0.00000000000E+00  0.11932068366E+03  0.11932068366E+03  0.00000000000E+00 0.  1.
         21   -1    0    0  501  503 -0.00000000000E+00 -0.00000000000E+00 -0.66025673551E+03  0.66025673551E+03  0.00000000000E+00 0.  1.
          6    2    1    2  501    0  0.16040464256E+02 -0.13131533275E+02 -0.57181355661E+03  0.60294845811E+03  0.19012197652E+03 0.  0.
         24    2    3    3    0    0 -0.78955250970E+01 -0.74358471201E+02 -0.46278658888E+03  0.47554893218E+03  0.79898926769E+02 0.  0.
         -6    2    1    2    0  502 -0.16040464256E+02  0.13131533275E+02  0.30877504753E+02  0.17662896106E+03  0.17266915163E+03 0.  0.
        -24    2    5    5    0    0  0.12512576338E+02 -0.13880530773E+02 -0.43385039077E+02  0.92474679246E+02  0.79498874111E+02 0.  0.
          5    1    3    3  501    0  0.23935989353E+02  0.61226937926E+02 -0.10902696773E+03  0.12739952593E+03  0.47000000000E+01 0. -1.
        -13    1    4    4    0    0 -0.13820683690E+02 -0.48613913828E+02 -0.43215018818E+03  0.43509551717E+03  0.00000000000E+00 0.  1.
         14    1    4    4    0    0  0.59251585934E+01 -0.25744557373E+02 -0.30636400701E+02  0.40453415018E+02  0.00000000000E+00 0. -1.
         -5    1    5    5    0  502 -0.28553040594E+02  0.27012064047E+02  0.74262543830E+02  0.84154281812E+02  0.47000000000E+01 0.  1.
         11    1    6    6    0    0 -0.30364278099E+02 -0.22666850079E+02 -0.19557115802E+02  0.42641016117E+02  0.00000000000E+00 0. -1.
        -12    1    6    6    0    0  0.42876854437E+02  0.87863193063E+01 -0.23827923274E+02  0.49833663130E+02  0.00000000000E+00 0.  1.
</event>
<event>
12    1  0.8219652E-002  0.1866454E+03  0.7818608E-02  0.1162129E+00
         21   -1    0    0  503  502  0.00000000000E+00  0.00000000000E+00  0.36959051014E+03  0.36959051014E+03  0.00000000000E+00 0. -1.
         21   -1    0    0  501  503 -0.00000000000E+00 -0.00000000000E+00 -0.94032100154E+02  0.94032100154E+02  0.00000000000E+00 0. -1.
          6    2    1    2  501    0 -0.46733342541E+02  0.56982472668E+02  0.11381159641E+03  0.21860830350E+03  0.17148032944E+03 0.  0.
         24    2    3    3    0    0  0.24477398652E+02  0.70017539156E+02  0.92556014893E+02  0.14301219007E+03  0.79901638170E+02 0.  0.
         -6    2    1    2    0  502  0.46733342541E+02 -0.56982472668E+02  0.16174681357E+03  0.24501430679E+03  0.16863858199E+03 0.  0.
        -24    2    5    5    0    0  0.93816585628E+02 -0.57291180913E+02  0.13091494558E+03  0.18853757562E+03  0.79522721870E+02 0.  0.
          5    1    3    3  501    0 -0.71210741193E+02 -0.13035066488E+02  0.21255581516E+02  0.75596113427E+02  0.47000000000E+01 0. -1.
        -13    1    4    4    0    0  0.38672031522E+02  0.10357357732E+02  0.63701503766E+02  0.75237507024E+02  0.00000000000E+00 0.  1.
         14    1    4    4    0    0 -0.14194632870E+02  0.59660181424E+02  0.28854511127E+02  0.67774683048E+02  0.00000000000E+00 0. -1.
         -5    1    5    5    0  502 -0.47083243086E+02  0.30870824568E+00  0.30831867990E+02  0.56476731173E+02  0.47000000000E+01 0.  1.
         13    1    6    6    0    0  0.78676359573E+02 -0.65064174998E+02  0.13665106364E+03  0.17057792828E+03  0.00000000000E+00 0. -1.
        -14    1    6    6    0    0  0.15140226055E+02  0.77729940845E+01 -0.57361180560E+01  0.17959647335E+02  0.00000000000E+00 0.  1.
</event>
<event>
12    1  0.8219652E-002  0.1811709E+03  0.7818608E-02  0.1168227E+00
         21   -1    0    0  501  502  0.00000000000E+00  0.00000000000E+00  0.46971433330E+03  0.46971433330E+03  0.00000000000E+00 0.  1.
         21   -1    0    0  502  503 -0.00000000000E+00 -0.00000000000E+00 -0.67547000783E+02  0.67547000783E+02  0.00000000000E+00 0.  1.
         -6    2    1    2    0  503  0.56751008284E+02  0.12441079929E+02  0.20757931961E+03  0.27139033486E+03  0.16488809088E+03 0.  0.
        -24    2    3    3    0    0  0.51861570226E+02  0.78362851540E+01  0.33450762826E+02  0.97068921868E+02  0.74514375980E+02 0.  0.
          6    2    1    2  501    0 -0.56751008284E+02 -0.12441079929E+02  0.19458801291E+03  0.26587099922E+03  0.17160255258E+03 0.  0.
         24    2    5    5    0    0 -0.41680214366E+02  0.41343859919E+02  0.63998019607E+02  0.12375912451E+03  0.88170399591E+02 0.  0.
          5    1    5    5  501    0 -0.15070793918E+02 -0.53784939848E+02  0.13058999330E+03  0.14211187471E+03  0.47000000000E+01 0. -1.
        -11    1    6    6    0    0  0.20068080195E+02  0.18182529704E+02  0.49214958299E+02  0.56173341983E+02  0.00000000000E+00 0.  1.
         12    1    6    6    0    0 -0.61748294562E+02  0.23161330215E+02  0.14783061308E+02  0.67585782530E+02  0.00000000000E+00 0. -1.
         -5    1    3    3    0  503  0.48894380581E+01  0.46047947748E+01  0.17412855678E+03  0.17432141299E+03  0.47000000000E+01 0.  1.
         13    1    4    4    0    0  0.57782052157E+02  0.19993349769E+02  0.47607605738E+02  0.77491829960E+02  0.00000000000E+00 0. -1.
        -14    1    4    4    0    0 -0.59204819310E+01 -0.12157064615E+02 -0.14156842912E+02  0.19577091908E+02  0.00000000000E+00 0.  1.
</event>
<event>
12    1  0.8219652E-002  0.1792777E+03  0.7818608E-02  0.1169860E+00
         21   -1    0    0  503  502  0.00000000000E+00  0.00000000000E+00  0.17396940198E+03  0.17396940198E+03  0.00000000000E+00 0.  1.
         21   -1    0    0  501  503 -0.00000000000E+00 -0.00000000000E+00 -0.20241460218E+03  0.20241460218E+03  0.00000000000E+00 0.  1.
          6    2    1    2  501    0 -0.52886619413E+02  0.84111193439E+01 -0.78222994984E+02  0.19559993515E+03  0.17109282932E+03 0.  0.
         24    2    3    3    0    0  0.17118973190E+02 -0.27130864480E+02 -0.80994864397E+02  0.11689930701E+03  0.77949579024E+02 0.  0.
         -6    2    1    2    0  502  0.52886619413E+02 -0.84111193439E+01  0.49777794780E+02  0.18078406902E+03  0.16533998099E+03 0.  0.
        -24    2    5    5    0    0  0.33230450324E+02  0.58146302368E+02  0.25965969532E+02  0.10726299455E+03  0.79660925926E+02 0.  0.
          5    1    3    3  501    0 -0.70005592603E+02  0.35541983824E+02  0.27718694128E+01  0.78700628141E+02  0.47000000000E+01 0. -1.
        -11    1    4    4    0    0  0.32733764685E+02  0.58295215049E+01 -0.72042182000E+02  0.79344556579E+02  0.00000000000E+00 0.  1.
         12    1    4    4    0    0 -0.15614791496E+02 -0.32960385985E+02 -0.89526823964E+01  0.37554750429E+02  0.00000000000E+00 0. -1.
         -5    1    5    5    0  502  0.19656169089E+02 -0.66557421712E+02  0.23811825248E+02  0.73521074461E+02  0.47000000000E+01 0.  1.
         11    1    6    6    0    0  0.45218331599E+01 -0.11694362246E+02 -0.16427481708E+02  0.20665605211E+02  0.00000000000E+00 0. -1.
        -12    1    6    6    0    0  0.28708617164E+02  0.69840664614E+02  0.42393451239E+02  0.86597389344E+02  0.00000000000E+00 0.  1.
</event>
<event>
12    1  0.8219652E-002  0.3806061E+03  0.7818608E-02  0.1050727E+00
         21   -1    0    0  501  502  0.00000000000E+00  0.00000000000E+00  0.35242424015E+03  0.35242424015E+03  0.00000000000E+00 0.  1.
         21   -1    0    0  502  503 -0.00000000000E+00 -0.00000000000E+00 -0.46269866778E+03  0.46269866778E+03  0.00000000000E+00 0.  1.
         -6    2    1    2    0  503 -0.33729599452E+03  0.40349382350E+02  0.81297580557E+02  0.38919185524E+03  0.17165180745E+03 0.  0.
        -24    2    3    3    0    0 -0.25365641024E+03  0.89356520742E+02  0.82291286158E+02  0.29213333102E+03  0.79018131215E+02 0.  0.
          6    2    1    2  501    0  0.33729599452E+03 -0.40349382350E+02 -0.19157200819E+03  0.42593105269E+03  0.17123307726E+03 0.  0.
         24    2    5    5    0    0  0.19879863560E+03 -0.82059985713E+02 -0.77893821650E+02  0.24190357388E+03  0.78709293190E+02 0.  0.
          5    1    5    5  501    0  0.13849735892E+03  0.41710603363E+02 -0.11367818654E+03  0.18402747881E+03  0.47000000000E+01 0. -1.
        -13    1    6    6    0    0  0.14525929781E+03 -0.33791860057E+02 -0.81070229677E+02  0.16974844785E+03  0.00000000000E+00 0.  1.
         14    1    6    6    0    0  0.53539337787E+02 -0.48268125656E+02  0.31764080270E+01  0.72155126034E+02  0.00000000000E+00 0. -1.
         -5    1    3    3    0  503 -0.83639584286E+02 -0.49007138392E+02 -0.99370560107E+00  0.97058524220E+02  0.47000000000E+01 0.  1.
         13    1    4    4    0    0 -0.23328271010E+02  0.37156781843E+02  0.83564917765E+01  0.44661679548E+02  0.00000000000E+00 0. -1.
        -14    1    4    4    0    0 -0.23032813923E+03  0.52199738899E+02  0.73934794381E+02  0.24747165147E+03  0.00000000000E+00 0.  1.
</event>
<event>
12    1  0.8219652E-002  0.2151124E+03  0.7818608E-02  0.1138303E+00
         21   -1    0    0  501  502  0.00000000000E+00  0.00000000000E+00  0.45607759602E+03  0.45607759602E+03  0.00000000000E+00 0. -1.
         21   -1    0    0  502  503 -0.00000000000E+00 -0.00000000000E+00 -0.37280835583E+03  0.37280835583E+03  0.00000000000E+00 0.  1.
         -6    2    1    2    0  503 -0.12263089427E+03 -0.19587091907E+02 -0.31298312287E+03  0.37977857793E+03  0.17564550281E+03 0.  0.
        -24    2    3    3    0    0 -0.12987853110E+03 -0.64862540957E+02 -0.27140230347E+03  0.31770242254E+03  0.78740313055E+02 0.  0.
          6    2    1    2  501    0  0.12263089427E+03  0.19587091907E+02  0.39625236306E+03  0.44910737392E+03  0.17105410745E+03 0.  0.
         24    2    5    5    0    0  0.29273547866E+02  0.95618955365E+01  0.70714440200E+02  0.11026651465E+03  0.78802295328E+02 0.  0.
          5    1    5    5  501    0  0.93357346405E+02  0.10025196371E+02  0.32553792286E+03  0.33884085927E+03  0.47000000000E+01 0. -1.
        -11    1    6    6    0    0  0.50494335039E+02  0.13202915418E+02  0.21310926956E+02  0.56375087178E+02  0.00000000000E+00 0.  1.
         12    1    6    6    0    0 -0.21220787173E+02 -0.36410198812E+01  0.49403513244E+02  0.53891427471E+02  0.00000000000E+00 0. -1.
         -5    1    3    3    0  503  0.72476368303E+01  0.45275449050E+02 -0.41580819405E+02  0.62076155395E+02  0.47000000000E+01 0.  1.
         11    1    4    4    0    0 -0.43306421988E+01 -0.36068161754E+02 -0.57749722271E+02  0.68225341161E+02  0.00000000000E+00 0. -1.
        -12    1    4    4    0    0 -0.12554788890E+03 -0.28794379204E+02 -0.21365258120E+03  0.24947708138E+03  0.00000000000E+00 0.  1.
</event>
<event>
12    1  0.8219652E-002  0.1956828E+03  0.7818608E-02  0.1153469E+00
         21   -1    0    0  503  502  0.00000000000E+00  0.00000000000E+00  0.28381557905E+02  0.28381557905E+02  0.00000000000E+00 0. -1.
         21   -1    0    0  501  503 -0.00000000000E+00 -0.00000000000E+00 -0.16796692629E+04  0.16796692629E+04  0.00000000000E+00 0. -1.
          6    2    1    2  501    0  0.47526373160E+02  0.77551287245E+02 -0.12048408664E+04  0.12206018173E+04  0.17307317693E+03 0.  0.
         24    2    3    3    0    0  0.15305650375E+02  0.97497162181E+02 -0.54722065621E+03  0.56187391911E+03  0.80696312362E+02 0.  0.
         -6    2    1    2    0  502 -0.47526373160E+02 -0.77551287245E+02 -0.44644683857E+03  0.48744900355E+03  0.17325932326E+03 0.  0.
        -24    2    5    5    0    0 -0.29547011755E+02  0.86108169052E+01 -0.33579750541E+03  0.34598335205E+03  0.77442515330E+02 0.  0.
          5    1    3    3  501    0  0.32220722785E+02 -0.19945874936E+02 -0.65762021024E+03  0.65872789816E+03  0.47000000000E+01 0. -1.
        -13    1    4    4    0    0 -0.14888030932E+02  0.42697943027E+02 -0.39075071154E+03  0.39335847057E+03  0.00000000000E+00 0.  1.
         14    1    4    4    0    0  0.30193681307E+02  0.54799219154E+02 -0.15646994467E+03  0.16851544853E+03  0.00000000000E+00 0. -1.
         -5    1    5    5    0  502 -0.17979361404E+02 -0.86162104150E+02 -0.11064933316E+03  0.14146565151E+03  0.47000000000E+01 0.  1.
         11    1    6    6    0    0  0.77350824176E+00  0.16081816063E+02 -0.10569789063E+02  0.19259895216E+02  0.00000000000E+00 0. -1.
        -12    1    6    6    0    0 -0.30320519997E+02 -0.74709991580E+01 -0.32522771635E+03  0.32672345683E+03  0.00000000000E+00 0.  1.
</event>
<event>
12    1  0.8219652E-002  0.2069372E+03  0.7818608E-02  0.1144260E+00
         21   -1    0    0  503  502  0.00000000000E+00  0.00000000000E+00  0.36790722675E+02  0.36790722675E+02  0.00000000000E+00 0. -1.
         21   -1    0    0  501  503 -0.00000000000E+00 -0.00000000000E+00 -0.22379105538E+04  0.22379105538E+04  0.00000000000E+00 0. -1.
          6    2    1    2  501    0 -0.10153601703E+03 -0.55716117690E+02 -0.18926178923E+04  0.19038974527E+04  0.17149103667E+03 0.  0.
         24    2    3    3    0    0 -0.12450164035E+03 -0.36408329291E+02 -0.18084136271E+04  0.18143839966E+04  0.69305234513E+02 0.  0.
         -6    2    1    2    0  502  0.10153601703E+03  0.55716117690E+02 -0.30850193887E+03  0.37080382380E+03  0.17002405989E+03 0.  0.
        -24    2    5    5    0    0  0.50340959274E+02  0.20788706907E+02 -0.29029219911E+03  0.30603853538E+03  0.80147624789E+02 0.  0.
          5    1    3    3  501    0  0.22965623321E+02 -0.19307788399E+02 -0.84204265164E+02  0.89513456079E+02  0.47000000000E+01 0. -1.
        -11    1    4    4    0    0 -0.21241464580E+02 -0.85326252644E+01 -0.98351560895E+02  0.10098036959E+03  0.00000000000E+00 0.  1.
         12    1    4    4    0    0 -0.10326017577E+03 -0.27875704027E+02 -0.17100620662E+04  0.17134036270E+04  0.00000000000E+00 0. -1.
         -5    1    5    5    0  502  0.51195057754E+02  0.34927410783E+02 -0.18209739755E+02  0.64765288422E+02  0.47000000000E+01 0.  1.
         11    1    6    6    0    0  0.31703383544E+02  0.25183337134E+02 -0.47170813439E+02  0.62164223134E+02  0.00000000000E+00 0. -1.
        -12    1    6    6    0    0  0.18637575730E+02 -0.43946302265E+01 -0.24312138567E+03  0.24387431225E+03  0.00000000000E+00 0.  1.
</event>
<event>
12    1  0.8219652E-002  0.3376209E+03  0.7818608E-02  0.1067833E+00
         21   -1    0    0  503  502  0.00000000000E+00  0.00000000000E+00  0.33280354234E+03  0.33280354234E+03  0.00000000000E+00 0. -1.
         21   -1    0    0  501  503 -0.00000000000E+00 -0.00000000000E+00 -0.13416286464E+04  0.13416286464E+04  0.00000000000E+00 0.  1.
          6    2    1    2  501    0 -0.15379582338E+03  0.24554754335E+03 -0.12270001648E+04  0.12726025674E+04  0.17332379723E+03 0.  0.
         24    2    3    3    0    0 -0.62220400944E+02  0.66434770412E+02 -0.66136627358E+03  0.67224331464E+03  0.78871853266E+02 0.  0.
         -6    2    1    2    0  502  0.15379582338E+03 -0.24554754335E+03  0.21817506077E+03  0.40182962137E+03  0.17297380187E+03 0.  0.
        -24    2    5    5    0    0  0.23964587439E+02 -0.12491188435E+03  0.14872891552E+03  0.21142487054E+03  0.80018155858E+02 0.  0.
          5    1    3    3  501    0 -0.91575422440E+02  0.17911277294E+03 -0.56563389127E+03  0.60035925276E+03  0.47000000000E+01 0. -1.
        -11    1    4    4    0    0 -0.48013259429E+02  0.84651851153E+02 -0.53894536498E+03  0.54766167971E+03  0.00000000000E+00 0.  1.
         12    1    4    4    0    0 -0.14207141514E+02 -0.18217080742E+02 -0.12242090860E+03  0.12458163493E+03  0.00000000000E+00 0. -1.
         -5    1    5    5    0  502  0.12983123594E+03 -0.12063565900E+03  0.69446145246E+02  0.19040475083E+03  0.47000000000E+01 0.  1.
         11    1    6    6    0    0  0.38126808518E+02 -0.36152210299E+02  0.89498300616E+02  0.10378141284E+03  0.00000000000E+00 0. -1.
        -12    1    6    6    0    0 -0.14162221079E+02 -0.88759674056E+02  0.59230614904E+02  0.10764345770E+03  0.00000000000E+00 0.  1.
</event>
<event>
12    1  0.8219652E-002  0.1999704E+03  0.7818608E-02  0.1150472E+00
         21   -1    0    0  503  502  0.00000000000E+00  0.00000000000E+00  0.73781888128E+02  0.73781888128E+02  0.00000000000E+00 0. -1.
         21   -1    0    0  501  503 -0.00000000000E+00 -0.00000000000E+00 -0.59192339681E+03  0.59192339681E+03  0.00000000000E+00 0. -1.
          6    2    1    2  501    0  0.97569262478E+02 -0.21614525024E+02 -0.36603869337E+03  0.41710007855E+03  0.17320855004E+03 0.  0.
         24    2    3    3    0    0  0.12077449738E+03 -0.34726248861E+02 -0.20381940989E+03  0.25263857496E+03  0.80569883530E+02 0.  0.
         -6    2    1    2    0  502 -0.97569262478E+02  0.21614525024E+02 -0.15210281532E+03  0.24860520640E+03  0.16935859455E+03 0.  0.
        -24    2    5    5    0    0 -0.34818933752E+02  0.27713509224E+02 -0.81212984091E+01  0.91355187080E+02  0.79368872850E+02 0.  0.
          5    1    3    3  501    0 -0.23205234906E+02  0.13111723837E+02 -0.16221928348E+03  0.16446150359E+03  0.47000000000E+01 0. -1.
        -13    1    4    4    0    0  0.28530159941E+02  0.18696593793E+02 -0.18387956605E+02  0.38751123775E+02  0.00000000000E+00 0.  1.
         14    1    4    4    0    0  0.92244337443E+02 -0.53422842654E+02 -0.18543145328E+03  0.21388745118E+03  0.00000000000E+00 0. -1.
         -5    1    5    5    0  502 -0.62750328726E+02 -0.60989841992E+01 -0.14398151691E+03  0.15725001931E+03  0.47000000000E+01 0.  1.
         11    1    6    6    0    0 -0.58343156880E+02  0.73950626151E+01 -0.12025162671E+02  0.60026789379E+02  0.00000000000E+00 0. -1.
        -12    1    6    6    0    0  0.23524223128E+02  0.20318446608E+02  0.39038642622E+01  0.31328397702E+02  0.00000000000E+00 0.  1.
</event>
<event>
12    1  0.8219652E-002  0.1849415E+03  0.7818608E-02  0.1164116E+00
         21   -1    0    0  503  502  0.00000000000E+00  0.00000000000E+00  0.19141931228E+02  0.19141931228E+02  0.00000000000E+00 0.  1.
         21   -1    0    0  501  503 -0.00000000000E+00 -0.00000000000E+00 -0.27894848933E+04  0.27894848933E+04  0.00000000000E+00 0.  1.
          6    2    1    2  501    0 -0.60492752393E+02 -0.26199337801E+01 -0.22542818267E+04  0.22618554149E+04  0.17474875294E+03 0.  0.
         24    2    3    3    0    0 -0.75825625493E+02 -0.22150253563E+02 -0.21896097800E+04  0.21924213166E+04  0.77974877175E+02 0.  0.
         -6    2    1    2    0  502  0.60492752393E+02  0.26199337801E+01 -0.51606113540E+03  0.54677140964E+03  0.17021645568E+03 0.  0.
        -24    2    5    5    0    0  0.64630498960E+02  0.46931881659E+02 -0.22323776175E+03  0.25054803476E+03  0.80990842302E+02 0.  0.
          5    1    3    3  501    0  0.15332873100E+02  0.19530319783E+02 -0.64672046659E+02  0.69434098305E+02  0.47000000000E+01 0. -1.
        -13    1    4    4    0    0 -0.61680422032E+02  0.20052490001E+02 -0.11086560282E+04  0.11105515592E+04  0.00000000000E+00 0.  1.
         14    1    4    4    0    0 -0.14145203461E+02 -0.42202743564E+02 -0.10809537518E+04  0.10818697574E+04  0.00000000000E+00 0. -1.
         -5    1    5    5    0  502 -0.41377465677E+01 -0.44311947879E+02 -0.29282337365E+03  0.29622337488E+03  0.47000000000E+01 0.  1.
         11    1    6    6    0    0 -0.84978665741E+01  0.17455660628E+01 -0.99519379761E+02  0.99896785160E+02  0.00000000000E+00 0. -1.
        -12    1    6    6    0    0  0.73128365535E+02  0.45186315596E+02 -0.12371838199E+03  0.15065124960E+03  0.00000000000E+00 0.  1.
</event>
<event>
12    1  0.8219652E-002  0.1865667E+03  0.7818608E-02  0.1161683E+00
         21   -1    0    0  501  502  0.00000000000E+00  0.00000000000E+00  0.17750074932E+03  0.17750074932E+03  0.00000000000E+00 0. -1.
         21   -1    0    0  502  503 -0.00000000000E+00 -0.00000000000E+00 -0.48225423841E+03  0.48225423841E+03  0.00000000000E+00 0. -1.
         -6    2    1    2    0  503 -0.54801414965E+02 -0.47881060647E+02 -0.40659960221E+03  0.44719962469E+03  0.17137233369E+03 0.  0.
        -24    2    3    3    0    0 -0.84632481294E+02 -0.59738158021E+02 -0.21411616943E+03  0.25200114834E+03  0.83231846899E+02 0.  0.
          6    2    1    2  501    0  0.54801414965E+02  0.47881060647E+02  0.10184611313E+03  0.21255536304E+03  0.17178870902E+03 0.  0.
         24    2    5    5    0    0 -0.36973674808E+02  0.26098584954E+02  0.34375553051E+02  0.96488529589E+02  0.77975437987E+02 0.  0.
          5    1    5    5  501    0  0.91775089773E+02  0.21782475693E+02  0.67470560075E+02  0.11606683345E+03  0.47000000000E+01 0. -1.
        -11    1    6    6    0    0 -0.35915236075E+02 -0.12542293452E+01 -0.15858397069E+02  0.39280606298E+02  0.00000000000E+00 0.  1.
         12    1    6    6    0    0 -0.10584387330E+01  0.27352814300E+02  0.50233950120E+02  0.57207923291E+02  0.00000000000E+00 0. -1.
         -5    1    3    3    0  503  0.29831066329E+02  0.11857097374E+02 -0.19248343278E+03  0.19519847635E+03  0.47000000000E+01 0.  1.
         13    1    4    4    0    0 -0.78244418204E+01 -0.31375296093E+02 -0.12990411262E+02  0.34847982431E+02  0.00000000000E+00 0. -1.
        -14    1    4    4    0    0 -0.76808039473E+02 -0.28362861928E+02 -0.20112575817E+03  0.21715316591E+03  0.00000000000E+00 0.  1.
</event>
<event>
12    1  0.8219652E-002  0.1943684E+03  0.7818608E-02  0.1154711E+00
         21   -1    0    0  501  502  0.00000000000E+00  0.00000000000E+00  0.69042946257E+02  0.69042946257E+02  0.00000000000E+00 0.  1.
         21   -1    0    0  502  503 -0.00000000000E+00 -0.00000000000E+00 -0.58003461614E+03  0.58003461614E+03  0.00000000000E+00 0. -1.
         -6    2    1    2    0  503 -0.81674553381E+02  0.36139931661E+02 -0.33506189466E+03  0.38735714882E+03  0.17263331126E+03 0.  0.
        -24    2    3    3    0    0 -0.60632958351E+02  0.59509551536E+02 -0.33579131069E+03  0.35555290535E+03  0.80276533369E+02 0.  0.
          6    2    1    2  501    0  0.81674553381E+02 -0.36139931661E+02 -0.17592977523E+03  0.26172041359E+03  0.17195773244E+03 0.  0.
         24    2    5    5    0    0 -0.21319840898E+02 -0.40206155654E+02 -0.83248868589E+02  0.12302571330E+03  0.78319100124E+02 0.  0.
          5    1    5    5  501    0  0.10299439428E+03  0.40662239925E+01 -0.92680906641E+02  0.13869470028E+03  0.47000000000E+01 0. -1.
        -11    1    6    6    0    0 -0.45859365074E+00 -0.61012433037E+02 -0.53349021975E+02  0.81048414167E+02  0.00000000000E+00 0.  1.
         12    1    6    6    0    0 -0.20861247247E+02  0.20806277384E+02 -0.29899846614E+02  0.41977299136E+02  0.00000000000E+00 0. -1.
         -5    1    3    3    0  503 -0.21041595030E+02 -0.23369619875E+02  0.72941602911E+00  0.31804243463E+02  0.47000000000E+01 0.  1.
         11    1    4    4    0    0 -0.11041733990E+02 -0.14434786109E+02 -0.13086546944E+03  0.13212136099E+03  0.00000000000E+00 0. -1.
        -12    1    4    4    0    0 -0.49591224361E+02  0.73944337645E+02 -0.20492584125E+03  0.22343154436E+03  0.00000000000E+00 0.  1.
</event>
<event>
12    1  0.8219652E-002  0.1782377E+03  0.7818608E-02  0.1170696E+00
         21   -1    0    0  501  502  0.00000000000E+00  0.00000000000E+00  0.23516217167E+03  0.23516217167E+03  0.00000000000E+00 0.  1.
         21   -1    0    0  502  503 -0.00000000000E+00 -0.00000000000E+00 -0.17312553572E+03  0.17312553572E+03  0.00000000000E+00 0.  1.
         -6    2    1    2    0  503  0.24075381981E+02 -0.28060797755E+01 -0.69353785178E+02  0.18685570104E+03  0.17180688983E+03 0.  0.
        -24    2    3    3    0    0  0.46626748396E+02 -0.23882984408E+02 -0.94951544335E+02  0.14648076686E+03  0.98470141052E+02 0.  0.
          6    2    1    2  501    0 -0.24075381981E+02  0.28060797755E+01  0.13139042113E+03  0.22143200635E+03  0.17658197125E+03 0.  0.
         24    2    5    5    0    0 -0.65140500980E+02 -0.42293086966E+02  0.75193620223E+02  0.13836306347E+03  0.86361257159E+02 0.  0.
          5    1    5    5  501    0  0.41065118999E+02  0.45099166741E+02  0.56196800903E+02  0.83068942878E+02  0.47000000000E+01 0. -1.
        -13    1    6    6    0    0 -0.33708367965E+02 -0.51976673489E+02  0.83944490990E+02  0.10432883698E+03  0.00000000000E+00 0.  1.
         14    1    6    6    0    0 -0.31432133015E+02  0.96835865233E+01 -0.87508707665E+01  0.34034226493E+02  0.00000000000E+00 0. -1.
         -5    1    3    3    0  503 -0.22551366415E+02  0.21076904633E+02  0.25597759157E+02  0.40374934179E+02  0.47000000000E+01 0.  1.
         13    1    4    4    0    0 -0.14197256629E+02  0.27012382258E+02 -0.38526285846E+02  0.49147793359E+02  0.00000000000E+00 0. -1.
        -14    1    4    4    0    0  0.60824005025E+02 -0.50895366666E+02 -0.56425258489E+02  0.97332973503E+02  0.00000000000E+00 0.  1.
</event>
<event>
12    1  0.8219652E-002  0.2092469E+03  0.7818608E-02  0.1142843E+00
         21   -1    0    0  503  502  0.00000000000E+00  0.00000000000E+00  0.16327177737E+04  0.16327177737E+04  0.00000000000E+00 0.  1.
         21   -1    0    0  501  503 -0.00000000000E+00 -0.00000000000E+00 -0.27491290327E+02  0.27491290327E+02  0.00000000000E+00 0. -1.
          6    2    1    2  501    0  0.99107269947E+02  0.65523700829E+02  0.64236864077E+03  0.67558991737E+03  0.17224592731E+03 0.  0.
         24    2    3    3    0    0  0.14577292756E+02  0.54251404749E+02  0.17835218343E+03  0.20377878526E+03  0.80997404920E+02 0.  0.
         -6    2    1    2    0  502 -0.99107269947E+02 -0.65523700829E+02  0.96285784259E+03  0.98461914665E+03  0.16811910237E+03 0.  0.
        -24    2    5    5    0    0  0.63884551803E-01 -0.20639124528E+02  0.25375490001E+03  0.26719415666E+03  0.81087548581E+02 0.  0.
          5    1    3    3  501    0  0.84529977191E+02  0.11272296080E+02  0.46401645734E+03  0.47181113211E+03  0.47000000000E+01 0. -1.
        -13    1    4    4    0    0  0.21046406942E+02  0.74373625184E+02  0.13543851336E+03  0.15594222735E+03  0.00000000000E+00 0.  1.
         14    1    4    4    0    0 -0.64691141868E+01 -0.20122220435E+02  0.42913670070E+02  0.47836557908E+02  0.00000000000E+00 0. -1.
         -5    1    5    5    0  502 -0.99171154499E+02 -0.44884576301E+02  0.70910294259E+03  0.71742498999E+03  0.47000000000E+01 0.  1.
         11    1    6    6    0    0 -0.29885866642E+02 -0.20237902527E+02  0.52425009519E+02  0.63648404117E+02  0.00000000000E+00 0. -1.
        -12    1    6    6    0    0  0.29949751193E+02 -0.40122200130E+00  0.20132989049E+03  0.20354575255E+03  0.00000000000E+00 0.  1.
</event>
<event>
12    1  0.8219652E-002  0.2452438E+03  0.7818608E-02  0.1116541E+00
         21   -1    0    0  501  502  0.00000000000E+00  0.00000000000E+00  0.25658710607E+03  0.25658710607E+03  0.00000000000E+00 0. -1.
         21   -1    0    0  502  503 -0.00000000000E+00 -0.00000000000E+00 -0.28705500078E+03  0.28705500078E+03  0.00000000000E+00 0.  1.
         -6    2    1    2    0  503 -0.10569995468E+03 -0.13962700293E+03 -0.13292994067E+03  0.27895321555E+03  0.17168676995E+03 0.  0.
        -24    2    3    3    0    0 -0.40352920105E+02 -0.51377186213E+02 -0.11478578019E+01  0.10735230517E+03  0.85177616922E+02 0.  0.
          6    2    1    2  501    0  0.10569995468E+03  0.13962700293E+03  0.10246204596E+03  0.26468889130E+03  0.16998105173E+03 0.  0.
         24    2    5    5    0    0 -0.33427423709E+01  0.74400079913E+02  0.75840425567E+02  0.13478253295E+03  0.82873489250E+02 0.  0.
          5    1    5    5  501    0  0.10904269705E+03  0.65226923012E+02  0.26621620393E+02  0.12990635835E+03  0.47000000000E+01 0. -1.
        -13    1    6    6    0    0  0.61239011268E+01  0.36367622492E+02 -0.11846217122E+02  0.38735500395E+02  0.00000000000E+00 0.  1.
         14    1    6    6    0    0 -0.94666434977E+01  0.38032457421E+02  0.87686642689E+02  0.96047032555E+02  0.00000000000E+00 0. -1.
         -5    1    3    3    0  503 -0.65347034578E+02 -0.88249816712E+02 -0.13178208287E+03  0.17160091038E+03  0.47000000000E+01 0.  1.
         11    1    4    4    0    0 -0.62538931826E+02 -0.28252251185E+02  0.16760348343E+02  0.70641467762E+02  0.00000000000E+00 0. -1.
        -12    1    4    4    0    0  0.22186011721E+02 -0.23124935029E+02 -0.17908206145E+02  0.36710837412E+02  0.00000000000E+00 0.  1.
</event>
<event>
12    1  0.8219652E-002  0.3014839E+03  0.7818608E-02  0.1084534E+00
         21   -1    0    0  501  502  0.00000000000E+00  0.00000000000E+00  0.27877724911E+03  0.27877724911E+03  0.00000000000E+00 0.  1.
         21   -1    0    0  502  503 -0.00000000000E+00 -0.00000000000E+00 -0.57242763962E+03  0.57242763962E+03  0.00000000000E+00 0. -1.
         -6    2    1    2    0  503 -0.37911658970E+02 -0.24529833079E+03 -0.42625022801E+03  0.52209369089E+03  0.17112568543E+03 0.  0.
        -24    2    3    3    0    0 -0.18572906766E+02 -0.37808903708E+02 -0.16770221273E+03  0.18998675647E+03  0.78717656296E+02 0.  0.
          6    2    1    2  501    0  0.37911658970E+02  0.24529833079E+03  0.13259983751E+03  0.32911119784E+03  0.17065432506E+03 0.  0.
         24    2    5    5    0    0 -0.27311541705E+02  0.21348387798E+03  0.93660203433E+02  0.24662113531E+03  0.75686618419E+02 0.  0.
          5    1    5    5  501    0  0.65223200674E+02  0.31814452809E+02  0.38939634075E+02  0.82490062527E+02  0.47000000000E+01 0. -1.
        -13    1    6    6    0    0 -0.11244523581E+02  0.19842753399E+03  0.10160594777E+03  0.22321221781E+03  0.00000000000E+00 0.  1.
         14    1    6    6    0    0 -0.16067018124E+02  0.15056343985E+02 -0.79457443342E+01  0.23408917502E+02  0.00000000000E+00 0. -1.
         -5    1    3    3    0  503 -0.19338752204E+02 -0.20748942708E+03 -0.25854801528E+03  0.33210693442E+03  0.47000000000E+01 0.  1.
         13    1    4    4    0    0 -0.41407904710E+02 -0.41586903934E+02 -0.14929130316E+03  0.16041190215E+03  0.00000000000E+00 0. -1.
        -14    1    4    4    0    0  0.22834997944E+02  0.37780002264E+01 -0.18410909572E+02  0.29574854321E+02  0.00000000000E+00 0.  1.
</event>
<event>
12    1  0.8219652E-002  0.1883315E+03  0.7818608E-02  0.1162617E+00
         21   -1    0    0  501  502  0.00000000000E+00  0.00000000000E+00  0.22491908135E+03  0.22491908135E+03  0.00000000000E+00 0.  1.
         21   -1    0    0  502  503 -0.00000000000E+00 -0.00000000000E+00 -0.21520541788E+03  0.21520541788E+03  0.00000000000E+00 0.  1.
         -6    2    1    2    0  503  0.53887637695E+02  0.51757788771E+02 -0.11756422099E+03  0.22201370264E+03  0.17287565448E+03 0.  0.
        -24    2    3    3    0    0  0.51151032971E+02  0.43796311860E+02 -0.62132560814E+00  0.10467400391E+03  0.80135609701E+02 0.  0.
          6    2    1    2  501    0 -0.53887637695E+02 -0.51757788771E+02  0.12727788445E+03  0.21811079659E+03  0.16059238314E+03 0.  0.
         24    2    5    5    0    0 -0.23856892989E+02  0.30008835334E+02  0.73191818394E+02  0.11547055601E+03  0.80664276377E+02 0.  0.
          5    1    5    5  501    0 -0.30030744706E+02 -0.81766624105E+02  0.54086066058E+02  0.10264024058E+03  0.47000000000E+01 0. -1.
        -13    1    6    6    0    0 -0.10471715588E+02  0.19700029687E+01  0.82383353609E+02  0.83069577409E+02  0.00000000000E+00 0.  1.
         14    1    6    6    0    0 -0.13385177400E+02  0.28038832366E+02 -0.91915352147E+01  0.32400978597E+02  0.00000000000E+00 0. -1.
         -5    1    3    3    0  503  0.27366047242E+01  0.79614769111E+01 -0.11694289538E+03  0.11733969874E+03  0.47000000000E+01 0.  1.
         11    1    4    4    0    0  0.20645251290E+02  0.62753329403E+02  0.10899600409E+02  0.66955268957E+02  0.00000000000E+00 0. -1.
        -12    1    4    4    0    0  0.30505781680E+02 -0.18957017543E+02 -0.11520926017E+02  0.37718734952E+02  0.00000000000E+00 0.  1.
</event>
<event>
12    1  0.8219652E-002  0.1821299E+03  0.7818608E-02  0.1165874E+00
         21   -1    0    0  503  502  0.00000000000E+00  0.00000000000E+00  0.31371862685E+03  0.31371862685E+03  0.00000000000E+00 0. -1.
         21   -1    0    0  501  503 -0.00000000000E+00 -0.00000000000E+00 -0.12470266285E+03  0.12470266285E+03  0.00000000000E+00 0. -1.
          6    2    1    2  501    0 -0.46054586754E+02 -0.36598903428E+02  0.84889931836E+01  0.18232765510E+03  0.17236822826E+03 0.  0.
         24    2    3    3    0    0 -0.14111801503E+02 -0.62852649749E+02  0.58566009372E+02  0.11721699333E+03  0.78487244501E+02 0.  0.
         -6    2    1    2    0  502  0.46054586754E+02  0.36598903428E+02  0.18052697082E+03  0.25609363460E+03  0.17185301219E+03 0.  0.
        -24    2    5    5    0    0  0.32862851589E+02  0.70414873035E+02  0.53429294591E+02  0.12383082434E+03  0.80256851276E+02 0.  0.
          5    1    3    3  501    0 -0.31942785250E+02  0.26253746322E+02 -0.50077016188E+02  0.65110661767E+02  0.47000000000E+01 0. -1.
        -13    1    4    4    0    0  0.21425220885E+02 -0.15470226475E+02  0.51088467393E+02  0.57518688248E+02  0.00000000000E+00 0.  1.
         14    1    4    4    0    0 -0.35537022389E+02 -0.47382423275E+02  0.74775419787E+01  0.59698305082E+02  0.00000000000E+00 0. -1.
         -5    1    5    5    0  502  0.13191735164E+02 -0.33815969607E+02  0.12709767623E+03  0.13226281027E+03  0.47000000000E+01 0.  1.
         13    1    6    6    0    0  0.35275336157E+02  0.48805525775E+02  0.72961267000E+02  0.94602722843E+02  0.00000000000E+00 0. -1.
        -14    1    6    6    0    0 -0.24124845673E+01  0.21609347260E+02 -0.19531972410E+02  0.29228101495E+02  0.00000000000E+00 0.  1.
</event>
<event>
12    1  0.8219652E-002  0.1788954E+03  0.7818608E-02  0.1169221E+00
         21   -1    0    0  503  502  0.00000000000E+00  0.00000000000E+00  0.33953213303E+03  0.33953213303E+03  0.00000000000E+00 0.  1.
         21   -1    0    0  501  503 -0.00000000000E+00 -0.00000000000E+00 -0.14055397042E+03  0.14055397042E+03  0.00000000000E+00 0.  1.
          6    2    1    2  501    0  0.20812919332E+02 -0.32857507454E+02 -0.39111143596E+02  0.18312087216E+03  0.17461608992E+03 0.  0.
         24    2    3    3    0    0  0.39399990040E+02  0.16005904916E+02  0.29970597860E+02  0.96359767573E+02  0.81107458740E+02 0.  0.
         -6    2    1    2    0  502 -0.20812919332E+02  0.32857507454E+02  0.23808930620E+03  0.29696523129E+03  0.17317343174E+03 0.  0.
        -24    2    5    5    0    0 -0.41783567177E+02  0.54556594621E+02  0.69332581984E+02  0.12546730004E+03  0.78820986744E+02 0.  0.
          5    1    3    3  501    0 -0.18587070708E+02 -0.48863412370E+02 -0.69081741456E+02  0.86761104583E+02  0.47000000000E+01 0. -1.
        -13    1    4    4    0    0  0.31804311049E+02  0.32133208132E+02 -0.15280677313E+02  0.47723750537E+02  0.00000000000E+00 0.  1.
         14    1    4    4    0    0  0.75956789912E+01 -0.16127303216E+02  0.45251275173E+02  0.48636017036E+02  0.00000000000E+00 0. -1.
         -5    1    5    5    0  502  0.20970647846E+02 -0.21699087168E+02  0.16875672422E+03  0.17149793125E+03  0.47000000000E+01 0.  1.
         11    1    6    6    0    0  0.17163672323E+02  0.39712635210E+02  0.35047173555E+02  0.55677548592E+02  0.00000000000E+00 0. -1.
        -12    1    6    6    0    0 -0.58947239501E+02  0.14843959411E+02  0.34285408429E+02  0.69789751446E+02  0.00000000000E+00 0.  1.
</event>
<event>
12    1  0.8219652E-002  0.1984941E+03  0.7818608E-02  0.1151351E+00
         21   -1    0    0  503  502  0.00000000000E+00  0.00000000000E+00  0.24918923657E+03  0.24918923657E+03  0.00000000000E+00 0.  1.
         21   -1    0    0  501  503 -0.00000000000E+00 -0.00000000000E+00 -0.33372031980E+03  0.33372031980E+03  0.00000000000E+00 0.  1.
          6    2    1    2  501    0  0.90281376917E+02 -0.95538201081E+01 -0.25451585314E+03  0.32276654080E+03  0.17651605553E+03 0.  0.
         24    2    3    3    0    0  0.12279404073E+03 -0.40810479302E+02 -0.21047897650E+03  0.25955745476E+03  0.79528618220E+02 0.  0.
         -6    2    1    2    0  502 -0.90281376917E+02  0.95538201081E+01  0.16998476991E+03  0.26014301558E+03  0.17475000445E+03 0.  0.
        -24    2    5    5    0    0 -0.42485000161E+02  0.26093312070E+02  0.13459796806E+02  0.95582371346E+02  0.80430015595E+02 0.  0.
          5    1    3    3  501    0 -0.32512663817E+02  0.31256659194E+02 -0.44036876642E+02  0.63209086031E+02  0.47000000000E+01 0. -1.
        -11    1    4    4    0    0  0.78402463961E+02 -0.34517448663E+02 -0.19350069556E+03  0.21161502735E+03  0.00000000000E+00 0.  1.
         12    1    4    4    0    0  0.44391576774E+02 -0.62930306392E+01 -0.16978280938E+02  0.47942427418E+02  0.00000000000E+00 0. -1.
         -5    1    5    5    0  502 -0.47796376756E+02 -0.16539491962E+02  0.15652497310E+03  0.16456064423E+03  0.47000000000E+01 0.  1.
         13    1    6    6    0    0 -0.94823787288E+01  0.50760433732E+02  0.16650521140E+02  0.54256584792E+02  0.00000000000E+00 0. -1.
        -14    1    6    6    0    0 -0.33002621432E+02 -0.24667121663E+02 -0.31907243347E+01  0.41325786554E+02  0.00000000000E+00 0.  1.
</event>
<event>
12    1  0.8219652E-002  0.1988164E+03  0.7818608E-02  0.1151510E+00
         21   -1    0    0  503  502  0.00000000000E+00  0.00000000000E+00  0.40342440442E+03  0.40342440442E+03  0.00000000000E+00 0.  1.
         21   -1    0    0  501  503 -0.00000000000E+00 -0.00000000000E+00 -0.26412125899E+03  0.26412125899E+03  0.00000000000E+00 0. -1.
          6    2    1    2  501    0 -0.86979716122E+02 -0.37094876420E+02 -0.19669057194E+03  0.27713594078E+03  0.17080880454E+03 0.  0.
         24    2    3    3    0    0 -0.25241757235E+01  0.31782853144E+02 -0.92439393251E+02  0.12624764371E+03  0.79855525179E+02 0.  0.
         -6    2    1    2    0  502  0.86979716122E+02  0.37094876420E+02  0.33599371736E+03  0.39040972263E+03  0.17488988690E+03 0.  0.
        -24    2    5    5    0    0  0.89962486118E+01  0.43205098603E+02  0.63601865040E+02  0.10696983970E+03  0.73822329516E+02 0.  0.
          5    1    3    3  501    0 -0.84455540399E+02 -0.68877729564E+02 -0.10425117869E+03  0.15088829707E+03  0.47000000000E+01 0. -1.
        -13    1    4    4    0    0 -0.15432154933E+02 -0.20364978429E+02 -0.91591015787E+01  0.27143560821E+02  0.00000000000E+00 0.  1.
         14    1    4    4    0    0  0.12907979209E+02  0.52147831573E+02 -0.83280291672E+02  0.99104082893E+02  0.00000000000E+00 0. -1.
         -5    1    5    5    0  502  0.77983467510E+02 -0.61102221837E+01  0.27239185232E+03  0.28343988292E+03  0.47000000000E+01 0.  1.
         13    1    6    6    0    0 -0.27458482037E+02  0.38421995957E+02  0.24151669499E+02  0.53042635198E+02  0.00000000000E+00 0. -1.
        -14    1    6    6    0    0  0.36454730648E+02  0.47831026461E+01  0.39450195541E+02  0.53927204505E+02  0.00000000000E+00 0.  1.
</event>
<event>
12    1  0.8219652E-002  0.3355852E+03  0.7818608E-02  0.1069681E+00
         21   -1    0    0  501  502  0.00000000000E+00  0.00000000000E+00  0.11775907821E+03  0.11775907821E+03  0.00000000000E+00 0. -1.
         21   -1    0    0  502  503 -0.00000000000E+00 -0.00000000000E+00 -0.10065283381E+04  0.10065283381E+04  0.00000000000E+00 0. -1.
         -6    2    1    2    0  503  0.25949141828E+03 -0.12532141164E+03 -0.59292131952E+03  0.67691348978E+03  0.15367149745E+03 0.  0.
        -24    2    3    3    0    0  0.96950104330E+02 -0.89589721363E+02 -0.22624581121E+03  0.27421080687E+03  0.81109546968E+02 0.  0.
          6    2    1    2  501    0 -0.25949141828E+03  0.12532141164E+03 -0.29584794041E+03  0.44737392657E+03  0.17197724836E+03 0.  0.
         24    2    5    5    0    0 -0.11053316033E+03 -0.54754529355E+01 -0.12671477373E+03  0.18675063432E+03  0.81065439113E+02 0.  0.
          5    1    5    5  501    0 -0.14895825795E+03  0.13079686457E+03 -0.16913316668E+03  0.26062329225E+03  0.47000000000E+01 0. -1.
        -11    1    6    6    0    0 -0.22154314681E+02 -0.96836703957E+01 -0.86035356852E+02  0.89368169725E+02  0.00000000000E+00 0.  1.
         12    1    6    6    0    0 -0.88378845647E+02  0.42082174602E+01 -0.40679416879E+02  0.97382464590E+02  0.00000000000E+00 0. -1.
         -5    1    3    3    0  503  0.16254131395E+03 -0.35731690272E+02 -0.36667550831E+03  0.40270268291E+03  0.47000000000E+01 0.  1.
         11    1    4    4    0    0  0.69973679400E+02 -0.79560471541E+02 -0.22081945901E+03  0.24492328986E+03  0.00000000000E+00 0. -1.
        -12    1    4    4    0    0  0.26976424930E+02 -0.10029249822E+02 -0.54263522000E+01  0.29287517003E+02  0.00000000000E+00 0.  1.
</event>
<event>
12    1  0.8219652E-002  0.1866899E+03  0.7818608E-02  0.1162006E+00
         21   -1    0    0  501  502  0.00000000000E+00  0.00000000000E+00  0.73543324115E+02  0.73543324115E+02  0.00000000000E+00 0. -1.
         21   -1    0    0  502  503 -0.00000000000E+00 -0.00000000000E+00 -0.51433217134E+03  0.51433217134E+03  0.00000000000E+00 0.  1.
         -6    2    1    2    0  503 -0.13350453294E+01 -0.73281618801E+02 -0.30721066066E+03  0.35831887758E+03  0.16923962304E+03 0.  0.
        -24    2    3    3    0    0  0.35157616366E+02 -0.80707082463E+02 -0.29444096731E+03  0.31867033490E+03  0.84294768321E+02 0.  0.
          6    2    1    2  501    0  0.13350453294E+01  0.73281618801E+02 -0.13357818657E+03  0.22955661788E+03  0.17170070147E+03 0.  0.
         24    2    5    5    0    0  0.31278140525E+02  0.66135345384E+02 -0.15672928357E+03  0.19075299091E+03  0.80438978300E+02 0.  0.
          5    1    5    5  501    0 -0.29943095195E+02  0.71462734169E+01  0.23151097000E+02  0.38803626969E+02  0.47000000000E+01 0. -1.
        -11    1    6    6    0    0  0.29797110942E+02 -0.64435736537E+01 -0.77576205614E+02  0.83351395546E+02  0.00000000000E+00 0.  1.
         12    1    6    6    0    0  0.14810295825E+01  0.72578919038E+02 -0.79153077952E+02  0.10740159536E+03  0.00000000000E+00 0. -1.
         -5    1    3    3    0  503 -0.36492661695E+02  0.74254636624E+01 -0.12769693348E+02  0.39648542677E+02  0.47000000000E+01 0.  1.
         11    1    4    4    0    0 -0.21604789347E+02 -0.53859828710E+02 -0.12057284647E+03  0.13381128269E+03  0.00000000000E+00 0. -1.
        -12    1    4    4    0    0  0.56762405713E+02 -0.26847253753E+02 -0.17386812084E+03  0.18485905221E+03  0.00000000000E+00 0.  1.
</event>
<event>
12    1  0.8219652E-002  0.1819253E+03  0.7818608E-02  0.1166600E+00
         21   -1    0    0  501  502  0.00000000000E+00  0.00000000000E+00  0.22599911670E+03  0.22599911670E+03  0.00000000000E+00 0.  1.
         21   -1    0    0  502  503 -0.00000000000E+00 -0.00000000000E+00 -0.15189869569E+03  0.15189869569E+03  0.00000000000E+00 0.  1.
         -6    2    1    2    0  503 -0.64884892746E+01 -0.49015852962E+02  0.79600936205E+02  0.19857773105E+03  0.17507755964E+03 0.  0.
        -24    2    3    3    0    0 -0.37139185653E+02 -0.31025067923E+02  0.11539776916E+03  0.14791574546E+03  0.78870455039E+02 0.  0.
          6    2    1    2  501    0  0.64884892746E+01  0.49015852962E+02 -0.55005151979E+01  0.17932008134E+03  0.17228111206E+03 0.  0.
         24    2    5    5    0    0 -0.62258695012E+02  0.33449820600E+02 -0.15829538808E+02  0.10792501541E+03  0.80013742881E+02 0.  0.
          5    1    5    5  501    0  0.68747184287E+02  0.15566032362E+02  0.10329023610E+02  0.71395065933E+02  0.47000000000E+01 0. -1.
        -13    1    6    6    0    0 -0.39488885896E+02 -0.16623890170E+02  0.14347146713E+02  0.45183696756E+02  0.00000000000E+00 0.  1.
         14    1    6    6    0    0 -0.22769809116E+02  0.50073710771E+02 -0.30176685521E+02  0.62741318655E+02  0.00000000000E+00 0. -1.
         -5    1    3    3    0  503  0.30650696379E+02 -0.17990785038E+02 -0.35796832950E+02  0.50661985591E+02  0.47000000000E+01 0.  1.
         11    1    4    4    0    0  0.15973972181E+01  0.23980179557E+02  0.41690064988E+02  0.48121327997E+02  0.00000000000E+00 0. -1.
        -12    1    4    4    0    0 -0.38736582872E+02 -0.55005247481E+02  0.73707704167E+02  0.99794417462E+02  0.00000000000E+00 0.  1.
</event>
<event>
12    1  0.8219652E-002  0.2154948E+03  0.7818608E-02  0.1137298E+00
         21   -1    0    0  501  502  0.00000000000E+00  0.00000000000E+00  0.36040737773E+03  0.36040737773E+03  0.00000000000E+00 0.  1.
         21   -1    0    0  502  503 -0.00000000000E+00 -0.00000000000E+00 -0.44374443740E+03  0.44374443740E+03  0.00000000000E+00 0. -1.
         -6    2    1    2    0  503  0.11880234688E+03 -0.48471517829E+02 -0.38039214309E+03  0.43716444885E+03  0.17306382390E+03 0.  0.
        -24    2    3    3    0    0  0.33725666708E+02 -0.21224042169E+02 -0.31123535732E+03  0.32409271296E+03  0.81121873647E+02 0.  0.
          6    2    1    2  501    0 -0.11880234688E+03  0.48471517829E+02  0.29705508343E+03  0.36698736628E+03  0.17313150710E+03 0.  0.
         24    2    5    5    0    0 -0.11544566572E+03  0.39607615743E+02  0.31412044938E+03  0.34690870139E+03  0.82325727575E+02 0.  0.
          5    1    5    5  501    0 -0.33566811602E+01  0.88639020857E+01 -0.17065365953E+02  0.20078664889E+02  0.47000000000E+01 0. -1.
        -13    1    6    6    0    0 -0.45797902342E+02  0.59049204564E+02  0.16827275534E+03  0.18411946287E+03  0.00000000000E+00 0.  1.
         14    1    6    6    0    0 -0.69647763380E+02 -0.19441588821E+02  0.14584769405E+03  0.16278923852E+03  0.00000000000E+00 0. -1.
         -5    1    3    3    0  503  0.85076680174E+02 -0.27247475660E+02 -0.69156785774E+02  0.11307173589E+03  0.47000000000E+01 0.  1.
         13    1    4    4    0    0  0.46998555944E+02 -0.43735430008E+02 -0.22588965335E+03  0.23483566082E+03  0.00000000000E+00 0. -1.
        -14    1    4    4    0    0 -0.13272889236E+02  0.22511387839E+02 -0.85345703965E+02  0.89257052138E+02  0.00000000000E+00 0.  1.
</event>
<event>
12    1  0.8219652E-002  0.2308872E+03  0.7818608E-02  0.1126051E+00
         21   -1    0    0  501  502  0.00000000000E+00  0.00000000000E+00  0.89354279976E+02  0.89354279976E+02  0.00000000000E+00 0.  1.
         21   -1    0    0  502  503 -0.00000000000E+00 -0.00000000000E+00 -0.95531222758E+03  0.95531222758E+03  0.00000000000E+00 0.  1.
         -6    2    1    2    0  503  0.10732602540E+03  0.11132941664E+03 -0.75316250278E+03  0.78770012269E+03  0.17118590170E+03 0.  0.
        -24    2    3    3    0    0  0.12370729263E+03  0.57985511021E+02 -0.39412325433E+03  0.42431989467E+03  0.77771586534E+02 0.  0.
          6    2    1    2  501    0 -0.10732602540E+03 -0.11132941664E+03 -0.11279544482E+03  0.25696638487E+03  0.17145202198E+03 0.  0.
         24    2    5    5    0    0 -0.13956250090E+03 -0.81169451990E+02 -0.64076259917E+02  0.19105384587E+03  0.79558992843E+02 0.  0.
          5    1    5    5  501    0  0.32236475493E+02 -0.30159964655E+02 -0.48719184903E+02  0.65912539003E+02  0.47000000000E+01 0. -1.
        -11    1    6    6    0    0 -0.13916315926E+03 -0.92447929934E+02 -0.53090741661E+02  0.17530439667E+03  0.00000000000E+00 0.  1.
         12    1    6    6    0    0 -0.39934164067E+00  0.11278477944E+02 -0.10985518256E+02  0.15749449191E+02  0.00000000000E+00 0. -1.
         -5    1    3    3    0  503 -0.16381267223E+02  0.53343905624E+02 -0.35903924845E+03  0.36338022801E+03  0.47000000000E+01 0.  1.
         13    1    4    4    0    0  0.17640069321E+02 -0.59889956498E+01 -0.10918090186E+02  0.21592702653E+02  0.00000000000E+00 0. -1.
        -14    1    4    4    0    0  0.10606722331E+03  0.63974506671E+02 -0.38320516415E+03  0.40272719202E+03  0.00000000000E+00 0.  1.
</event>
<event>
12    1  0.8219652E-002  0.1839686E+03  0.7818608E-02  0.1164035E+00
         21   -1    0    0  503  502  0.00000000000E+00  0.00000000000E+00  0.10755118606E+04  0.10755118606E+04  0.00000000000E+00 0. -1.
         21   -1    0    0  501  503 -0.00000000000E+00 -0.00000000000E+00 -0.34613771386E+02  0.34613771386E+02  0.00000000000E+00 0. -1.
          6    2    1    2  501    0  0.59703748384E+02 -0.31574601291E+02  0.68822705791E+03  0.71239099677E+03  0.17112263444E+03 0.  0.
         24    2    3    3    0    0  0.25222605007E+01 -0.74079303751E+02  0.33176580393E+03  0.34884858125E+03  0.78311422817E+02 0.  0.
         -6    2    1    2    0  502 -0.59703748384E+02  0.31574601291E+02  0.35267103127E+03  0.39773463518E+03  0.17103944197E+03 0.  0.
        -24    2    5    5    0    0 -0.16500188190E+02 -0.26322933869E+02  0.17885238098E+03  0.20944314473E+03  0.10446580126E+03 0.  0.
          5    1    3    3  501    0  0.57181487884E+02  0.42504702460E+02  0.35646125398E+03  0.36354241551E+03  0.47000000000E+01 0. -1.
        -13    1    4    4    0    0  0.35908880254E+02 -0.37090061794E+02  0.10940867999E+03  0.12097677307E+03  0.00000000000E+00 0.  1.
         14    1    4    4    0    0 -0.33386619753E+02 -0.36989241957E+02  0.22235712394E+03  0.22787180818E+03  0.00000000000E+00 0. -1.
         -5    1    5    5    0  502 -0.43203560194E+02  0.57897535160E+02  0.17381865028E+03  0.18829149045E+03  0.47000000000E+01 0.  1.
         11    1    6    6    0    0 -0.98104025689E+01 -0.22773715515E+02  0.19236310686E+03  0.19395476534E+03  0.00000000000E+00 0. -1.
        -12    1    6    6    0    0 -0.66897856215E+01 -0.35492183536E+01 -0.13510725873E+02  0.15488379392E+02  0.00000000000E+00 0.  1.
</event>
<event>
12    1  0.8219652E-002  0.2268878E+03  0.7818608E-02  0.1129640E+00
         21   -1    0    0  503  502  0.00000000000E+00  0.00000000000E+00  0.54461708724E+02  0.54461708724E+02  0.00000000000E+00 0. -1.
         21   -1    0    0  501  503 -0.00000000000E+00 -0.00000000000E+00 -0.94003460518E+03  0.94003460518E+03  0.00000000000E+00 0.  1.
          6    2    1    2  501    0 -0.63261567561E+02 -0.13267625006E+03 -0.50535538461E+03  0.55395140167E+03  0.17283829840E+03 0.  0.
         24    2    3    3    0    0 -0.10640064084E+03 -0.11838357019E+03 -0.43595613099E+03  0.47086345582E+03  0.79491382057E+02 0.  0.
         -6    2    1    2    0  502  0.63261567561E+02  0.13267625006E+03 -0.38021751185E+03  0.44054491224E+03  0.16706121669E+03 0.  0.
        -24    2    5    5    0    0  0.14078355170E+02  0.95536555149E+02 -0.12228821035E+03  0.17531301391E+03  0.80341850875E+02 0.  0.
          5    1    3    3  501    0  0.43139073279E+02 -0.14292679869E+02 -0.69399253621E+02  0.83087945843E+02  0.47000000000E+01 0. -1.
        -11    1    4    4    0    0 -0.65447253265E+02 -0.11994965403E+03 -0.32362853771E+03  0.35129288760E+03  0.00000000000E+00 0.  1.
         12    1    4    4    0    0 -0.40953387575E+02  0.15660838366E+01 -0.11232759328E+03  0.11957056822E+03  0.00000000000E+00 0. -1.
         -5    1    5    5    0  502  0.49183212391E+02  0.37139694913E+02 -0.25792930150E+03  0.26523189833E+03  0.47000000000E+01 0.  1.
         13    1    6    6    0    0 -0.16537763233E+01 -0.10377210049E+02  0.25817457744E+01  0.10820668915E+02  0.00000000000E+00 0. -1.
        -14    1    6    6    0    0  0.15732131493E+02  0.10591376520E+03 -0.12486995613E+03  0.16449234500E+03  0.00000000000E+00 0.  1.
</event>
<event>
12    1  0.8219652E-002  0.2225884E+03  0.7818608E-02  0.1132050E+00
         21   -1    0    0  501  502  0.00000000000E+00  0.00000000000E+00  0.82240746198E+03  0.82240746198E+03  0.00000000000E+00 0.  1.
         21   -1    0    0  502  503 -0.00000000000E+00 -0.00000000000E+00 -0.13647199865E+03  0.13647199865E+03  0.00000000000E+00 0.  1.
         -6    2    1    2    0  503 -0.81383666945E+02  0.11573730293E+03 -0.15784328892E+02  0.22270266979E+03  0.17125685259E+03 0.  0.
        -24    2    3    3    0    0 -0.34691711180E+02  0.38243225637E+02 -0.69006207600E+02  0.11763065106E+03  0.80056569053E+02 0.  0.
          6    2    1    2  501    0  0.81383666945E+02 -0.11573730293E+03  0.70171979222E+03  0.73617679084E+03  0.17183473466E+03 0.  0.
         24    2    5    5    0    0  0.80512497678E+02 -0.11996512062E+03  0.70817429536E+03  0.72710022821E+03  0.79309626228E+02 0.  0.
          5    1    5    5  501    0  0.87116926757E+00  0.42278176935E+01 -0.64545031361E+01  0.90765626245E+01  0.47000000000E+01 0. -1.
        -11    1    6    6    0    0  0.11328096596E+02 -0.71465247542E+02  0.44063683117E+03  0.44653826752E+03  0.00000000000E+00 0.  1.
         12    1    6    6    0    0  0.69184401082E+02 -0.48499873081E+02  0.26753746419E+03  0.28056196069E+03  0.00000000000E+00 0. -1.
         -5    1    3    3    0  503 -0.46691955765E+02  0.77494077292E+02  0.53221878708E+02  0.10507201874E+03  0.47000000000E+01 0.  1.
         13    1    4    4    0    0 -0.49247288598E+02 -0.51292273731E+01 -0.35900820243E+02  0.61159408939E+02  0.00000000000E+00 0. -1.
        -14    1    4    4    0    0  0.14555577418E+02  0.43372453010E+02 -0.33105387358E+02  0.56471242116E+02  0.00000000000E+00 0.  1.
</event>
<event>
12    1  0.8219652E-002  0.2307438E+03  0.7818608E-02  0.1126248E+00
         21   -1    0    0  503  502  0.00000000000E+00  0.00000000000E+00  0.99059222144E+03  0.99059222144E+03  0.00000000000E+00 0.  1.
         21   -1    0    0  501  503 -0.00000000000E+00 -0.00000000000E+00 -0.63290226971E+03  0.63290226971E+03  0.00000000000E+00 0. -1.
          6    2    1    2  501    0  0.30971305647E+01  0.14976850719E+03 -0.59776074383E+03  0.64075003774E+03  0.17550642734E+03 0.  0.
         24    2    3    3    0    0  0.17519839925E+02  0.79380116021E+02 -0.14994772291E+03  0.18718512303E+03  0.77109033617E+02 0.  0.
         -6    2    1    2    0  502 -0.30971305647E+01 -0.14976850719E+03  0.95545069556E+03  0.98274445341E+03  0.17452916980E+03 0.  0.
        -24    2    5    5    0    0 -0.67478604095E+02 -0.66908959255E+02  0.54239653298E+03  0.55654437125E+03  0.80730832631E+02 0.  0.
          5    1    3    3  501    0 -0.14422709361E+02  0.70388391164E+02 -0.44781302092E+03  0.45356491471E+03  0.47000000000E+01 0. -1.
        -13    1    4    4    0    0 -0.18737208434E+02 -0.44319465977E+01 -0.38964092032E+02  0.43461771690E+02  0.00000000000E+00 0.  1.
         14    1    4    4    0    0  0.36257048359E+02  0.83812062619E+02 -0.11098363088E+03  0.14372335134E+03  0.00000000000E+00 0. -1.
         -5    1    5    5    0  502  0.64381473530E+02 -0.82859547931E+02  0.41305416258E+03  0.42620008217E+03  0.47000000000E+01 0.  1.
         13    1    6    6    0    0 -0.30019723896E+02 -0.77145533705E+02  0.30692804312E+03  0.31789533002E+03  0.00000000000E+00 0. -1.
        -14    1    6    6    0    0 -0.37458880199E+02  0.10236574450E+02  0.23546848986E+03  0.23864904123E+03  0.00000000000E+00 0.  1.
</event>
<event>
12    1  0.8219652E-002  0.1866894E+03  0.7818608E-02  0.1161914E+00
         21   -1    0    0  501  502  0.00000000000E+00  0.00000000000E+00  0.40097799009E+02  0.40097799009E+02  0.00000000000E+00 0. -1.
         21   -1    0    0  502  503 -0.00000000000E+00 -0.00000000000E+00 -0.86070274431E+03  0.86070274431E+03  0.00000000000E+00 0. -1.
         -6    2    1    2    0  503  0.65203152662E+02  0.27615914952E+02 -0.41458872509E+03  0.45392012950E+03  0.17072077530E+03 0.  0.
        -24    2    3    3    0    0 -0.26753684640E+02  0.57022617844E+01 -0.13825441995E+03  0.16182595578E+03  0.79530370920E+02 0.  0.
          6    2    1    2  501    0 -0.65203152662E+02 -0.27615914952E+02 -0.40601622022E+03  0.44688041382E+03  0.17273923499E+03 0.  0.
         24    2    5    5    0    0 -0.96121593648E+02 -0.41264933772E+02 -0.38529037657E+03  0.40695678294E+03  0.78885951743E+02 0.  0.
          5    1    5    5  501    0  0.30918440986E+02  0.13649018820E+02 -0.20725843651E+02  0.39923630882E+02  0.47000000000E+01 0. -1.
        -13    1    6    6    0    0  0.21903529211E+01 -0.15564775860E+02 -0.11172423087E+02  0.19284266414E+02  0.00000000000E+00 0.  1.
         14    1    6    6    0    0 -0.98311946569E+02 -0.25700157912E+02 -0.37411795348E+03  0.38767251653E+03  0.00000000000E+00 0. -1.
         -5    1    3    3    0  503  0.91956837302E+02  0.21913653167E+02 -0.27633430514E+03  0.29209417372E+03  0.47000000000E+01 0.  1.
         13    1    4    4    0    0  0.19762313159E+02  0.80356602439E+01 -0.97910310619E+02  0.10020753356E+03  0.00000000000E+00 0. -1.
        -14    1    4    4    0    0 -0.46515997799E+02 -0.23333984595E+01 -0.40344109329E+02  0.61618422222E+02  0.00000000000E+00 0.  1.
</event>
<event>
12    1  0.8219652E-002  0.2314463E+03  0.7818608E-02  0.1125822E+00
         21   -1    0    0  501  502  0.00000000000E+00  0.00000000000E+00  0.46191323048E+03  0.46191323048E+03  0.00000000000E+00 0. -1.
         21   -1    0    0  502  503 -0.00000000000E+00 -0.00000000000E+00 -0.12001854438E+03  0.12001854438E+03  0.00000000000E+00 0. -1.
         -6    2    1    2    0  503 -0.94584840286E+01  0.15288889939E+03  0.11431459800E+03  0.25813793946E+03  0.17350184435E+03 0.  0.
        -24    2    3    3    0    0 -0.55003884125E+02  0.37590742091E+02  0.21742483590E+02  0.10334861517E+03  0.75958603894E+02 0.  0.
          6    2    1    2  501    0  0.94584840286E+01 -0.15288889939E+03  0.22758008810E+03  0.32379383540E+03  0.17200370017E+03 0.  0.
         24    2    5    5    0    0 -0.90764381575E+00 -0.38489388729E+02  0.30303528923E+02  0.95463295516E+02  0.81930946922E+02 0.  0.
          5    1    5    5  501    0  0.10366127844E+02 -0.11439951066E+03  0.19727655917E+03  0.22833053989E+03  0.47000000000E+01 0. -1.
        -11    1    6    6    0    0  0.38110785497E+02 -0.13168571884E+02  0.27614535328E+02  0.48871318972E+02  0.00000000000E+00 0.  1.
         12    1    6    6    0    0 -0.39018429313E+02 -0.25320816844E+02  0.26889935946E+01  0.46591976544E+02  0.00000000000E+00 0. -1.
         -5    1    3    3    0  503  0.45545400096E+02  0.11529815730E+03  0.92572114405E+02  0.15478932428E+03  0.47000000000E+01 0.  1.
         13    1    4    4    0    0 -0.36769462952E+00  0.22293854532E+02 -0.22291464396E+02  0.31528725540E+02  0.00000000000E+00 0. -1.
        -14    1    4    4    0    0 -0.54636189495E+02  0.15296887559E+02  0.44033947987E+02  0.71819889632E+02  0.00000000000E+00 0.  1.
</event>
<event>
12    1  0.8219652E-002  0.1874885E+03  0.7818608E-02  0.1160933E+00
         21   -1    0    0  501  502  0.00000000000E+00  0.00000000000E+00  0.35591915128E+03  0.35591915128E+03  0.00000000000E+00 0.  1.
         21   -1    0    0  502  503 -0.00000000000E+00 -0.00000000000E+00 -0.10809606796E+03  0.10809606796E+03  0.00000000000E+00 0.  1.
         -6    2    1    2    0  503 -0.72421389793E+02  0.44811822326E+01  0.19338234761E+03  0.26878275001E+03  0.17199562681E+03 0.  0.
        -24    2    3    3    0    0 -0.51846071135E+02 -0.25173480694E+02  0.32141882913E+02  0.10348507844E+03  0.79714124218E+02 0.  0.
          6    2    1    2  501    0  0.72421389793E+02 -0.44811822326E+01  0.54440735716E+02  0.19523246923E+03  0.17287852568E+03 0.  0.
         24    2    5    5    0    0 -0.79064837316E+01 -0.25479471109E+02 -0.16316291301E+02  0.86043906305E+02  0.80159943347E+02 0.  0.
          5    1    5    5  501    0  0.80327873525E+02  0.20998288876E+02  0.70757027017E+02  0.10918856292E+03  0.47000000000E+01 0. -1.
        -11    1    6    6    0    0  0.33937505309E+02 -0.14674195566E+02  0.59153467425E+01  0.37444326796E+02  0.00000000000E+00 0.  1.
         12    1    6    6    0    0 -0.41843989040E+02 -0.10805275543E+02 -0.22231638044E+02  0.48599579509E+02  0.00000000000E+00 0. -1.
         -5    1    3    3    0  503 -0.20575318658E+02  0.29654662926E+02  0.16124046469E+03  0.16529767157E+03  0.47000000000E+01 0.  1.
         11    1    4    4    0    0 -0.27034770056E+02 -0.13137031087E+02  0.58225938896E+02  0.65526485776E+02  0.00000000000E+00 0. -1.
        -12    1    4    4    0    0 -0.24811301079E+02 -0.12036449607E+02 -0.26084055983E+02  0.37958592662E+02  0.00000000000E+00 0.  1.
</event>
<event>
12    1  0.8219652E-002  0.1935019E+03  0.7818608E-02  0.1155504E+00
         21   -1    0    0  501  502  0.00000000000E+00  0.00000000000E+00  0.22760468355E+02  0.22760468355E+02  0.00000000000E+00 0. -1.
         21   -1    0    0  502  503 -0.00000000000E+00 -0.00000000000E+00 -0.27085141692E+04  0.27085141692E+04  0.00000000000E+00 0.  1.
         -6    2    1    2    0  503  0.56035028407E+02 -0.68513243896E+02 -0.22026849205E+04  0.22111679785E+04  0.17207260365E+03 0.  0.
        -24    2    3    3    0    0  0.88454051496E+02 -0.64988435115E+02 -0.13089513223E+04  0.13168272985E+04  0.92913690549E+02 0.  0.
          6    2    1    2  501    0 -0.56035028407E+02  0.68513243896E+02 -0.48306878031E+03  0.52010665907E+03  0.17123522214E+03 0.  0.
         24    2    5    5    0    0  0.19791236218E+02  0.59196271728E+01 -0.32289278598E+03  0.33210128037E+03  0.74865039688E+02 0.  0.
          5    1    5    5  501    0 -0.75826264625E+02  0.62593616724E+02 -0.16017599433E+03  0.18800537870E+03  0.47000000000E+01 0. -1.
        -11    1    6    6    0    0  0.25130698920E+02  0.36162898291E+02 -0.14371793848E+03  0.15031351596E+03  0.00000000000E+00 0.  1.
         12    1    6    6    0    0 -0.53394627018E+01 -0.30243271118E+02 -0.17917484750E+03  0.18178776441E+03  0.00000000000E+00 0. -1.
         -5    1    3    3    0  503 -0.32419023089E+02 -0.35248087811E+01 -0.89373359823E+03  0.89434068002E+03  0.47000000000E+01 0.  1.
         11    1    4    4    0    0  0.12685811082E+02 -0.66596888514E+02 -0.65514820523E+03  0.65864652598E+03  0.00000000000E+00 0. -1.
        -12    1    4    4    0    0  0.75768240413E+02  0.16084533985E+01 -0.65380311708E+03  0.65818077250E+03  0.00000000000E+00 0.  1.
</event>
<event>
12    1  0.8219652E-002  0.2050736E+03  0.7818608E-02  0.1145872E+00
         21   -1    0    0  503  502  0.00000000000E+00  0.00000000000E+00  0.45035313726E+03  0.45035313726E+03  0.00000000000E+00 0.  1.
         21   -1    0    0  501  503 -0.00000000000E+00 -0.00000000000E+00 -0.48160311483E+03  0.48160311483E+03  0.00000000000E+00 0.  1.
          6    2    1    2  501    0  0.41057387413E+02 -0.10181237036E+03 -0.43439243645E+03  0.47965214017E+03  0.17122476135E+03 0.  0.
         24    2    3    3    0    0  0.14988292029E+02 -0.50606052407E+02 -0.40234298701E+03  0.41369046992E+03  0.80463061498E+02 0.  0.
         -6    2    1    2    0  502 -0.41057387413E+02  0.10181237036E+03  0.40314245889E+03  0.45230411192E+03  0.17321576049E+03 0.  0.
        -24    2    5    5    0    0 -0.69045340511E+02  0.11900601689E+03  0.37949817756E+03  0.41155992167E+03  0.80206054962E+02 0.  0.
          5    1    3    3  501    0  0.26069095384E+02 -0.51206317956E+02 -0.32049449444E+02  0.65961670252E+02  0.47000000000E+01 0. -1.
        -11    1    4    4    0    0  0.19519365125E+02 -0.71810549756E+02 -0.32022683183E+03  0.32875976715E+03  0.00000000000E+00 0.  1.
         12    1    4    4    0    0 -0.45310730964E+01  0.21204497350E+02 -0.82116155178E+02  0.84930702767E+02  0.00000000000E+00 0. -1.
         -5    1    5    5    0  502  0.27987953098E+02 -0.17193646530E+02  0.23644281331E+02  0.40744190252E+02  0.47000000000E+01 0.  1.
         13    1    6    6    0    0 -0.51886591333E+02  0.49921657342E+02  0.10054484027E+03  0.12366751852E+03  0.00000000000E+00 0. -1.
        -14    1    6    6    0    0 -0.17158749178E+02  0.69084359550E+02  0.27895333729E+03  0.28789240315E+03  0.00000000000E+00 0.  1.
</event>
<event>
12    1  0.8219652E-002  0.1905383E+03  0.7818608E-02  0.1158081E+00
         21   -1    0    0  501  502  0.00000000000E+00  0.00000000000E+00  0.29164514125E+03  0.29164514125E+03  0.00000000000E+00 0. -1.
         21   -1    0    0  502  503 -0.00000000000E+00 -0.00000000000E+00 -0.14849744626E+03  0.14849744626E+03  0.00000000000E+00 0.  1.
         -6    2    1    2    0  503  0.52565404527E+02 -0.63518097946E+02 -0.17553233281E+02  0.19088444897E+03  0.17126320778E+03 0.  0.
        -24    2    3    3    0    0  0.55580788318E+02 -0.10797097628E+03 -0.13532017078E+02  0.14590210676E+03  0.79733014000E+02 0.  0.
          6    2    1    2  501    0 -0.52565404527E+02  0.63518097946E+02  0.16070092827E+03  0.24925813855E+03  0.17177648490E+03 0.  0.
         24    2    5    5    0    0 -0.96508172520E+02  0.27100850898E+02  0.60399804731E+02  0.13376100384E+03  0.64773345248E+02 0.  0.
          5    1    5    5  501    0  0.43942767993E+02  0.36417247048E+02  0.10030112354E+03  0.11549713471E+03  0.47000000000E+01 0. -1.
        -13    1    6    6    0    0 -0.37743479922E+02  0.30636909852E+02 -0.11008122030E+01  0.48625120148E+02  0.00000000000E+00 0.  1.
         14    1    6    6    0    0 -0.58764692597E+02 -0.35360589537E+01  0.61500616934E+02  0.85135883693E+02  0.00000000000E+00 0. -1.
         -5    1    3    3    0  503 -0.30153837912E+01  0.44452878330E+02 -0.40212162032E+01  0.44982342213E+02  0.47000000000E+01 0.  1.
         13    1    4    4    0    0  0.36808199292E+02 -0.34490504034E+02  0.29768146205E+02  0.58571161267E+02  0.00000000000E+00 0. -1.
        -14    1    4    4    0    0  0.18772589026E+02 -0.73480472242E+02 -0.43300163283E+02  0.87330945489E+02  0.00000000000E+00 0.  1.
</event>
<event>
12    1  0.8219652E-002  0.2212351E+03  0.7818608E-02  0.1133012E+00
         21   -1    0    0  503  502  0.00000000000E+00  0.00000000000E+00  0.30920951768E+03  0.30920951768E+03  0.00000000000E+00 0.  1.
         21   -1    0    0  501  503 -0.00000000000E+00 -0.00000000000E+00 -0.17334897711E+03  0.17334897711E+03  0.00000000000E+00 0.  1.
          6    2    1    2  501    0  0.62784052317E+02  0.12449884279E+03  0.13943303556E+03  0.26129459984E+03  0.17143948617E+03 0.  0.
         24    2    3    3    0    0  0.79413211028E+02  0.14760248153E+03  0.10032891953E+03  0.21269903488E+03  0.84154837672E+02 0.  0.
         -6    2    1    2    0  502 -0.62784052317E+02 -0.12449884279E+03 -0.35724949895E+01  0.22126389495E+03  0.17176480841E+03 0.  0.
        -24    2    5    5    0    0 -0.15399170862E+01 -0.79457126081E+02 -0.58435459370E+02  0.12739358439E+03  0.80613995085E+02 0.  0.
          5    1    3    3  501    0 -0.16629158711E+02 -0.23103638747E+02  0.39104116036E+02  0.48595564959E+02  0.47000000000E+01 0. -1.
        -11    1    4    4    0    0  0.51927292481E+02  0.37272673159E+02  0.46350826236E+01  0.64087283136E+02  0.00000000000E+00 0.  1.
         12    1    4    4    0    0  0.27485918547E+02  0.11032980837E+03  0.95693836904E+02  0.14861175174E+03  0.00000000000E+00 0. -1.
         -5    1    5    5    0  502 -0.61244135231E+02 -0.45041716704E+02  0.54862964380E+02  0.93870310559E+02  0.47000000000E+01 0.  1.
         13    1    6    6    0    0  0.25597640772E+02 -0.79637310441E+02 -0.54826705497E+02  0.10001653895E+03  0.00000000000E+00 0. -1.
        -14    1    6    6    0    0 -0.27137557858E+02  0.18018436064E+00 -0.36087538730E+01  0.27377045447E+02  0.00000000000E+00 0.  1.
</event>
<event>
12    1  0.8219652E-002  0.1900466E+03  0.7818608E-02  0.1158432E+00
         21   -1    0    0  501  502  0.00000000000E+00  0.00000000000E+00  0.68363222414E+03  0.68363222414E+03  0.00000000000E+00 0. -1.
         21   -1    0    0  502  503 -0.00000000000E+00 -0.00000000000E+00 -0.83126215048E+02  0.83126215048E+02  0.00000000000E+00 0. -1.
         -6    2    1    2    0  503 -0.40338362335E+02 -0.69920099272E+02  0.68782205896E+02  0.20211062806E+03  0.17205147592E+03 0.  0.
        -24    2    3    3    0    0  0.23160814654E+02 -0.38563086574E+02  0.89632703869E+02  0.12813603114E+03  0.79757669797E+02 0.  0.
          6    2    1    2  501    0  0.40338362335E+02  0.69920099272E+02  0.53172380320E+03  0.56464781114E+03  0.17199111597E+03 0.  0.
         24    2    5    5    0    0 -0.28768827398E+02 -0.12774621798E+02  0.20403034101E+03  0.21965604931E+03  0.75030417523E+02 0.  0.
          5    1    5    5  501    0  0.69107189732E+02  0.82694721070E+02  0.32769346219E+03  0.34499176183E+03  0.47000000000E+01 0. -1.
        -13    1    6    6    0    0  0.15658076313E+02  0.11607278797E+02  0.11964903900E+03  0.12122622162E+03  0.00000000000E+00 0.  1.
         14    1    6    6    0    0 -0.44426903710E+02 -0.24381900594E+02  0.84381302009E+02  0.98429827688E+02  0.00000000000E+00 0. -1.
         -5    1    3    3    0  503 -0.63499176989E+02 -0.31357012699E+02 -0.20850497973E+02  0.73974596919E+02  0.47000000000E+01 0.  1.
         11    1    4    4    0    0 -0.85721905074E+00 -0.17646305277E+02 -0.12179480123E+02  0.21458486678E+02  0.00000000000E+00 0. -1.
        -12    1    4    4    0    0  0.24018033705E+02 -0.20916781296E+02  0.10181218399E+03  0.10667754446E+03  0.00000000000E+00 0.  1.
</event>
<event>
12    1  0.8219652E-002  0.2866159E+03  0.7818608E-02  0.1092523E+00
         21   -1    0    0  501  502  0.00000000000E+00  0.00000000000E+00  0.11234992928E+04  0.11234992928E+04  0.00000000000E+00 0.  1.
         21   -1    0    0  502  503 -0.00000000000E+00 -0.00000000000E+00 -0.72383053266E+02  0.72383053266E+02  0.00000000000E+00 0. -1.
         -6    2    1    2    0  503  0.21274771438E+03  0.76724010076E+02  0.51400225360E+03  0.58708017106E+03  0.17122104673E+03 0.  0.
        -24    2    3    3    0    0  0.18378322205E+03  0.55169217262E+02  0.27114975711E+03  0.34151352845E+03  0.79305637201E+02 0.  0.
          6    2    1    2  501    0 -0.21274771438E+03 -0.76724010076E+02  0.53711398589E+03  0.60880217497E+03  0.17606956212E+03 0.  0.
         24    2    5    5    0    0 -0.19284862600E+03 -0.39199217877E+02  0.29811002033E+03  0.36600788076E+03  0.79781033587E+02 0.  0.
          5    1    5    5  501    0 -0.19899088380E+02 -0.37524792199E+02  0.23900396556E+03  0.24279429421E+03  0.47000000000E+01 0. -1.
        -13    1    6    6    0    0 -0.12086059155E+03  0.15614702441E+02  0.17013268004E+03  0.20927548910E+03  0.00000000000E+00 0.  1.
         14    1    6    6    0    0 -0.71988034456E+02 -0.54813920318E+02  0.12797734030E+03  0.15673239166E+03  0.00000000000E+00 0. -1.
         -5    1    3    3    0  503  0.28964492330E+02  0.21554792814E+02  0.24285249649E+03  0.24556664261E+03  0.47000000000E+01 0.  1.
         11    1    4    4    0    0  0.13792228515E+03  0.15516364643E+02  0.14055464502E+03  0.19753207980E+03  0.00000000000E+00 0. -1.
        -12    1    4    4    0    0  0.45860936907E+02  0.39652852618E+02  0.13059511209E+03  0.14398144865E+03  0.00000000000E+00 0.  1.
</event>
<event>
12    1  0.8219652E-002  0.2084220E+03  0.7818608E-02  0.1143081E+00
         21   -1    0    0  501  502  0.00000000000E+00  0.00000000000E+00  0.27234930040E+03  0.27234930040E+03  0.00000000000E+00 0.  1.
         21   -1    0    0  502  503 -0.00000000000E+00 -0.00000000000E+00 -0.21432869838E+03  0.21432869838E+03  0.00000000000E+00 0.  1.
         -6    2    1    2    0  503  0.11330327754E+03  0.22213645777E+02 -0.95233995434E+02  0.22797605997E+03  0.17196654114E+03 0.  0.
        -24    2    3    3    0    0  0.66325614932E+02  0.44265759767E+02  0.81202988389E+01  0.11222893620E+03  0.78554759137E+02 0.  0.
          6    2    1    2  501    0 -0.11330327754E+03 -0.22213645777E+02  0.15325459745E+03  0.25870193882E+03  0.17351842193E+03 0.  0.
         24    2    5    5    0    0  0.19140797141E+01 -0.18656873089E+02  0.10605861694E+03  0.13405347063E+03  0.79813283014E+02 0.  0.
          5    1    5    5  501    0 -0.11521735726E+03 -0.35567726880E+01  0.47195980504E+02  0.12464846819E+03  0.47000000000E+01 0. -1.
        -13    1    6    6    0    0 -0.36743620349E+02 -0.13515466528E+02  0.73392276344E+02  0.83181654821E+02  0.00000000000E+00 0.  1.
         14    1    6    6    0    0  0.38657700063E+02 -0.51414065605E+01  0.32666340599E+02  0.50871815809E+02  0.00000000000E+00 0. -1.
         -5    1    3    3    0  503  0.46977662611E+02 -0.22052113990E+02 -0.10335429427E+03  0.11574712377E+03  0.47000000000E+01 0.  1.
         13    1    4    4    0    0  0.54886300835E+02 -0.70056221599E+01  0.19149539124E+02  0.58551597843E+02  0.00000000000E+00 0. -1.
        -14    1    4    4    0    0  0.11439314097E+02  0.51271381927E+02 -0.11029240286E+02  0.53677338356E+02  0.00000000000E+00 0.  1.
</event>
<event>
12    1  0.8219652E-002  0.2157504E+03  0.7818608E-02  0.1137149E+00
         21   -1    0    0  501  502  0.00000000000E+00  0.00000000000E+00  0.24905223532E+03  0.24905223532E+03  0.00000000000E+00 0.  1.
         21   -1    0    0  502  503 -0.00000000000E+00 -0.00000000000E+00 -0.32487138660E+03  0.32487138660E+03  0.00000000000E+00 0. -1.
         -6    2    1    2    0  503 -0.12449993547E+03  0.35434848609E+02 -0.22511057596E+03  0.31180606313E+03  0.17260471364E+03 0.  0.
        -24    2    3    3    0    0 -0.76663017229E+02  0.46825839224E+02 -0.23156606589E+03  0.26198750470E+03  0.83335060553E+02 0.  0.
          6    2    1    2  501    0  0.12449993547E+03 -0.35434848609E+02  0.14929142467E+03  0.26211755879E+03  0.17222608025E+03 0.  0.
         24    2    5    5    0    0  0.48256394977E+02 -0.51016210815E+02  0.15144824253E+03  0.18412654535E+03  0.77683209994E+02 0.  0.
          5    1    5    5  501    0  0.76243540490E+02  0.15581362206E+02 -0.21568178558E+01  0.77991013444E+02  0.47000000000E+01 0. -1.
        -13    1    6    6    0    0 -0.15796115796E+01 -0.22323692204E+02  0.11242423357E+03  0.11463006019E+03  0.00000000000E+00 0.  1.
         14    1    6    6    0    0  0.49836006556E+02 -0.28692518611E+02  0.39024008961E+02  0.69496485157E+02  0.00000000000E+00 0. -1.
         -5    1    3    3    0  503 -0.47836918238E+02 -0.11390990616E+02  0.64554899328E+01  0.49818558430E+02  0.47000000000E+01 0.  1.
         13    1    4    4    0    0 -0.55429834610E+02  0.74334030708E+01 -0.19881887985E+03  0.20653490996E+03  0.00000000000E+00 0. -1.
        -14    1    4    4    0    0 -0.21233182619E+02  0.39392436154E+02 -0.32747186042E+02  0.55452594744E+02  0.00000000000E+00 0.  1.
</event>
<event>
12    1  0.8219652E-002  0.2442154E+03  0.7818608E-02  0.1117370E+00
         21   -1    0    0  503  502  0.00000000000E+00  0.00000000000E+00  0.10831723825E+03  0.10831723825E+03  0.00000000000E+00 0. -1.
         21   -1    0    0  501  503 -0.00000000000E+00 -0.00000000000E+00 -0.18536762392E+04  0.18536762392E+04  0.00000000000E+00 0.  1.
          6    2    1    2  501    0 -0.40241826556E+02  0.16862612652E+03 -0.16978508975E+04  0.17153246999E+04  0.17200866486E+03 0.  0.
         24    2    3    3    0    0  0.16581867315E+02  0.14062014647E+03 -0.87225438840E+03  0.88728789339E+03  0.80019396049E+02 0.  0.
         -6    2    1    2    0  502  0.40241826556E+02 -0.16862612652E+03 -0.47508103409E+02  0.24666877751E+03  0.16892096010E+03 0.  0.
        -24    2    5    5    0    0 -0.38767140594E+02 -0.55905116850E+02 -0.48629163581E+01  0.10248436473E+03  0.76492638721E+02 0.  0.
          5    1    3    3  501    0 -0.56823693871E+02  0.28005980048E+02 -0.82559650913E+03  0.82803680655E+03  0.47000000000E+01 0. -1.
        -11    1    4    4    0    0  0.23233157760E+02  0.20797402515E+02 -0.35169582338E+03  0.35307543635E+03  0.00000000000E+00 0.  1.
         12    1    4    4    0    0 -0.66512904451E+01  0.11982274396E+03 -0.52055856503E+03  0.53421245704E+03  0.00000000000E+00 0. -1.
         -5    1    5    5    0  502  0.79008967150E+02 -0.11272100967E+03 -0.42645187051E+02  0.14418441278E+03  0.47000000000E+01 0.  1.
         11    1    6    6    0    0 -0.42180947253E+02 -0.71913392727E+02  0.47422003077E+01  0.83506028695E+02  0.00000000000E+00 0. -1.
        -12    1    6    6    0    0  0.34138066590E+01  0.16008275877E+02 -0.96051166658E+01  0.18978336034E+02  0.00000000000E+00 0.  1.
</event>
<event>
12    1  0.8219652E-002  0.2768813E+03  0.7818608E-02  0.1097913E+00
         21   -1    0    0  501  502  0.00000000000E+00  0.00000000000E+00  0.65937180891E+03  0.65937180891E+03  0.00000000000E+00 0.  1.
         21   -1    0    0  502  503 -0.00000000000E+00 -0.00000000000E+00 -0.16364347861E+03  0.16364347861E+03  0.00000000000E+00 0.  1.
         -6    2    1    2    0  503 -0.18033285683E+03 -0.11155018686E+03  0.24066687862E+02  0.27792531810E+03  0.17804463916E+03 0.  0.
        -24    2    3    3    0    0 -0.14657630250E+03 -0.13687561406E+03 -0.21922625154E+02  0.21533147547E+03  0.75282777956E+02 0.  0.
          6    2    1    2  501    0  0.18033285683E+03  0.11155018686E+03  0.47166164243E+03  0.54508996942E+03  0.17232233279E+03 0.  0.
         24    2    5    5    0    0  0.13088277670E+03  0.24478126361E+02  0.18205939661E+03  0.23862887086E+03  0.77901439059E+02 0.  0.
          5    1    5    5  501    0  0.49450080134E+02  0.87072060501E+02  0.28960224582E+03  0.30646109856E+03  0.47000000000E+01 0. -1.
        -13    1    6    6    0    0  0.89486842178E+02  0.56929959948E+01  0.16902750025E+03  0.19133896876E+03  0.00000000000E+00 0.  1.
         14    1    6    6    0    0  0.41395934519E+02  0.18785130366E+02  0.13031896360E+02  0.47289902096E+02  0.00000000000E+00 0. -1.
         -5    1    3    3    0  503 -0.33756554333E+02  0.25325427199E+02  0.45989313017E+02  0.62593842628E+02  0.47000000000E+01 0.  1.
         11    1    4    4    0    0 -0.36045451636E+02 -0.34581757597E+02  0.27254538651E+02  0.56903272482E+02  0.00000000000E+00 0. -1.
        -12    1    4    4    0    0 -0.11053085086E+03 -0.10229385646E+03 -0.49177163805E+02  0.15842820299E+03  0.00000000000E+00 0.  1.
</event>
<event>
12    1  0.8219652E-002  0.1797958E+03  0.7818608E-02  0.1169805E+00
         21   -1    0    0  501  502  0.00000000000E+00  0.00000000000E+00  0.12647559831E+03  0.12647559831E+03  0.00000000000E+00 0.  1.
         21   -1    0    0  502  503 -0.00000000000E+00 -0.00000000000E+00 -0.35379974372E+03  0.35379974372E+03  0.00000000000E+00 0.  1.
         -6    2    1    2    0  503  0.17068886514E+02 -0.23149732056E+02 -0.24822362321E+03  0.30649877509E+03  0.17748035113E+03 0.  0.
        -24    2    3    3    0    0 -0.29933420487E+02 -0.30421880053E+02 -0.24173076762E+03  0.25826654341E+03  0.80289121175E+02 0.  0.
          6    2    1    2  501    0 -0.17068886514E+02  0.23149732056E+02  0.20899477805E+02  0.17377656694E+03  0.17010070565E+03 0.  0.
         24    2    5    5    0    0 -0.51764704328E+02 -0.26576783014E+02  0.45700330587E+02  0.10809781563E+03  0.78808042215E+02 0.  0.
          5    1    5    5  501    0  0.34695817814E+02  0.49726515071E+02 -0.24800852782E+02  0.65678751309E+02  0.47000000000E+01 0. -1.
        -13    1    6    6    0    0 -0.71460725782E+02 -0.11137232216E+02  0.39098866041E+02  0.82215537439E+02  0.00000000000E+00 0.  1.
         14    1    6    6    0    0  0.19696021454E+02 -0.15439550799E+02  0.66014645468E+01  0.25882278187E+02  0.00000000000E+00 0. -1.
         -5    1    3    3    0  503  0.47002307002E+02  0.72721479969E+01 -0.64928555811E+01  0.48232231688E+02  0.47000000000E+01 0.  1.
         13    1    4    4    0    0 -0.41496742164E+02  0.11326176180E+02 -0.79957076960E+02  0.90793149703E+02  0.00000000000E+00 0. -1.
        -14    1    4    4    0    0  0.11563321676E+02 -0.41748056234E+02 -0.16177369066E+03  0.16747339370E+03  0.00000000000E+00 0.  1.
</event>
<event>
12    1  0.8219652E-002  0.1865144E+03  0.7818608E-02  0.1161712E+00
         21   -1    0    0  503  502  0.00000000000E+00  0.00000000000E+00  0.24396786117E+03  0.24396786117E+03  0.00000000000E+00 0.  1.
         21   -1    0    0  501  503 -0.00000000000E+00 -0.00000000000E+00 -0.14262253181E+03  0.14262253181E+03  0.00000000000E+00 0.  1.
          6    2    1    2  501    0 -0.54834551824E+01 -0.71676617233E+02  0.58942592443E+02  0.19560639730E+03  0.17210469988E+03 0.  0.
         24    2    3    3    0    0 -0.69986077139E+02 -0.51842664737E+02  0.43552604969E+02  0.12623121712E+03  0.80322959949E+02 0.  0.
         -6    2    1    2    0  502  0.54834551824E+01  0.71676617233E+02  0.42402736923E+02  0.19098399568E+03  0.17178267890E+03 0.  0.
        -24    2    5    5    0    0  0.31528549078E+02 -0.51765479718E+01 -0.22817896536E+02  0.86769903802E+02  0.77379026535E+02 0.  0.
          5    1    3    3  501    0  0.64502621957E+02 -0.19833952495E+02  0.15389987474E+02  0.69375180182E+02  0.47000000000E+01 0. -1.
        -11    1    4    4    0    0 -0.14457262991E+02 -0.56916869307E+02  0.60553278362E+01  0.59035662613E+02  0.00000000000E+00 0.  1.
         12    1    4    4    0    0 -0.55528814148E+02  0.50742045700E+01  0.37497277133E+02  0.67195554504E+02  0.00000000000E+00 0. -1.
         -5    1    5    5    0  502 -0.26045093896E+02  0.76853165205E+02  0.65220633459E+02  0.10421409188E+03  0.47000000000E+01 0.  1.
         11    1    6    6    0    0  0.36406528359E+01 -0.14642115651E+02 -0.46558387064E+02  0.48942101608E+02  0.00000000000E+00 0. -1.
        -12    1    6    6    0    0  0.27887896242E+02  0.94655676790E+01  0.23740490528E+02  0.37827802194E+02  0.00000000000E+00 0.  1.
</event>
<event>
12    1  0.8219652E-002  0.1868011E+03  0.7818608E-02  0.1165503E+00
         21   -1    0    0  501  502  0.00000000000E+00  0.00000000000E+00  0.66225243398E+03  0.66225243398E+03  0.00000000000E+00 0.  1.
         21   -1    0    0  502  503 -0.00000000000E+00 -0.00000000000E+00 -0.69421198175E+02  0.69421198175E+02  0.00000000000E+00 0. -1.
         -6    2    1    2    0  503 -0.34398134376E+02 -0.62233482347E+02  0.83602337405E+02  0.18926354220E+03  0.15419176247E+03 0.  0.
        -24    2    3    3    0    0 -0.12425209440E+02  0.20057582489E+02  0.35334754251E+02  0.91250898296E+02  0.80755737486E+02 0.  0.
          6    2    1    2  501    0  0.34398134376E+02  0.62233482347E+02  0.50922889840E+03  0.54241008995E+03  0.17273794240E+03 0.  0.
         24    2    5    5    0    0 -0.36760646528E+02  0.43410884156E+02  0.38862714291E+03  0.40104271136E+03  0.81045358497E+02 0.  0.
          5    1    5    5  501    0  0.71158780903E+02  0.18822598191E+02  0.12060175549E+03  0.14136737859E+03  0.47000000000E+01 0. -1.
        -11    1    6    6    0    0 -0.59680371138E+01  0.48451717431E+02  0.33846801724E+03  0.34197044475E+03  0.00000000000E+00 0.  1.
         12    1    6    6    0    0 -0.30792609414E+02 -0.50408332754E+01  0.50159125674E+02  0.59072266615E+02  0.00000000000E+00 0. -1.
         -5    1    3    3    0  503 -0.21972924936E+02 -0.82291064836E+02  0.48267583154E+02  0.98012643907E+02  0.47000000000E+01 0.  1.
         11    1    4    4    0    0  0.41713663424E+01 -0.28393245395E+01 -0.24529599342E+02  0.25043228723E+02  0.00000000000E+00 0. -1.
        -12    1    4    4    0    0 -0.16596575782E+02  0.22896907028E+02  0.59864353593E+02  0.66207669573E+02  0.00000000000E+00 0.  1.
</event>
<event>
12    1  0.8219652E-002  0.1772339E+03  0.7818608E-02  0.1171193E+00
         21   -1    0    0  503  502  0.00000000000E+00  0.00000000000E+00  0.10414446564E+03  0.10414446564E+03  0.00000000000E+00 0.  1.
         21   -1    0    0  501  503 -0.00000000000E+00 -0.00000000000E+00 -0.33661391034E+03  0.33661391034E+03  0.00000000000E+00 0.  1.
          6    2    1    2  501    0  0.28988000818E+02 -0.74281017802E+01 -0.19107956559E+03  0.25875564310E+03  0.17189415802E+03 0.  0.
         24    2    3    3    0    0  0.64037644726E+02 -0.46845398628E+02 -0.12030599651E+03  0.17036339847E+03  0.90856168908E+02 0.  0.
         -6    2    1    2    0  502 -0.28988000818E+02  0.74281017802E+01 -0.41389879110E+02  0.18200273289E+03  0.17468941525E+03 0.  0.
        -24    2    5    5    0    0 -0.25992096729E+02  0.64280435252E+02 -0.60624778851E+02  0.12172641390E+03  0.79588897359E+02 0.  0.
          5    1    3    3  501    0 -0.35049643907E+02  0.39417296848E+02 -0.70773569083E+02  0.88392244624E+02  0.47000000000E+01 0. -1.
        -13    1    4    4    0    0  0.69947701096E+02  0.30838556983E+01 -0.76185822862E+02  0.10347207671E+03  0.00000000000E+00 0.  1.
         14    1    4    4    0    0 -0.59100563698E+01 -0.49929254326E+02 -0.44120173645E+02  0.66891321757E+02  0.00000000000E+00 0. -1.
         -5    1    5    5    0  502 -0.29959040898E+01 -0.56852333472E+02  0.19234899741E+02  0.60276318986E+02  0.47000000000E+01 0.  1.
         13    1    6    6    0    0  0.19454116047E+02  0.17295054750E+01 -0.35343206521E+02  0.40380639761E+02  0.00000000000E+00 0. -1.
        -14    1    6    6    0    0 -0.45446212775E+02  0.62550929777E+02 -0.25281572330E+02  0.81345774144E+02  0.00000000000E+00 0.  1.
</event>
<event>
12    1  0.8219652E-002  0.1741363E+03  0.7818608E-02  0.1174268E+00
         21   -1    0    0  501  502  0.00000000000E+00  0.00000000000E+00  0.19939020529E+02  0.19939020529E+02  0.00000000000E+00 0.  1.
         21   -1    0    0  502  503 -0.00000000000E+00 -0.00000000000E+00 -0.20155958041E+04  0.20155958041E+04  0.00000000000E+00 0.  1.
         -6    2    1    2    0  503  0.21177066655E+02  0.42348171705E+01 -0.15079349991E+04  0.15176584032E+04  0.17015482799E+03 0.  0.
        -24    2    3    3    0    0 -0.49176326021E+02 -0.11972059205E+02 -0.67849303106E+03  0.68506706825E+03  0.80015333283E+02 0.  0.
          6    2    1    2  501    0 -0.21177066655E+02 -0.42348171705E+01 -0.48772178448E+03  0.51787642143E+03  0.17279191818E+03 0.  0.
         24    2    5    5    0    0  0.37123321858E+01 -0.40502475608E+02 -0.15069183607E+03  0.17795569339E+03  0.85474951959E+02 0.  0.
          5    1    5    5  501    0 -0.24889398841E+02  0.36267658437E+02 -0.33702994842E+03  0.33992072804E+03  0.47000000000E+01 0. -1.
        -11    1    6    6    0    0  0.33425339294E+02  0.10928513718E+02 -0.52230995801E+02  0.62966361189E+02  0.00000000000E+00 0.  1.
         12    1    6    6    0    0 -0.29713007109E+02 -0.51430989325E+02 -0.98460840265E+02  0.11498933220E+03  0.00000000000E+00 0. -1.
         -5    1    3    3    0  503  0.70353392676E+02  0.16206876375E+02 -0.82944196800E+03  0.83259133492E+03  0.47000000000E+01 0.  1.
         13    1    4    4    0    0 -0.45364920979E+02  0.17056752844E+02 -0.20425811053E+03  0.20992923710E+03  0.00000000000E+00 0. -1.
        -14    1    4    4    0    0 -0.38114050424E+01 -0.29028812049E+02 -0.47423492053E+03  0.47513783115E+03  0.00000000000E+00 0.  1.
</event>
<event>
12    1  0.8219652E-002  0.1720901E+03  0.7818608E-02  0.1176453E+00
         21   -1    0    0  501  502  0.00000000000E+00  0.00000000000E+00  0.18096160351E+03  0.18096160351E+03  0.00000000000E+00 0. -1.
         21   -1    0    0  502  503 -0.00000000000E+00 -0.00000000000E+00 -0.41536614933E+03  0.41536614933E+03  0.00000000000E+00 0. -1.
         -6    2    1    2    0  503 -0.17253960612E+01  0.74429682695E+01 -0.35020379206E+03  0.38890438921E+03  0.16895429323E+03 0.  0.
        -24    2    3    3    0    0 -0.43260152198E+02 -0.15848032874E+02 -0.31848532112E+03  0.33149569561E+03  0.79585774639E+02 0.  0.
          6    2    1    2  501    0  0.17253960612E+01 -0.74429682695E+01  0.11579924624E+03  0.20742336364E+03  0.17192036408E+03 0.  0.
         24    2    5    5    0    0  0.51531507504E+02 -0.30002228797E+02  0.27210606191E+02  0.10321392972E+03  0.79731224752E+02 0.  0.
          5    1    5    5  501    0 -0.49806111443E+02  0.22559260528E+02  0.88588640046E+02  0.10420943392E+03  0.47000000000E+01 0. -1.
        -11    1    6    6    0    0  0.31279330372E+02  0.90797481890E+01 -0.20353700263E+02  0.38407179669E+02  0.00000000000E+00 0.  1.
         12    1    6    6    0    0  0.20252177132E+02 -0.39081976986E+02  0.47564306453E+02  0.64806750051E+02  0.00000000000E+00 0. -1.
         -5    1    3    3    0  503  0.41534756137E+02  0.23291001144E+02 -0.31718470944E+02  0.57408693598E+02  0.47000000000E+01 0.  1.
         11    1    4    4    0    0 -0.75629838190E+01  0.11117708447E+02 -0.24565236331E+03  0.24602009220E+03  0.00000000000E+00 0. -1.
        -12    1    4    4    0    0 -0.35697168379E+02 -0.26965741321E+02 -0.72832957810E+02  0.85475603412E+02  0.00000000000E+00 0.  1.
</event>
<event>
12    1  0.8219652E-002  0.1763738E+03  0.7818608E-02  0.1171487E+00
         21   -1    0    0  501  502  0.00000000000E+00  0.00000000000E+00  0.70569660565E+03  0.70569660565E+03  0.00000000000E+00 0.  1.
         21   -1    0    0  502  503 -0.00000000000E+00 -0.00000000000E+00 -0.44355914274E+02  0.44355914274E+02  0.00000000000E+00 0.  1.
         -6    2    1    2    0  503  0.34423408213E+02 -0.29702431250E+02  0.36593327792E+03  0.40599837207E+03  0.16988322102E+03 0.  0.
        -24    2    3    3    0    0 -0.11620559755E+02 -0.44116559280E+01  0.73702480271E+02  0.10904618839E+03  0.79400979129E+02 0.  0.
          6    2    1    2  501    0 -0.34423408213E+02  0.29702431250E+02  0.29540741346E+03  0.34405414785E+03  0.17041276734E+03 0.  0.
         24    2    5    5    0    0  0.35780493903E+02 -0.10519509943E+02  0.19746749667E+03  0.21692936771E+03  0.81694764207E+02 0.  0.
          5    1    5    5  501    0 -0.70203902116E+02  0.40221941193E+02  0.97939916781E+02  0.12712478014E+03  0.47000000000E+01 0. -1.
        -11    1    6    6    0    0 -0.17390064566E+02  0.13677241991E+02  0.10683326166E+03  0.10910007833E+03  0.00000000000E+00 0.  1.
         12    1    6    6    0    0  0.53170558469E+02 -0.24196751934E+02  0.90634235012E+02  0.10782928938E+03  0.00000000000E+00 0. -1.
         -5    1    3    3    0  503  0.46043967968E+02 -0.25290775322E+02  0.29223079765E+03  0.29695218369E+03  0.47000000000E+01 0.  1.
         11    1    4    4    0    0 -0.35765784173E+02  0.79569652246E+01  0.73262269751E+02  0.81913764302E+02  0.00000000000E+00 0. -1.
        -12    1    4    4    0    0  0.24145224418E+02 -0.12368621153E+02  0.44021051993E+00  0.27132424085E+02  0.00000000000E+00 0.  1.
</event>
<event>
12    1  0.8219652E-002  0.1771538E+03  0.7818608E-02  0.1170979E+00
         21   -1    0    0  501  502  0.00000000000E+00  0.00000000000E+00  0.20522444248E+03  0.20522444248E+03  0.00000000000E+00 0.  1.
         21   -1    0    0  502  503 -0.00000000000E+00 -0.00000000000E+00 -0.47956296544E+03  0.47956296544E+03  0.00000000000E+00 0.  1.
         -6    2    1    2    0  503 -0.45142835412E+02 -0.20964096266E+01 -0.42014064544E+03  0.45534952597E+03  0.16965482111E+03 0.  0.
        -24    2    3    3    0    0 -0.73520230465E+02  0.44624888472E+02 -0.25494522647E+03  0.28128122703E+03  0.82008872825E+02 0.  0.
          6    2    1    2  501    0  0.45142835412E+02  0.20964096266E+01  0.14580212248E+03  0.22943788195E+03  0.17129276760E+03 0.  0.
         24    2    5    5    0    0 -0.18694589757E+02 -0.33721419933E+02  0.12587592546E+03  0.15342948048E+03  0.78798699358E+02 0.  0.
          5    1    5    5  501    0  0.63837425169E+02  0.35817829560E+02  0.19926197014E+02  0.76008401470E+02  0.47000000000E+01 0. -1.
        -11    1    6    6    0    0 -0.25146822966E+01 -0.19641865038E+02  0.13007540122E+03  0.13157407227E+03  0.00000000000E+00 0.  1.
         12    1    6    6    0    0 -0.16179907461E+02 -0.14079554896E+02 -0.41994757610E+01  0.21855408213E+02  0.00000000000E+00 0. -1.
         -5    1    3    3    0  503  0.28377395053E+02 -0.46721298098E+02 -0.16519541897E+03  0.17406829894E+03  0.47000000000E+01 0.  1.
         13    1    4    4    0    0 -0.24879645949E+02  0.56881451381E+02 -0.18550611500E+03  0.19561956700E+03  0.00000000000E+00 0. -1.
        -14    1    4    4    0    0 -0.48640584516E+02 -0.12256562910E+02 -0.69439111469E+02  0.85661660024E+02  0.00000000000E+00 0.  1.
</event>
<event>
12    1  0.8219652E-002  0.2757442E+03  0.7818608E-02  0.1098113E+00
         21   -1    0    0  503  502  0.00000000000E+00  0.00000000000E+00  0.61477842797E+03  0.61477842797E+03  0.00000000000E+00 0.  1.
         21   -1    0    0  501  503 -0.00000000000E+00 -0.00000000000E+00 -0.44495116977E+03  0.44495116977E+03  0.00000000000E+00 0.  1.
          6    2    1    2  501    0 -0.21525075051E+03 -0.10330776478E+02 -0.36552437494E+03  0.45753672312E+03  0.17114956557E+03 0.  0.
         24    2    3    3    0    0 -0.95843573817E+02 -0.67058903629E+02 -0.21338870973E+03  0.25593437967E+03  0.79276592136E+02 0.  0.
         -6    2    1    2    0  502  0.21525075051E+03  0.10330776478E+02  0.53535163314E+03  0.60219287462E+03  0.17203277767E+03 0.  0.
        -24    2    5    5    0    0  0.10325756004E+03 -0.30564340995E+02  0.16849555781E+03  0.21642046068E+03  0.82769318918E+02 0.  0.
          5    1    3    3  501    0 -0.11940717669E+03  0.56728127151E+02 -0.15213566521E+03  0.20160234345E+03  0.47000000000E+01 0. -1.
        -13    1    4    4    0    0 -0.10304730205E+03 -0.42213463054E+02 -0.14507319134E+03  0.18288508350E+03  0.00000000000E+00 0.  1.
         14    1    4    4    0    0  0.72037282336E+01 -0.24845440575E+02 -0.68315518392E+02  0.73049296170E+02  0.00000000000E+00 0. -1.
         -5    1    5    5    0  502  0.11199319047E+03  0.40895117474E+02  0.36685607534E+03  0.38577241394E+03  0.47000000000E+01 0.  1.
         13    1    6    6    0    0  0.94909312103E+01 -0.23750248124E+02  0.91176860632E+02  0.94696208878E+02  0.00000000000E+00 0. -1.
        -14    1    6    6    0    0  0.93766628832E+02 -0.68140928716E+01  0.77318697177E+02  0.12172425180E+03  0.00000000000E+00 0.  1.
</event>
<event>
12    1  0.8219652E-002  0.2073349E+03  0.7818608E-02  0.1143827E+00
         21   -1    0    0  501  502  0.00000000000E+00  0.00000000000E+00  0.54635907172E+03  0.54635907172E+03  0.00000000000E+00 0.  1.
         21   -1    0    0  502  503 -0.00000000000E+00 -0.00000000000E+00 -0.10138427250E+03  0.10138427250E+03  0.00000000000E+00 0.  1.
         -6    2    1    2    0  503 -0.65435727660E+01 -0.11506198590E+03  0.68107961828E+02  0.21760804921E+03  0.17155899764E+03 0.  0.
        -24    2    3    3    0    0 -0.62065620930E+02 -0.10564606146E+03  0.29485928001E+02  0.14916019342E+03  0.79787917293E+02 0.  0.
          6    2    1    2  501    0  0.65435727660E+01  0.11506198590E+03  0.37686683739E+03  0.43013529502E+03  0.17235335781E+03 0.  0.
         24    2    5    5    0    0  0.50916950976E+02  0.11217289947E+03  0.34580662770E+03  0.37569110212E+03  0.79914236396E+02 0.  0.
          5    1    5    5  501    0 -0.44373378210E+02  0.28890864289E+01  0.31060209694E+02  0.54444192899E+02  0.47000000000E+01 0. -1.
        -11    1    6    6    0    0  0.20901891519E+02  0.62526767706E+02  0.80186080106E+02  0.10380892636E+03  0.00000000000E+00 0.  1.
         12    1    6    6    0    0  0.30015059457E+02  0.49646131769E+02  0.26562054759E+03  0.27188217576E+03  0.00000000000E+00 0. -1.
         -5    1    3    3    0  503  0.55522048164E+02 -0.94159244421E+01  0.38622033827E+02  0.68447855791E+02  0.47000000000E+01 0.  1.
         11    1    4    4    0    0 -0.28073456015E+02 -0.58242845313E+02  0.55577339316E+02  0.85259536758E+02  0.00000000000E+00 0. -1.
        -12    1    4    4    0    0 -0.33992164915E+02 -0.47403216149E+02 -0.26091411315E+02  0.63900656657E+02  0.00000000000E+00 0.  1.
</event>
<event>
12    1  0.8219652E-002  0.2050894E+03  0.7818608E-02  0.1145604E+00
         21   -1    0    0  501  502  0.00000000000E+00  0.00000000000E+00  0.47780896722E+02  0.47780896722E+02  0.00000000000E+00 0.  1.
         21   -1    0    0  502  503 -0.00000000000E+00 -0.00000000000E+00 -0.88228559985E+03  0.88228559985E+03  0.00000000000E+00 0.  1.
         -6    2    1    2    0  503 -0.27751891945E+02  0.10424400743E+03 -0.38698506398E+03  0.43797159426E+03  0.17442676700E+03 0.  0.
        -24    2    3    3    0    0 -0.37748066670E+02  0.97742593455E+02 -0.39919012041E+03  0.42027285716E+03  0.79359883530E+02 0.  0.
          6    2    1    2  501    0  0.27751891945E+02 -0.10424400743E+03 -0.44751963915E+03  0.49209490231E+03  0.17391545321E+03 0.  0.
         24    2    5    5    0    0  0.41080482869E+02 -0.13745819303E+03 -0.32126057984E+03  0.36077744909E+03  0.79810066497E+02 0.  0.
          5    1    5    5  501    0 -0.13328590924E+02  0.33214185601E+02 -0.12625905931E+03  0.13131745322E+03  0.47000000000E+01 0. -1.
        -13    1    6    6    0    0 -0.17575382120E+01 -0.11556904513E+02  0.14107106125E+01  0.11774594979E+02  0.00000000000E+00 0.  1.
         14    1    6    6    0    0  0.42838021081E+02 -0.12590128851E+03 -0.32267129045E+03  0.34900285411E+03  0.00000000000E+00 0. -1.
         -5    1    3    3    0  503  0.99961747251E+01  0.65014139713E+01  0.12205056431E+02  0.17698737109E+02  0.47000000000E+01 0.  1.
         13    1    4    4    0    0 -0.12585745812E+02 -0.12546151226E+02 -0.42227618443E+02  0.45814611944E+02  0.00000000000E+00 0. -1.
        -14    1    4    4    0    0 -0.25162320858E+02  0.11028874468E+03 -0.35696250197E+03  0.37445824521E+03  0.00000000000E+00 0.  1.
</event>
<event>
12    1  0.8219652E-002  0.2450407E+03  0.7818608E-02  0.1116813E+00
         21   -1    0    0  501  502  0.00000000000E+00  0.00000000000E+00  0.16483238218E+03  0.16483238218E+03  0.00000000000E+00 0.  1.
         21   -1    0    0  502  503 -0.00000000000E+00 -0.00000000000E+00 -0.43510572146E+03  0.43510572146E+03  0.00000000000E+00 0. -1.
         -6    2    1    2    0  503 -0.14508809854E+03 -0.91122476712E+02 -0.25826055403E+03  0.35460310381E+03  0.17231072330E+03 0.  0.
        -24    2    3    3    0    0 -0.53391303210E+01 -0.54194835093E+02 -0.81011318012E+02  0.12583945612E+03  0.79417558564E+02 0.  0.
          6    2    1    2  501    0  0.14508809854E+03  0.91122476712E+02 -0.12012785240E+02  0.24533499983E+03  0.17518873546E+03 0.  0.
         24    2    5    5    0    0  0.65067003403E+02  0.11619447371E+03  0.17984304055E+02  0.15615038195E+03  0.79527579728E+02 0.  0.
          5    1    5    5  501    0  0.80021095139E+02 -0.25071996996E+02 -0.29997089295E+02  0.89184617882E+02  0.47000000000E+01 0. -1.
        -13    1    6    6    0    0 -0.19675800420E+01  0.77130289816E+02  0.14353156087E+02  0.78479080448E+02  0.00000000000E+00 0.  1.
         14    1    6    6    0    0  0.67034583445E+02  0.39064183892E+02  0.36311479682E+01  0.77671301497E+02  0.00000000000E+00 0. -1.
         -5    1    3    3    0  503 -0.13974896822E+03 -0.36927641619E+02 -0.17724923602E+03  0.22876364769E+03  0.47000000000E+01 0.  1.
         11    1    4    4    0    0 -0.28043216663E+02  0.86430116806E+01 -0.27851376228E+02  0.40457666882E+02  0.00000000000E+00 0. -1.
        -12    1    4    4    0    0  0.22704086342E+02 -0.62837846774E+02 -0.53159941784E+02  0.85381789242E+02  0.00000000000E+00 0.  1.
</event>
<event>
12    1  0.8219652E-002  0.1724540E+03  0.7818608E-02  0.1177415E+00
         21   -1    0    0  503  502  0.00000000000E+00  0.00000000000E+00  0.40310642057E+03  0.40310642057E+03  0.00000000000E+00 0. -1.
         21   -1    0    0  501  503 -0.00000000000E+00 -0.00000000000E+00 -0.71145182006E+02  0.71145182006E+02  0.00000000000E+00 0. -1.
          6    2    1    2  501    0  0.13197009971E+02  0.10087390326E+02  0.19429782608E+03  0.25979227793E+03  0.17165216556E+03 0.  0.
         24    2    3    3    0    0  0.15782236361E+01 -0.50188081715E+02  0.57416192611E+02  0.10970297017E+03  0.78846611556E+02 0.  0.
         -6    2    1    2    0  502 -0.13197009971E+02 -0.10087390326E+02  0.13766341249E+03  0.21445932464E+03  0.16360217074E+03 0.  0.
        -24    2    5    5    0    0 -0.30386720792E+02 -0.49396533471E+02  0.37865326640E+02  0.10572826729E+03  0.79883122272E+02 0.  0.
          5    1    3    3  501    0  0.11618786335E+02  0.60275472041E+02  0.13688163346E+03  0.15008930777E+03  0.47000000000E+01 0. -1.
        -13    1    4    4    0    0  0.26832525090E+00 -0.70080976171E+01 -0.19920284350E+02  0.21118786879E+02  0.00000000000E+00 0.  1.
         14    1    4    4    0    0  0.13098983852E+01 -0.43179984098E+02  0.77336476961E+02  0.88584183290E+02  0.00000000000E+00 0. -1.
         -5    1    5    5    0  502  0.17189710821E+02  0.39309143145E+02  0.99798085850E+02  0.10873105735E+03  0.47000000000E+01 0.  1.
         11    1    6    6    0    0 -0.36241301961E+02  0.82747012616E+00 -0.83787320531E+01  0.37206448707E+02  0.00000000000E+00 0. -1.
        -12    1    6    6    0    0  0.58545811682E+01 -0.50224003598E+02  0.46244058693E+02  0.68521818587E+02  0.00000000000E+00 0.  1.
</event>
<event>
12    1  0.8219652E-002  0.2189833E+03  0.7818608E-02  0.1134790E+00
         21   -1    0    0  503  502  0.00000000000E+00  0.00000000000E+00  0.48617382307E+03  0.48617382307E+03  0.00000000000E+00 0. -1.
         21   -1    0    0  501  503 -0.00000000000E+00 -0.00000000000E+00 -0.10035775181E+03  0.10035775181E+03  0.00000000000E+00 0.  1.
          6    2    1    2  501    0 -0.52394507086E+02  0.12488290890E+03  0.23473187132E+03  0.32048627412E+03  0.17108908551E+03 0.  0.
         24    2    3    3    0    0 -0.75962658913E+02  0.13815400289E+02  0.11562641231E+03  0.15586656201E+03  0.70453723076E+02 0.  0.
         -6    2    1    2    0  502  0.52394507086E+02 -0.12488290890E+03  0.15108419994E+03  0.26604530076E+03  0.17208352994E+03 0.  0.
        -24    2    5    5    0    0 -0.83326237855E+01 -0.14063594943E+02  0.10224350136E+03  0.13048642570E+03  0.79408792957E+02 0.  0.
          5    1    3    3  501    0  0.23568151827E+02  0.11106750861E+03  0.11910545901E+03  0.16461971211E+03  0.47000000000E+01 0. -1.
        -13    1    4    4    0    0  0.44852860119E+01  0.28098716002E+01 -0.70114313656E+01  0.87848357306E+01  0.00000000000E+00 0.  1.
         14    1    4    4    0    0 -0.80447944925E+02  0.11005528689E+02  0.12263784368E+03  0.14708172628E+03  0.00000000000E+00 0. -1.
         -5    1    5    5    0  502  0.60727130871E+02 -0.11081931396E+03  0.48840698574E+02  0.13555887506E+03  0.47000000000E+01 0.  1.
         13    1    6    6    0    0 -0.10517916328E+02  0.95286458716E+01 -0.89618890924E+01  0.16785026427E+02  0.00000000000E+00 0. -1.
        -14    1    6    6    0    0  0.21852925429E+01 -0.23592240815E+02  0.11120539045E+03  0.11370139927E+03  0.00000000000E+00 0.  1.
</event>
<event>
12    1  0.8219652E-002  0.1826776E+03  0.7818608E-02  0.1166764E+00
         21   -1    0    0  501  502  0.00000000000E+00  0.00000000000E+00  0.10856515818E+04  0.10856515818E+04  0.00000000000E+00 0.  1.
         21   -1    0    0  502  503 -0.00000000000E+00 -0.00000000000E+00 -0.65886520087E+02  0.65886520087E+02  0.00000000000E+00 0. -1.
         -6    2    1    2    0  503 -0.34096467023E+02  0.51674325642E+02  0.79078923745E+02  0.19327847932E+03  0.16513718356E+03 0.  0.
        -24    2    3    3    0    0 -0.15189409512E+02 -0.22218923963E+02  0.81811829095E+02  0.11681117956E+03  0.78913101235E+02 0.  0.
          6    2    1    2  501    0  0.34096467023E+02 -0.51674325642E+02  0.94068613794E+03  0.95825962254E+03  0.17186706806E+03 0.  0.
         24    2    5    5    0    0  0.45640758653E+02  0.30641978460E+02  0.57821007328E+03  0.58634534204E+03  0.80324103438E+02 0.  0.
          5    1    5    5  501    0 -0.11544291630E+02 -0.82316304102E+02  0.36247606466E+03  0.37191428050E+03  0.47000000000E+01 0. -1.
        -13    1    6    6    0    0  0.21524771342E+01 -0.19069649986E+02  0.29127595756E+03  0.29190746507E+03  0.00000000000E+00 0.  1.
         14    1    6    6    0    0  0.43488281519E+02  0.49711628446E+02  0.28693411572E+03  0.29443787697E+03  0.00000000000E+00 0. -1.
         -5    1    3    3    0  503 -0.18907057510E+02  0.73893249606E+02 -0.27329053497E+01  0.76467299760E+02  0.47000000000E+01 0.  1.
         11    1    4    4    0    0 -0.14496873592E+02  0.19307110779E+01 -0.12632758639E+02  0.19325464549E+02  0.00000000000E+00 0. -1.
        -12    1    4    4    0    0 -0.69253592026E+00 -0.24149635041E+02  0.94444587734E+02  0.97485715009E+02  0.00000000000E+00 0.  1.
</event>
<event>
12    1  0.8219652E-002  0.1860917E+03  0.7818608E-02  0.1162259E+00
         21   -1    0    0  503  502  0.00000000000E+00  0.00000000000E+00  0.71022633526E+03  0.71022633526E+03  0.00000000000E+00 0.  1.
         21   -1    0    0  501  503 -0.00000000000E+00 -0.00000000000E+00 -0.56024688325E+02  0.56024688325E+02  0.00000000000E+00 0.  1.
          6    2    1    2  501    0 -0.68083977578E+02  0.14321602777E+02  0.18748851405E+03  0.26416296500E+03  0.17259661894E+03 0.  0.
         24    2    3    3    0    0 -0.72139158620E+00  0.24688832759E+02  0.17664116021E+03  0.19498961367E+03  0.78795882448E+02 0.  0.
         -6    2    1    2    0  502  0.68083977578E+02 -0.14321602777E+02  0.46671313289E+03  0.50208805859E+03  0.17155388033E+03 0.  0.
        -24    2    5    5    0    0 -0.30622598622E+02 -0.84056363415E+01  0.22072816462E+03  0.23693021605E+03  0.80041279055E+02 0.  0.
          5    1    3    3  501    0 -0.67362585992E+02 -0.10367229982E+02  0.10847353841E+02  0.69173351331E+02  0.47000000000E+01 0. -1.
        -13    1    4    4    0    0 -0.38348420254E+02  0.30820128238E+01  0.70329352810E+02  0.80164318781E+02  0.00000000000E+00 0.  1.
         14    1    4    4    0    0  0.37627028667E+02  0.21606819935E+02  0.10631180740E+03  0.11482529489E+03  0.00000000000E+00 0. -1.
         -5    1    5    5    0  502  0.98706576200E+02 -0.59159664356E+01  0.24598496827E+03  0.26515784254E+03  0.47000000000E+01 0.  1.
         13    1    6    6    0    0 -0.31983839390E+02  0.20869025729E+02  0.19245943478E+03  0.19621191669E+03  0.00000000000E+00 0. -1.
        -14    1    6    6    0    0  0.13612407677E+01 -0.29274662070E+02  0.28268729839E+02  0.40718299356E+02  0.00000000000E+00 0.  1.
</event>
<event>
12    1  0.8219652E-002  0.2233221E+03  0.7818608E-02  0.1131560E+00
         21   -1    0    0  503  502  0.00000000000E+00  0.00000000000E+00  0.56342448126E+03  0.56342448126E+03  0.00000000000E+00 0.  1.
         21   -1    0    0  501  503 -0.00000000000E+00 -0.00000000000E+00 -0.93693603565E+02  0.93693603565E+02  0.00000000000E+00 0. -1.
          6    2    1    2  501    0 -0.28402541238E+02  0.13815836204E+03  0.15592681918E+03  0.27237097345E+03  0.17314253345E+03 0.  0.
         24    2    3    3    0    0 -0.33856459041E+02  0.16912889546E+03  0.14974906012E+03  0.23998001998E+03  0.73585228690E+02 0.  0.
         -6    2    1    2    0  502  0.28402541238E+02 -0.13815836204E+03  0.31380405851E+03  0.38474711137E+03  0.17222925193E+03 0.  0.
        -24    2    5    5    0    0 -0.11265329097E+02 -0.15208400747E+03  0.27849113751E+03  0.32964215762E+03  0.88601272248E+02 0.  0.
          5    1    3    3  501    0  0.54539178034E+01 -0.30970533426E+02  0.61777590539E+01  0.32390953475E+02  0.47000000000E+01 0. -1.
        -11    1    4    4    0    0 -0.57068473361E+02  0.13053091236E+03  0.11212627855E+03  0.18129377286E+03  0.00000000000E+00 0.  1.
         12    1    4    4    0    0  0.23212014320E+02  0.38597983097E+02  0.37622781573E+02  0.58686247121E+02  0.00000000000E+00 0. -1.
         -5    1    5    5    0  502  0.39667870334E+02  0.13925645433E+02  0.35312921005E+02  0.55104953747E+02  0.47000000000E+01 0.  1.
         13    1    6    6    0    0 -0.45527378213E+01 -0.15231880565E+02 -0.33624487960E+01  0.16249420578E+02  0.00000000000E+00 0. -1.
        -14    1    6    6    0    0 -0.67125912752E+01 -0.13685212690E+03  0.28185358630E+03  0.31339273704E+03  0.00000000000E+00 0.  1.
</event>
<event>
12    1  0.8219652E-002  0.3657221E+03  0.7818608E-02  0.1056407E+00
         21   -1    0    0  501  502  0.00000000000E+00  0.00000000000E+00  0.31696581422E+03  0.31696581422E+03  0.00000000000E+00 0.  1.
         21   -1    0    0  502  503 -0.00000000000E+00 -0.00000000000E+00 -0.42959475896E+03  0.42959475896E+03  0.00000000000E+00 0. -1.
         -6    2    1    2    0  503 -0.25529971983E+03 -0.19845283346E+03 -0.10845428662E+03  0.38081461200E+03  0.16939882637E+03 0.  0.
        -24    2    3    3    0    0 -0.16298672389E+03 -0.18470661752E+03 -0.11162565987E+03  0.28731169611E+03  0.96987195351E+02 0.  0.
          6    2    1    2  501    0  0.25529971983E+03  0.19845283346E+03 -0.41746581111E+01  0.36574596118E+03  0.17085434235E+03 0.  0.
         24    2    5    5    0    0  0.10055681089E+03  0.14192492678E+03  0.39396560452E+02  0.19527217086E+03  0.79528451998E+02 0.  0.
          5    1    5    5  501    0  0.15474290894E+03  0.56527906672E+02 -0.43571218563E+02  0.17047379032E+03  0.47000000000E+01 0. -1.
        -11    1    6    6    0    0  0.10998311198E+03  0.11828253145E+03  0.47848420778E+02  0.16845329779E+03  0.00000000000E+00 0.  1.
         12    1    6    6    0    0 -0.94263010909E+01  0.23642395336E+02 -0.84518603260E+01  0.26818873064E+02  0.00000000000E+00 0. -1.
         -5    1    3    3    0  503 -0.92312995935E+02 -0.13746215936E+02  0.31713732431E+01  0.93502915887E+02  0.47000000000E+01 0.  1.
         11    1    4    4    0    0 -0.97195372104E+02 -0.40007963390E+02 -0.34415930364E+02  0.11059852511E+03  0.00000000000E+00 0. -1.
        -12    1    4    4    0    0 -0.65791351786E+02 -0.14469865413E+03 -0.77209729502E+02  0.17671317100E+03  0.00000000000E+00 0.  1.
</event>
<event>
12    1  0.8219652E-002  0.2004549E+03  0.7818608E-02  0.1149427E+00
         21   -1    0    0  501  502  0.00000000000E+00  0.00000000000E+00  0.63107119201E+03  0.63107119201E+03  0.00000000000E+00 0. -1.
         21   -1    0    0  502  503 -0.00000000000E+00 -0.00000000000E+00 -0.11299539976E+03  0.11299539976E+03  0.00000000000E+00 0. -1.
         -6    2    1    2    0  503  0.62098117849E+02 -0.81420639282E+02  0.12853433699E+02  0.20053019438E+03  0.17193502075E+03 0.  0.
        -24    2    3    3    0    0 -0.54640908682E+01 -0.33536137171E+02 -0.48158615755E+02  0.97563511575E+02  0.77748683166E+02 0.  0.
          6    2    1    2  501    0 -0.62098117849E+02  0.81420639282E+02  0.50522235855E+03  0.54353639739E+03  0.17232726703E+03 0.  0.
         24    2    5    5    0    0  0.32971441046E+02  0.52976227820E+02  0.25327358449E+03  0.27270881326E+03  0.79554959569E+02 0.  0.
          5    1    5    5  501    0 -0.95069558894E+02  0.28444411462E+02  0.25194877406E+03  0.27082758412E+03  0.47000000000E+01 0. -1.
        -13    1    6    6    0    0 -0.47612258609E+01 -0.48312391692E+01  0.13925984601E+03  0.13942494345E+03  0.00000000000E+00 0.  1.
         14    1    6    6    0    0  0.37732666907E+02  0.57807466989E+02  0.11401373848E+03  0.13328386982E+03  0.00000000000E+00 0. -1.
         -5    1    3    3    0  503  0.67562208717E+02 -0.47884502111E+02  0.61012049454E+02  0.10296668280E+03  0.47000000000E+01 0.  1.
         13    1    4    4    0    0  0.31902520448E+02  0.36303813592E+01 -0.19648081640E+02  0.37643028463E+02  0.00000000000E+00 0. -1.
        -14    1    4    4    0    0 -0.37366611316E+02 -0.37166518531E+02 -0.28510534115E+02  0.59920483112E+02  0.00000000000E+00 0.  1.
</event>
<event>
12    1  0.8219652E-002  0.1890605E+03  0.7818608E-02  0.1159803E+00
         21   -1    0    0  501  502  0.00000000000E+00  0.00000000000E+00  0.42608905729E+03  0.42608905729E+03  0.00000000000E+00 0. -1.
         21   -1    0    0  502  503 -0.00000000000E+00 -0.00000000000E+00 -0.82941406612E+02  0.82941406612E+02  0.00000000000E+00 0. -1.
         -6    2    1    2    0  503 -0.47764650877E+02  0.53576757597E+02  0.17477981042E+03  0.25747201906E+03  0.17490548202E+03 0.  0.
        -24    2    3    3    0    0 -0.14054548681E+02 -0.31266902050E+02  0.12823519380E+03  0.15488883862E+03  0.79819408031E+02 0.  0.
          6    2    1    2  501    0  0.47764650877E+02 -0.53576757597E+02  0.16836784026E+03  0.25155844484E+03  0.17257459462E+03 0.  0.
         24    2    5    5    0    0 -0.31726225933E+02  0.64806669564E+01  0.71500632384E+02  0.11252233550E+03  0.80624953323E+02 0.  0.
          5    1    5    5  501    0  0.79490876810E+02 -0.60057424553E+02  0.96867207871E+02  0.13903610934E+03  0.47000000000E+01 0. -1.
        -13    1    6    6    0    0 -0.13019174969E+02  0.15925499704E+02 -0.13744404700E+02  0.24739222264E+02  0.00000000000E+00 0.  1.
         14    1    6    6    0    0 -0.18707050964E+02 -0.94448327472E+01  0.85245037084E+02  0.87783113233E+02  0.00000000000E+00 0. -1.
         -5    1    3    3    0  503 -0.33710102196E+02  0.84843659646E+02  0.46544616619E+02  0.10258318044E+03  0.47000000000E+01 0.  1.
         11    1    4    4    0    0 -0.25565776907E+02  0.17393268935E+02  0.78466074555E+02  0.84338956652E+02  0.00000000000E+00 0. -1.
        -12    1    4    4    0    0  0.11511228226E+02 -0.48660170985E+02  0.49769119244E+02  0.70549881969E+02  0.00000000000E+00 0.  1.
</event>
<event>
12    1  0.8219652E-002  0.2100306E+03  0.7818608E-02  0.1141782E+00
         21   -1    0    0  503  502  0.00000000000E+00  0.00000000000E+00  0.59467434415E+03  0.59467434415E+03  0.00000000000E+00 0. -1.
         21   -1    0    0  501  503 -0.00000000000E+00 -0.00000000000E+00 -0.10345984579E+03  0.10345984579E+03  0.00000000000E+00 0.  1.
          6    2    1    2  501    0 -0.61961476056E+02 -0.10032822451E+03  0.59067370787E+02  0.21817839853E+03  0.17380414881E+03 0.  0.
         24    2    3    3    0    0 -0.52566072626E+01  0.99272086175E+00 -0.15590190418E+02  0.80058097482E+02  0.78343011944E+02 0.  0.
         -6    2    1    2    0  502  0.61961476056E+02  0.10032822451E+03  0.43214712757E+03  0.47995579141E+03  0.17234107081E+03 0.  0.
        -24    2    5    5    0    0  0.23692691594E+02  0.52936225706E+02  0.39939005863E+03  0.41063323389E+03  0.75786847253E+02 0.  0.
          5    1    3    3  501    0 -0.56704868793E+02 -0.10132094537E+03  0.74657561205E+02  0.13812030105E+03  0.47000000000E+01 0. -1.
        -11    1    4    4    0    0 -0.14052008510E+02  0.79911212251E+01 -0.45404022868E+02  0.48195873829E+02  0.00000000000E+00 0.  1.
         12    1    4    4    0    0  0.87954012479E+01 -0.69984003633E+01  0.29813832449E+02  0.31862223653E+02  0.00000000000E+00 0. -1.
         -5    1    5    5    0  502  0.38268784462E+02  0.47391998804E+02  0.32757068939E+02  0.69322557514E+02  0.47000000000E+01 0.  1.
         11    1    6    6    0    0 -0.21756362368E+02  0.42547282521E+02  0.23209388365E+03  0.23696240499E+03  0.00000000000E+00 0. -1.
        -12    1    6    6    0    0  0.45449053961E+02  0.10388943185E+02  0.16729617499E+03  0.17367082890E+03  0.00000000000E+00 0.  1.
</event>
<event>
12    1  0.8219652E-002  0.2303455E+03  0.7818608E-02  0.1127055E+00
         21   -1    0    0  503  502  0.00000000000E+00  0.00000000000E+00  0.24876842348E+02  0.24876842348E+02  0.00000000000E+00 0.  1.
         21   -1    0    0  501  503 -0.00000000000E+00 -0.00000000000E+00 -0.24224536431E+04  0.24224536431E+04  0.00000000000E+00 0.  1.
          6    2    1    2  501    0 -0.11738949209E+03 -0.98435886600E+02 -0.75983055731E+03  0.79397827934E+03  0.17201487033E+03 0.  0.
         24    2    3    3    0    0 -0.59057673706E+02 -0.12487627258E+03 -0.61704066549E+03  0.63741283535E+03  0.80461466029E+02 0.  0.
         -6    2    1    2    0  502  0.11738949209E+03  0.98435886600E+02 -0.16377462434E+04  0.16533522061E+04  0.16700551763E+03 0.  0.
        -24    2    5    5    0    0  0.83238950400E+02  0.74775455523E+02 -0.15506200998E+04  0.15567130298E+04  0.80079157984E+02 0.  0.
          5    1    3    3  501    0 -0.58331818387E+02  0.26440385980E+02 -0.14278989182E+03  0.15656544399E+03  0.47000000000E+01 0. -1.
        -13    1    4    4    0    0 -0.79241952184E+02 -0.96122159286E+02 -0.46927511491E+03  0.48552846463E+03  0.00000000000E+00 0.  1.
         14    1    4    4    0    0  0.20184278478E+02 -0.28754113294E+02 -0.14776555058E+03  0.15188437071E+03  0.00000000000E+00 0. -1.
         -5    1    5    5    0  502  0.34150541692E+02  0.23660431077E+02 -0.87126143587E+02  0.96639176285E+02  0.47000000000E+01 0.  1.
         11    1    6    6    0    0  0.75719072939E+01  0.13887565579E+02 -0.75795342474E+03  0.75811845534E+03  0.00000000000E+00 0. -1.
        -12    1    6    6    0    0  0.75667043106E+02  0.60887889945E+02 -0.79266667507E+03  0.79859457443E+03  0.00000000000E+00 0.  1.
</event>
<event>
12    1  0.8219652E-002  0.2422872E+03  0.7818608E-02  0.1118430E+00
         21   -1    0    0  503  502  0.00000000000E+00  0.00000000000E+00  0.70084822722E+03  0.70084822722E+03  0.00000000000E+00 0. -1.
         21   -1    0    0  501  503 -0.00000000000E+00 -0.00000000000E+00 -0.10274743762E+03  0.10274743762E+03  0.00000000000E+00 0. -1.
          6    2    1    2  501    0 -0.15173393100E+03  0.75963599171E+02  0.12534713006E+03  0.27279110320E+03  0.17294342645E+03 0.  0.
         24    2    3    3    0    0 -0.31100571153E+02  0.74804431181E+01  0.10112819173E+03  0.13189753647E+03  0.78401826571E+02 0.  0.
         -6    2    1    2    0  502  0.15173393100E+03 -0.75963599171E+02  0.47275365954E+03  0.53080456165E+03  0.17165024278E+03 0.  0.
        -24    2    5    5    0    0  0.95873217438E+02 -0.36789413825E+02  0.43091300561E+03  0.45063120923E+03  0.82688170470E+02 0.  0.
          5    1    3    3  501    0 -0.12063335985E+03  0.68483156053E+02  0.24218938334E+02  0.14089356673E+03  0.47000000000E+01 0. -1.
        -11    1    4    4    0    0  0.46620843511E+01  0.30209452779E+02  0.11322339382E+02  0.32596647631E+02  0.00000000000E+00 0.  1.
         12    1    4    4    0    0 -0.35762655505E+02 -0.22729009661E+02  0.89805852345E+02  0.99300888840E+02  0.00000000000E+00 0. -1.
         -5    1    5    5    0  502  0.55860713564E+02 -0.39174185346E+02  0.41840653929E+02  0.80173352422E+02  0.47000000000E+01 0.  1.
         13    1    6    6    0    0  0.22801166190E+02 -0.51216188612E+02  0.21687530325E+03  0.22400421495E+03  0.00000000000E+00 0. -1.
        -14    1    6    6    0    0  0.73072051247E+02  0.14426774787E+02  0.21403770236E+03  0.22662699428E+03  0.00000000000E+00 0.  1.
</event>
<event>
12    1  0.8219652E-002  0.2294111E+03  0.7818608E-02  0.1127524E+00
         21   -1    0    0  501  502  0.00000000000E+00  0.00000000000E+00  0.17615208740E+03  0.17615208740E+03  0.00000000000E+00 0. -1.
         21   -1    0    0  502  503 -0.00000000000E+00 -0.00000000000E+00 -0.29672084176E+03  0.29672084176E+03  0.00000000000E+00 0. -1.
         -6    2    1    2    0  503 -0.14732857332E+03  0.19488809558E+02 -0.76749117150E+02  0.24190882508E+03  0.17476821922E+03 0.  0.
        -24    2    3    3    0    0 -0.17751383243E+03  0.23194558445E+02 -0.75936770567E+02  0.21112518739E+03  0.82208900843E+02 0.  0.
          6    2    1    2  501    0  0.14732857332E+03 -0.19488809558E+02 -0.43819637209E+02  0.23096410408E+03  0.17128553515E+03 0.  0.
         24    2    5    5    0    0  0.27304912580E+02 -0.41621624407E+02 -0.38712631124E+02  0.10871962714E+03  0.88562811877E+02 0.  0.
          5    1    5    5  501    0  0.12002366074E+03  0.22132814849E+02 -0.51070060846E+01  0.12224447694E+03  0.47000000000E+01 0. -1.
        -11    1    6    6    0    0 -0.16618329176E+02 -0.33515391860E+02  0.13716450087E+02  0.39844590086E+02  0.00000000000E+00 0.  1.
         12    1    6    6    0    0  0.43923241756E+02 -0.81062325467E+01 -0.52429081211E+02  0.68875037054E+02  0.00000000000E+00 0. -1.
         -5    1    3    3    0  503  0.30185259111E+02 -0.37057488875E+01 -0.81234658362E+00  0.30783637690E+02  0.47000000000E+01 0.  1.
         11    1    4    4    0    0 -0.80941836837E+02  0.49390738383E+02 -0.52383857626E+02  0.10832864131E+03  0.00000000000E+00 0. -1.
        -12    1    4    4    0    0 -0.96571995597E+02 -0.26196179938E+02 -0.23552912940E+02  0.10279654607E+03  0.00000000000E+00 0.  1.
</event>
<event>
12    1  0.8219652E-002  0.2754166E+03  0.7818608E-02  0.1098610E+00
         21   -1    0    0  503  502  0.00000000000E+00  0.00000000000E+00  0.35225712744E+03  0.35225712744E+03  0.00000000000E+00 0. -1.
         21   -1    0    0  501  503 -0.00000000000E+00 -0.00000000000E+00 -0.65786248052E+03  0.65786248052E+03  0.00000000000E+00 0. -1.
          6    2    1    2  501    0  0.20503295570E+03 -0.67908204137E+02 -0.56779859449E+03  0.62985710279E+03  0.16635711261E+03 0.  0.
         24    2    3    3    0    0  0.34134053400E+02  0.14551011909E+02 -0.10348342255E+03  0.12824308184E+03  0.66034867669E+02 0.  0.
         -6    2    1    2    0  502 -0.20503295570E+03  0.67908204137E+02  0.26219324141E+03  0.38026250517E+03  0.17089248048E+03 0.  0.
        -24    2    5    5    0    0 -0.14943244592E+03  0.49252852574E+02  0.26830146407E+03  0.32111151859E+03  0.79818746960E+02 0.  0.
          5    1    3    3  501    0  0.17089890230E+03 -0.82459216045E+02 -0.46431517194E+03  0.50161402095E+03  0.47000000000E+01 0. -1.
        -13    1    4    4    0    0  0.68481513039E+01 -0.16911405706E+02 -0.76438684738E+02  0.78586037842E+02  0.00000000000E+00 0.  1.
         14    1    4    4    0    0  0.27285902096E+02  0.31462417615E+02 -0.27044737815E+02  0.49657044000E+02  0.00000000000E+00 0. -1.
         -5    1    5    5    0  502 -0.55600509778E+02  0.18655351563E+02 -0.61082226627E+01  0.59150986582E+02  0.47000000000E+01 0.  1.
         13    1    6    6    0    0 -0.13426136477E+03  0.35271624942E+02  0.16434049796E+03  0.21512322251E+03  0.00000000000E+00 0. -1.
        -14    1    6    6    0    0 -0.15171081151E+02  0.13981227632E+02  0.10396096611E+03  0.10598829607E+03  0.00000000000E+00 0.  1.
</event>
<event>
12    1  0.8219652E-002  0.2551175E+03  0.7818608E-02  0.1110472E+00
         21   -1    0    0  501  502  0.00000000000E+00  0.00000000000E+00  0.44045095992E+03  0.44045095992E+03  0.00000000000E+00 0. -1.
         21   -1    0    0  502  503 -0.00000000000E+00 -0.00000000000E+00 -0.15043028796E+03  0.15043028796E+03  0.00000000000E+00 0. -1.
         -6    2    1    2    0  503 -0.90674781402E+02 -0.16502374893E+03  0.19255579384E+03  0.31777991765E+03  0.16867598710E+03 0.  0.
        -24    2    3    3    0    0  0.12563804399E+02 -0.10252280621E+03  0.11095494205E+03  0.17202202780E+03  0.81312999629E+02 0.  0.
          6    2    1    2  501    0  0.90674781402E+02  0.16502374893E+03  0.97464878121E+02  0.27310133024E+03  0.17213419305E+03 0.  0.
         24    2    5    5    0    0  0.57772340841E+01  0.14551010248E+03  0.76230036080E+02  0.18331611734E+03  0.81161654251E+02 0.  0.
          5    1    5    5  501    0  0.84897547318E+02  0.19513646457E+02  0.21234842040E+02  0.89785212898E+02  0.47000000000E+01 0. -1.
        -11    1    6    6    0    0  0.21927414922E+02  0.12065791771E+03  0.88505160247E+02  0.15123593495E+03  0.00000000000E+00 0.  1.
         12    1    6    6    0    0 -0.16150180838E+02  0.24852184769E+02 -0.12275124167E+02  0.32080182391E+02  0.00000000000E+00 0. -1.
         -5    1    3    3    0  503 -0.10323858580E+03 -0.62500942718E+02  0.81600851783E+02  0.14575788984E+03  0.47000000000E+01 0.  1.
         11    1    4    4    0    0 -0.22441939615E+01  0.13633615011E+02  0.16897931738E+02  0.21827779589E+02  0.00000000000E+00 0. -1.
        -12    1    4    4    0    0  0.14807998361E+02 -0.11615642122E+03  0.94057010317E+02  0.15019424822E+03  0.00000000000E+00 0.  1.
</event>
<event>
12    1  0.8219652E-002  0.2271870E+03  0.7818608E-02  0.1128872E+00
         21   -1    0    0  503  502  0.00000000000E+00  0.00000000000E+00  0.16621723567E+03  0.16621723567E+03  0.00000000000E+00 0. -1.
         21   -1    0    0  501  503 -0.00000000000E+00 -0.00000000000E+00 -0.66139736611E+03  0.66139736611E+03  0.00000000000E+00 0.  1.
          6    2    1    2  501    0  0.52621212921E+02  0.13609229483E+03 -0.54942568578E+03  0.59404120333E+03  0.17241305722E+03 0.  0.
         24    2    3    3    0    0  0.58240655278E+02  0.16611119976E+03 -0.49355527023E+03  0.53019524716E+03  0.80779271621E+02 0.  0.
         -6    2    1    2    0  502 -0.52621212921E+02 -0.13609229483E+03  0.54245555347E+02  0.23357339844E+03  0.17413743832E+03 0.  0.
        -24    2    5    5    0    0 -0.87478474802E+02 -0.13679291881E+03  0.71329053785E+02  0.19446514486E+03  0.79775136855E+02 0.  0.
          5    1    3    3  501    0 -0.56194423572E+01 -0.30018904936E+02 -0.55870415554E+02  0.63845956177E+02  0.47000000000E+01 0. -1.
        -13    1    4    4    0    0  0.57786301213E+02  0.49918437549E+02 -0.22417981418E+03  0.23682841067E+03  0.00000000000E+00 0.  1.
         14    1    4    4    0    0  0.45435406527E+00  0.11619276221E+03 -0.26937545605E+03  0.29336683649E+03  0.00000000000E+00 0. -1.
         -5    1    5    5    0  502  0.34857261880E+02  0.70062398200E+00 -0.17083498437E+02  0.39108253587E+02  0.47000000000E+01 0.  1.
         11    1    6    6    0    0 -0.19605945115E+02 -0.91965988932E+02  0.61907121617E+02  0.11258164997E+03  0.00000000000E+00 0. -1.
        -12    1    6    6    0    0 -0.67872529687E+02 -0.44826929877E+02  0.94219321678E+01  0.81883494882E+02  0.00000000000E+00 0.  1.
</event>
<event>
12    1  0.8219652E-002  0.2138434E+03  0.7818608E-02  0.1138618E+00
         21   -1    0    0  503  502  0.00000000000E+00  0.00000000000E+00  0.42393251900E+03  0.42393251900E+03  0.00000000000E+00 0.  1.
         21   -1    0    0  501  503 -0.00000000000E+00 -0.00000000000E+00 -0.10812872983E+03  0.10812872983E+03  0.00000000000E+00 0. -1.
          6    2    1    2  501    0 -0.49177262248E+02  0.11548056403E+03  0.17429959413E+03  0.27563888145E+03  0.17274918426E+03 0.  0.
         24    2    3    3    0    0 -0.82593111609E+02  0.11915174520E+03  0.97070893260E+02  0.19127977526E+03  0.78399194086E+02 0.  0.
         -6    2    1    2    0  502  0.49177262248E+02 -0.11548056403E+03  0.14150419505E+03  0.25642236738E+03  0.17313240450E+03 0.  0.
        -24    2    5    5    0    0  0.33051452448E+02 -0.11325427571E+03  0.34653698420E+02  0.14823680120E+03  0.82790947207E+02 0.  0.
          5    1    3    3  501    0  0.33415849362E+02 -0.36711811753E+01  0.77228700867E+02  0.84359106191E+02  0.47000000000E+01 0. -1.
        -11    1    4    4    0    0 -0.31084809811E+02  0.10754338941E+03  0.63292528972E+02  0.12859933993E+03  0.00000000000E+00 0.  1.
         12    1    4    4    0    0 -0.51508301798E+02  0.11608355790E+02  0.33778364289E+02  0.62680435323E+02  0.00000000000E+00 0. -1.
         -5    1    5    5    0  502  0.16125809800E+02 -0.22262883174E+01  0.10685049663E+03  0.10818556619E+03  0.47000000000E+01 0.  1.
         13    1    6    6    0    0  0.50945313294E+02 -0.53883885994E+02 -0.55075463808E+01  0.74358800310E+02  0.00000000000E+00 0. -1.
        -14    1    6    6    0    0 -0.17893860847E+02 -0.59370389716E+02  0.40161244801E+02  0.73878000887E+02  0.00000000000E+00 0.  1.
</event>
<event>
12    1  0.8219652E-002  0.1847961E+03  0.7818608E-02  0.1163888E+00
         21   -1    0    0  501  502  0.00000000000E+00  0.00000000000E+00  0.56695270286E+03  0.56695270286E+03  0.00000000000E+00 0.  1.
         21   -1    0    0  502  503 -0.00000000000E+00 -0.00000000000E+00 -0.59471355421E+02  0.59471355421E+02  0.00000000000E+00 0.  1.
         -6    2    1    2    0  503  0.44916406959E+02  0.41869406564E+02  0.24100442442E+03  0.30369842469E+03  0.17429592579E+03 0.  0.
        -24    2    3    3    0    0 -0.34635414430E+02 -0.11525995289E+02  0.10969713108E+03  0.14108459837E+03  0.80863730005E+02 0.  0.
          6    2    1    2  501    0 -0.44916406959E+02 -0.41869406564E+02  0.26647692302E+03  0.32272563359E+03  0.17138072603E+03 0.  0.
         24    2    5    5    0    0 -0.62369701267E+02 -0.41151510940E+02  0.27969898384E+03  0.30031925618E+03  0.79854289692E+02 0.  0.
          5    1    5    5  501    0  0.17453294308E+02 -0.71789562376E+00 -0.13222060823E+02  0.22406377412E+02  0.47000000000E+01 0. -1.
        -13    1    6    6    0    0 -0.32397606002E+02 -0.62765015365E+02  0.15657178434E+03  0.17176663145E+03  0.00000000000E+00 0.  1.
         14    1    6    6    0    0 -0.29972095265E+02  0.21613504424E+02  0.12312719950E+03  0.12855262473E+03  0.00000000000E+00 0. -1.
         -5    1    3    3    0  503  0.79551821389E+02  0.53395401852E+02  0.13130729334E+03  0.16261382632E+03  0.47000000000E+01 0.  1.
         13    1    4    4    0    0  0.51144939616E+01 -0.38835643956E+02  0.61405198324E+02  0.72835181548E+02  0.00000000000E+00 0. -1.
        -14    1    4    4    0    0 -0.39749908392E+02  0.27309648667E+02  0.48291932756E+02  0.68249416824E+02  0.00000000000E+00 0.  1.
</event>
<event>
12    1  0.8219652E-002  0.2284674E+03  0.7818608E-02  0.1127753E+00
         21   -1    0    0  501  502  0.00000000000E+00  0.00000000000E+00  0.10714899909E+04  0.10714899909E+04  0.00000000000E+00 0.  1.
         21   -1    0    0  502  503 -0.00000000000E+00 -0.00000000000E+00 -0.62086470388E+02  0.62086470388E+02  0.00000000000E+00 0. -1.
         -6    2    1    2    0  503  0.70593967483E+02 -0.13209830613E+03  0.24146055798E+03  0.33241626967E+03  0.17252218568E+03 0.  0.
        -24    2    3    3    0    0 -0.22712761181E+02 -0.55598411928E+02  0.14817636984E+03  0.17983052595E+03  0.82314813714E+02 0.  0.
          6    2    1    2  501    0 -0.70593967483E+02  0.13209830613E+03  0.76794296256E+03  0.80116019166E+03  0.17230144577E+03 0.  0.
         24    2    5    5    0    0 -0.39962169254E+02  0.87292026660E+01  0.19687604551E+03  0.21609800992E+03  0.79151744400E+02 0.  0.
          5    1    5    5  501    0 -0.30631798229E+02  0.12336910346E+03  0.57106691705E+03  0.58506218174E+03  0.47000000000E+01 0. -1.
        -13    1    6    6    0    0 -0.60666705155E+02  0.12491253482E+02  0.17546718256E+03  0.18607851215E+03  0.00000000000E+00 0.  1.
         14    1    6    6    0    0  0.20704535901E+02 -0.37620508161E+01  0.21408862954E+02  0.30019497767E+02  0.00000000000E+00 0. -1.
         -5    1    3    3    0  503  0.93306728664E+02 -0.76499894202E+02  0.93284188144E+02  0.15258574371E+03  0.47000000000E+01 0.  1.
         13    1    4    4    0    0 -0.41308015394E+01 -0.73939900083E+02  0.12292062807E+03  0.14350488894E+03  0.00000000000E+00 0. -1.
        -14    1    4    4    0    0 -0.18581959641E+02  0.18341488155E+02  0.25255741768E+02  0.36325637009E+02  0.00000000000E+00 0.  1.
</event>
<event>
12    1  0.8219652E-002  0.2292627E+03  0.7818608E-02  0.1127252E+00
         21   -1    0    0  501  502  0.00000000000E+00  0.00000000000E+00  0.14546903817E+03  0.14546903817E+03  0.00000000000E+00 0. -1.
         21   -1    0    0  502  503 -0.00000000000E+00 -0.00000000000E+00 -0.41768339318E+03  0.41768339318E+03  0.00000000000E+00 0. -1.
         -6    2    1    2    0  503  0.14214136230E+03  0.52759563310E+02 -0.24015648100E+03  0.33165928859E+03  0.17127466230E+03 0.  0.
        -24    2    3    3    0    0  0.11650705765E+03  0.36062836138E+02 -0.75729687624E+02  0.16434473856E+03  0.79998655432E+02 0.  0.
          6    2    1    2  501    0 -0.14214136230E+03 -0.52759563310E+02 -0.32057874005E+02  0.23149314276E+03  0.17196985045E+03 0.  0.
         24    2    5    5    0    0 -0.57805451820E+02 -0.25218324270E+02 -0.79407459699E+02  0.13081971573E+03  0.82648770283E+02 0.  0.
          5    1    5    5  501    0 -0.84335910481E+02 -0.27541239040E+02  0.47349585695E+02  0.10067342703E+03  0.47000000000E+01 0. -1.
        -13    1    6    6    0    0 -0.39390067871E+01  0.17548171364E+02  0.79265280479E+01  0.19654107448E+02  0.00000000000E+00 0.  1.
         14    1    6    6    0    0 -0.53866445033E+02 -0.42766495634E+02 -0.87333987747E+02  0.11116560828E+03  0.00000000000E+00 0. -1.
         -5    1    3    3    0  503  0.25634304651E+02  0.16696727172E+02 -0.16442679338E+03  0.16731455003E+03  0.47000000000E+01 0.  1.
         11    1    4    4    0    0  0.21643771862E+02  0.21507975076E+02 -0.59694693113E+02  0.67041048904E+02  0.00000000000E+00 0. -1.
        -12    1    4    4    0    0  0.94863285788E+02  0.14554861061E+02 -0.16034994511E+02  0.97303689653E+02  0.00000000000E+00 0.  1.
</event>
<event>
12    1  0.8219652E-002  0.1753077E+03  0.7818608E-02  0.1172886E+00
         21   -1    0    0  503  502  0.00000000000E+00  0.00000000000E+00  0.10601566464E+03  0.10601566464E+03  0.00000000000E+00 0. -1.
         21   -1    0    0  501  503 -0.00000000000E+00 -0.00000000000E+00 -0.36088632762E+03  0.36088632762E+03  0.00000000000E+00 0. -1.
          6    2    1    2  501    0 -0.28563119314E+02  0.24096801573E+02 -0.22239152474E+02  0.17671272432E+03  0.17127842656E+03 0.  0.
         24    2    3    3    0    0  0.74621272337E+00  0.71222469076E+02 -0.42203786132E+02  0.11754734526E+03  0.83444723501E+02 0.  0.
         -6    2    1    2    0  502  0.28563119314E+02 -0.24096801573E+02 -0.23263151051E+03  0.29018926794E+03  0.16939859478E+03 0.  0.
        -24    2    5    5    0    0 -0.31880113253E+02  0.21619277143E+02 -0.74215282242E+02  0.11451589034E+03  0.78244784222E+02 0.  0.
          5    1    3    3  501    0 -0.29309332037E+02 -0.47125667503E+02  0.19964633658E+02  0.59165379059E+02  0.47000000000E+01 0. -1.
        -13    1    4    4    0    0 -0.19231442761E+02  0.43115800953E+02  0.16040214516E+02  0.49860898149E+02  0.00000000000E+00 0.  1.
         14    1    4    4    0    0  0.19977655484E+02  0.28106668123E+02 -0.58244000648E+02  0.67686447116E+02  0.00000000000E+00 0. -1.
         -5    1    5    5    0  502  0.60443232567E+02 -0.45716078716E+02 -0.15841622827E+03  0.17567337759E+03  0.47000000000E+01 0.  1.
         11    1    6    6    0    0 -0.30838980568E+02 -0.24119829214E+02 -0.21319807983E+02  0.44579626470E+02  0.00000000000E+00 0. -1.
        -12    1    6    6    0    0 -0.10411326855E+01  0.45739106358E+02 -0.52895474259E+02  0.69936263875E+02  0.00000000000E+00 0.  1.
</event>
<event>
12    1  0.8219652E-002  0.1963875E+03  0.7818608E-02  0.1153222E+00
         21   -1    0    0  501  502  0.00000000000E+00  0.00000000000E+00  0.69688205798E+02  0.69688205798E+02  0.00000000000E+00 0. -1.
         21   -1    0    0  502  503 -0.00000000000E+00 -0.00000000000E+00 -0.54899265086E+03  0.54899265086E+03  0.00000000000E+00 0. -1.
         -6    2    1    2    0  503  0.12752295107E+02  0.86456924351E+02 -0.22953508840E+03  0.30208343082E+03  0.17587103677E+03 0.  0.
        -24    2    3    3    0    0 -0.61184402288E+02  0.64641347124E+02 -0.13676999249E+03  0.18137714412E+03  0.79180822942E+02 0.  0.
          6    2    1    2  501    0 -0.12752295107E+02 -0.86456924351E+02 -0.24976935666E+03  0.31659742583E+03  0.17381535524E+03 0.  0.
         24    2    5    5    0    0 -0.11947525108E+02 -0.25196728936E+01 -0.60902576082E+02  0.10986363410E+03  0.90618994787E+02 0.  0.
          5    1    5    5  501    0 -0.80476999964E+00 -0.83937251458E+02 -0.18886678058E+03  0.20673379173E+03  0.47000000000E+01 0. -1.
        -13    1    6    6    0    0  0.15536462576E+02 -0.66512087420E+01 -0.76259882542E+02  0.78110114150E+02  0.00000000000E+00 0.  1.
         14    1    6    6    0    0 -0.27483987683E+02  0.41315358483E+01  0.15357306460E+02  0.31753519949E+02  0.00000000000E+00 0. -1.
         -5    1    3    3    0  503  0.73936697395E+02  0.21815577228E+02 -0.92765095903E+02  0.12070628670E+03  0.47000000000E+01 0.  1.
         11    1    4    4    0    0  0.65567263055E+00  0.79234944144E+01 -0.79240818570E+02  0.79638677777E+02  0.00000000000E+00 0. -1.
        -12    1    4    4    0    0 -0.61840074918E+02  0.56717852709E+02 -0.57529173922E+02  0.10173846634E+03  0.00000000000E+00 0.  1.
</event>
<event>
12    1  0.8219652E-002  0.1932207E+03  0.7818608E-02  0.1155802E+00
         21   -1    0    0  501  502  0.00000000000E+00  0.00000000000E+00  0.46491586200E+03  0.46491586200E+03  0.00000000000E+00 0.  1.
         21   -1    0    0  502  503 -0.00000000000E+00 -0.00000000000E+00 -0.12034922434E+03  0.12034922434E+03  0.00000000000E+00 0.  1.
         -6    2    1    2    0  503  0.75362935208E+02  0.45644965137E+02  0.29246556469E+01  0.19324279347E+03  0.17196275402E+03 0.  0.
        -24    2    3    3    0    0  0.11684314763E+03  0.49385502220E+02 -0.73064701231E+01  0.15009924732E+03  0.79907137122E+02 0.  0.
          6    2    1    2  501    0 -0.75362935208E+02 -0.45644965137E+02  0.34164198201E+03  0.39202229287E+03  0.17087773227E+03 0.  0.
         24    2    5    5    0    0 -0.10784407597E+03 -0.19427071700E+02  0.18097354903E+03  0.22595351857E+03  0.79346148400E+02 0.  0.
          5    1    5    5  501    0  0.32481140765E+02 -0.26217893437E+02  0.16066843298E+03  0.16606877430E+03  0.47000000000E+01 0. -1.
        -11    1    6    6    0    0 -0.66328798492E+02  0.21232644848E+02  0.13481784383E+03  0.15174381612E+03  0.00000000000E+00 0.  1.
         12    1    6    6    0    0 -0.41515277481E+02 -0.40659716548E+02  0.46155705206E+02  0.74209702446E+02  0.00000000000E+00 0. -1.
         -5    1    3    3    0  503 -0.41480212417E+02 -0.37405370831E+01  0.10231125770E+02  0.43143546149E+02  0.47000000000E+01 0.  1.
         11    1    4    4    0    0  0.19815023221E+02  0.48771320607E+02  0.15507948950E+01  0.52665755704E+02  0.00000000000E+00 0. -1.
        -12    1    4    4    0    0  0.97028124404E+02  0.61418161313E+00 -0.88572650181E+01  0.97433491614E+02  0.00000000000E+00 0.  1.
</event>
<event>
12    1  0.8219652E-002  0.2168575E+03  0.7818608E-02  0.1136403E+00
         21   -1    0    0  503  502  0.00000000000E+00  0.00000000000E+00  0.61003785412E+03  0.61003785412E+03  0.00000000000E+00 0.  1.
         21   -1    0    0  501  503 -0.00000000000E+00 -0.00000000000E+00 -0.11294524075E+03  0.11294524075E+03  0.00000000000E+00 0.  1.
          6    2    1    2  501    0  0.10461027958E+03  0.78852018049E+02  0.44364579682E+02  0.22134906874E+03  0.17281852608E+03 0.  0.
         24    2    3    3    0    0  0.13391126845E+03  0.83829993030E+02  0.12432668746E+02  0.17747350470E+03  0.79891038724E+02 0.  0.
         -6    2    1    2    0  502 -0.10461027958E+03 -0.78852018049E+02  0.45272803368E+03  0.50163402613E+03  0.17179369123E+03 0.  0.
        -24    2    5    5    0    0 -0.97984178520E+02 -0.11853123854E+03  0.39474310706E+03  0.43090434729E+03  0.78777421840E+02 0.  0.
          5    1    3    3  501    0 -0.29300988871E+02 -0.49779749818E+01  0.31931910936E+02  0.43875564039E+02  0.47000000000E+01 0. -1.
        -11    1    4    4    0    0  0.17418762249E+02 -0.15579397833E+02  0.63189329794E+01  0.24208672601E+02  0.00000000000E+00 0.  1.
         12    1    4    4    0    0  0.11649250620E+03  0.99409390863E+02  0.61137357663E+01  0.15326483210E+03  0.00000000000E+00 0. -1.
         -5    1    5    5    0  502 -0.66261010584E+01  0.39679220489E+02  0.57984926620E+02  0.70729678841E+02  0.47000000000E+01 0.  1.
         13    1    6    6    0    0  0.11483725822E+02 -0.28780176261E+02  0.62416782294E+02  0.69685215192E+02  0.00000000000E+00 0. -1.
        -14    1    6    6    0    0 -0.10946790434E+03 -0.89751062276E+02  0.33232632477E+03  0.36121913210E+03  0.00000000000E+00 0.  1.
</event>
<event>
12    1  0.8219652E-002  0.1725558E+03  0.7818608E-02  0.1175324E+00
         21   -1    0    0  503  502  0.00000000000E+00  0.00000000000E+00  0.22277757168E+04  0.22277757168E+04  0.00000000000E+00 0.  1.
         21   -1    0    0  501  503 -0.00000000000E+00 -0.00000000000E+00 -0.14398225886E+02  0.14398225886E+02  0.00000000000E+00 0.  1.
          6    2    1    2  501    0 -0.37495281636E+01 -0.85104760377E+01  0.80005323909E+03  0.81835480233E+03  0.17185141826E+03 0.  0.
         24    2    3    3    0    0 -0.12350048983E+02 -0.18380586256E+02  0.80032876840E+03  0.80444243551E+03  0.78173683944E+02 0.  0.
         -6    2    1    2    0  502  0.37495281636E+01  0.85104760377E+01  0.14133242518E+04  0.14238191403E+04  0.17230501004E+03 0.  0.
        -24    2    5    5    0    0 -0.33752354328E+02 -0.51683514669E+02  0.72770961052E+03  0.73453020669E+03  0.78504395932E+02 0.  0.
          5    1    3    3  501    0  0.86005208192E+01  0.98701102181E+01 -0.27552931251E+00  0.13912366818E+02  0.47000000000E+01 0. -1.
        -11    1    4    4    0    0  0.13593456211E+02  0.18685837739E+01  0.66598516054E+03  0.66612649528E+03  0.00000000000E+00 0.  1.
         12    1    4    4    0    0 -0.25943505194E+02 -0.20249170030E+02  0.13434360786E+03  0.13831594023E+03  0.00000000000E+00 0. -1.
         -5    1    5    5    0  502  0.37501882491E+02  0.60193990706E+02  0.68561464128E+03  0.68928893364E+03  0.47000000000E+01 0.  1.
         11    1    6    6    0    0  0.25536903809E+02 -0.12682043572E+02  0.18053986045E+03  0.18277748465E+03  0.00000000000E+00 0. -1.
        -12    1    6    6    0    0 -0.59289258137E+02 -0.39001471096E+02  0.54716975007E+03  0.55175272203E+03  0.00000000000E+00 0.  1.
</event>
<event>
12    1  0.8219652E-002  0.1857300E+03  0.7818608E-02  0.1163139E+00
         21   -1    0    0  501  502  0.00000000000E+00  0.00000000000E+00  0.12532546105E+03  0.12532546105E+03  0.00000000000E+00 0. -1.
         21   -1    0    0  502  503 -0.00000000000E+00 -0.00000000000E+00 -0.41916522340E+03  0.41916522340E+03  0.00000000000E+00 0. -1.
         -6    2    1    2    0  503 -0.43630994066E+02 -0.49957997901E+02 -0.30994053778E+03  0.36132915432E+03  0.17348243601E+03 0.  0.
        -24    2    3    3    0    0 -0.77529004054E+02 -0.10458771360E+02 -0.10299311344E+03  0.14788457036E+03  0.71708663131E+02 0.  0.
          6    2    1    2  501    0  0.43630994066E+02  0.49957997901E+02  0.16100775421E+02  0.18316153013E+03  0.16996895585E+03 0.  0.
         24    2    5    5    0    0 -0.26007545030E+02  0.10230683539E+01  0.40334774914E+02  0.94541384632E+02  0.81447776356E+02 0.  0.
          5    1    5    5  501    0  0.69638539095E+02  0.48934929547E+02 -0.24233999493E+02  0.88620145501E+02  0.47000000000E+01 0. -1.
        -13    1    6    6    0    0 -0.40092591286E+02  0.16032434759E+02 -0.62335475599E+01  0.43626963630E+02  0.00000000000E+00 0.  1.
         14    1    6    6    0    0  0.14085046257E+02 -0.15009366405E+02  0.46568322474E+02  0.50914421002E+02  0.00000000000E+00 0. -1.
         -5    1    3    3    0  503  0.33898009988E+02 -0.39499226541E+02 -0.20694742434E+03  0.21344458395E+03  0.47000000000E+01 0.  1.
         11    1    4    4    0    0 -0.75203332927E+02 -0.30161217614E+02 -0.98497889706E+02  0.12754244238E+03  0.00000000000E+00 0. -1.
        -12    1    4    4    0    0 -0.23256711267E+01  0.19702446254E+02 -0.44952237333E+01  0.20342127986E+02  0.00000000000E+00 0.  1.
</event>
<event>
12    1  0.8219652E-002  0.2037351E+03  0.7818608E-02  0.1147286E+00
         21   -1    0    0  501  502  0.00000000000E+00  0.00000000000E+00  0.12654685987E+04  0.12654685987E+04  0.00000000000E+00 0. -1.
         21   -1    0    0  502  503 -0.00000000000E+00 -0.00000000000E+00 -0.34372011555E+02  0.34372011555E+02  0.00000000000E+00 0. -1.
         -6    2    1    2    0  503  0.13784358025E+02 -0.10415378067E+03  0.45106192851E+03  0.49363836665E+03  0.17083312069E+03 0.  0.
        -24    2    3    3    0    0  0.13320963019E+01 -0.10887923978E+03  0.19437260064E+03  0.23656077169E+03  0.79522496748E+02 0.  0.
          6    2    1    2  501    0 -0.13784358025E+02  0.10415378067E+03  0.78003465859E+03  0.80620224356E+03  0.17455649620E+03 0.  0.
         24    2    5    5    0    0  0.17153596112E+02  0.11500947861E+03  0.38913394761E+03  0.41390075360E+03  0.79794602661E+02 0.  0.
          5    1    5    5  501    0 -0.30937954137E+02 -0.10855697947E+02  0.39090071097E+03  0.39230148996E+03  0.47000000000E+01 0. -1.
        -11    1    6    6    0    0 -0.22912247873E+02  0.91965593396E+02  0.26555924871E+03  0.28196516814E+03  0.00000000000E+00 0.  1.
         12    1    6    6    0    0  0.40065843984E+02  0.23043885218E+02  0.12357469891E+03  0.13193558546E+03  0.00000000000E+00 0. -1.
         -5    1    3    3    0  503  0.12452261723E+02  0.47254591130E+01  0.25668932787E+03  0.25707759496E+03  0.47000000000E+01 0.  1.
         13    1    4    4    0    0 -0.32126250941E+02 -0.52125921453E+02  0.54596560318E+02  0.82036528969E+02  0.00000000000E+00 0. -1.
        -14    1    4    4    0    0  0.33458347243E+02 -0.56753318327E+02  0.13977604032E+03  0.15452424272E+03  0.00000000000E+00 0.  1.
</event>
<event>
12    1  0.8219652E-002  0.2101234E+03  0.7818608E-02  0.1141546E+00
         21   -1    0    0  501  502  0.00000000000E+00  0.00000000000E+00  0.37970905019E+03  0.37970905019E+03  0.00000000000E+00 0.  1.
         21   -1    0    0  502  503 -0.00000000000E+00 -0.00000000000E+00 -0.11796092944E+03  0.11796092944E+03  0.00000000000E+00 0. -1.
         -6    2    1    2    0  503 -0.12019757989E+03  0.10197399379E+02  0.99162201198E+02  0.23198967897E+03  0.17156521745E+03 0.  0.
        -24    2    3    3    0    0 -0.75850503536E+02 -0.16035405512E+02  0.12969372589E+03  0.17191399975E+03  0.81997119817E+02 0.  0.
          6    2    1    2  501    0  0.12019757989E+03 -0.10197399379E+02  0.16258591955E+03  0.26568030066E+03  0.17204765548E+03 0.  0.
         24    2    5    5    0    0  0.46380785578E+02  0.32095601913E+02  0.15054414268E+03  0.17962966747E+03  0.80137217383E+02 0.  0.
          5    1    5    5  501    0  0.73816794310E+02 -0.42293001291E+02  0.12041776874E+02  0.86050633181E+02  0.47000000000E+01 0. -1.
        -11    1    6    6    0    0  0.77341466097E+00 -0.19200002358E+02  0.68788347401E+01  0.20409718963E+02  0.00000000000E+00 0.  1.
         12    1    6    6    0    0  0.45607370917E+02  0.51295604271E+02  0.14366530794E+03  0.15921994851E+03  0.00000000000E+00 0. -1.
         -5    1    3    3    0  503 -0.44347076353E+02  0.26232804891E+02 -0.30531524694E+02  0.60075679219E+02  0.47000000000E+01 0.  1.
         11    1    4    4    0    0  0.78950338795E+01  0.14966803663E+02  0.34344988964E+01  0.17266515413E+02  0.00000000000E+00 0. -1.
        -12    1    4    4    0    0 -0.83745537415E+02 -0.31002209175E+02  0.12625922700E+03  0.15464748434E+03  0.00000000000E+00 0.  1.
</event>
<event>
12    1  0.8219652E-002  0.2661131E+03  0.7818608E-02  0.1103592E+00
         21   -1    0    0  503  502  0.00000000000E+00  0.00000000000E+00  0.24967875566E+03  0.24967875566E+03  0.00000000000E+00 0.  1.
         21   -1    0    0  501  503 -0.00000000000E+00 -0.00000000000E+00 -0.60537376437E+03  0.60537376437E+03  0.00000000000E+00 0. -1.
          6    2    1    2  501    0 -0.58729126588E+02 -0.19438721555E+03 -0.48969152544E+03  0.55710746730E+03  0.17127591818E+03 0.  0.
         24    2    3    3    0    0 -0.28172794035E+02 -0.95677660067E+02 -0.12597547649E+03  0.17896897406E+03  0.78817206494E+02 0.  0.
         -6    2    1    2    0  502  0.58729126588E+02  0.19438721555E+03  0.13399651674E+03  0.29794505273E+03  0.17199037202E+03 0.  0.
        -24    2    5    5    0    0 -0.18241668797E+02  0.38600393567E+02  0.35918049654E+02  0.98356693968E+02  0.81001136371E+02 0.  0.
          5    1    3    3  501    0 -0.30556332553E+02 -0.98709555487E+02 -0.36371604896E+03  0.37813849324E+03  0.47000000000E+01 0. -1.
        -11    1    4    4    0    0 -0.12821818715E+02 -0.10054501850E+03 -0.76642113488E+02  0.12707365321E+03  0.00000000000E+00 0.  1.
         12    1    4    4    0    0 -0.15350975320E+02  0.48673584289E+01 -0.49333363001E+02  0.51895320852E+02  0.00000000000E+00 0. -1.
         -5    1    5    5    0  502  0.76970795385E+02  0.15578682199E+03  0.98078467083E+02  0.19958835876E+03  0.47000000000E+01 0.  1.
         11    1    6    6    0    0 -0.39576199664E+02  0.39639314541E+02  0.48043496661E+02  0.73795178762E+02  0.00000000000E+00 0. -1.
        -12    1    6    6    0    0  0.21334530867E+02 -0.10389209736E+01 -0.12125447007E+02  0.24561515206E+02  0.00000000000E+00 0.  1.
</event>
<event>
12    1  0.8219652E-002  0.2238768E+03  0.7818608E-02  0.1131050E+00
         21   -1    0    0  503  502  0.00000000000E+00  0.00000000000E+00  0.10389729118E+03  0.10389729118E+03  0.00000000000E+00 0. -1.
         21   -1    0    0  501  503 -0.00000000000E+00 -0.00000000000E+00 -0.53059310895E+03  0.53059310895E+03  0.00000000000E+00 0. -1.
          6    2    1    2  501    0 -0.71394293024E+02  0.12365375207E+03 -0.30929471211E+03  0.38181677037E+03  0.17243384736E+03 0.  0.
         24    2    3    3    0    0 -0.25944027691E+01  0.11951479043E+03 -0.14732659032E+03  0.20573065967E+03  0.79557928945E+02 0.  0.
         -6    2    1    2    0  502  0.71394293024E+02 -0.12365375207E+03 -0.11740110566E+03  0.25267362976E+03  0.17226011753E+03 0.  0.
        -24    2    5    5    0    0  0.49187178549E+02 -0.79700924088E+01 -0.13887916436E+02  0.95788527255E+02  0.80620511187E+02 0.  0.
          5    1    3    3  501    0 -0.68799890255E+02  0.41389616437E+01 -0.16196812180E+03  0.17608611070E+03  0.47000000000E+01 0. -1.
        -13    1    4    4    0    0  0.31273052671E+02  0.22022366280E+02 -0.25057723783E+02  0.45726119025E+02  0.00000000000E+00 0.  1.
         14    1    4    4    0    0 -0.33867455440E+02  0.97492424147E+02 -0.12226886654E+03  0.16000454065E+03  0.00000000000E+00 0. -1.
         -5    1    5    5    0  502  0.22207114475E+02 -0.11568365966E+03 -0.10351318922E+03  0.15688510251E+03  0.47000000000E+01 0.  1.
         11    1    6    6    0    0 -0.92370109195E+01 -0.30528347115E+02 -0.13882628862E+01  0.31925375834E+02  0.00000000000E+00 0. -1.
        -12    1    6    6    0    0  0.58424189469E+02  0.22558254707E+02 -0.12499653550E+02  0.63863151421E+02  0.00000000000E+00 0.  1.
</event>
<event>
12    1  0.8219652E-002  0.3700422E+03  0.7818608E-02  0.1054780E+00
         21   -1    0    0  501  502  0.00000000000E+00  0.00000000000E+00  0.28584597673E+03  0.28584597673E+03  0.00000000000E+00 0. -1.
         21   -1    0    0  502  503 -0.00000000000E+00 -0.00000000000E+00 -0.87342839220E+03  0.87342839220E+03  0.00000000000E+00 0.  1.
         -6    2    1    2    0  503  0.32302668796E+03 -0.50884098820E+02 -0.68421502127E+03  0.77786980502E+03  0.17319297208E+03 0.  0.
        -24    2    3    3    0    0  0.16147779369E+03  0.94460316911E+01 -0.46463476890E+03  0.49862914337E+03  0.81124896150E+02 0.  0.
          6    2    1    2  501    0 -0.32302668796E+03  0.50884098820E+02  0.96632605800E+02  0.38140456390E+03  0.17086880410E+03 0.  0.
         24    2    5    5    0    0 -0.81206725470E+02  0.51081992853E+02  0.11140485013E+02  0.12487400795E+03  0.79154944249E+02 0.  0.
          5    1    5    5  501    0 -0.24181996249E+03 -0.19789403321E+00  0.85492120786E+02  0.25653055596E+03  0.47000000000E+01 0. -1.
        -13    1    6    6    0    0  0.14397203504E+02  0.23414046589E+01 -0.67653224317E+01  0.16078906435E+02  0.00000000000E+00 0.  1.
         14    1    6    6    0    0 -0.95603928975E+02  0.48740588195E+02  0.17905807445E+02  0.10879510151E+03  0.00000000000E+00 0. -1.
         -5    1    3    3    0  503  0.16154889427E+03 -0.60330130511E+02 -0.21958025237E+03  0.27924066165E+03  0.47000000000E+01 0.  1.
         13    1    4    4    0    0  0.15868880008E+03 -0.49962020844E+01 -0.45255085794E+03  0.47959292773E+03  0.00000000000E+00 0. -1.
        -14    1    4    4    0    0  0.27889936163E+01  0.14442233776E+02 -0.12083910960E+02  0.19036215641E+02  0.00000000000E+00 0.  1.
</event>
<event>
12    1  0.8219652E-002  0.2133139E+03  0.7818608E-02  0.1139059E+00
         21   -1    0    0  503  502  0.00000000000E+00  0.00000000000E+00  0.23373131763E+03  0.23373131763E+03  0.00000000000E+00 0. -1.
         21   -1    0    0  501  503 -0.00000000000E+00 -0.00000000000E+00 -0.32259502091E+03  0.32259502091E+03  0.00000000000E+00 0. -1.
          6    2    1    2  501    0 -0.98535404863E+02  0.77794891497E+02 -0.21991229517E+03  0.30637268126E+03  0.17245733124E+03 0.  0.
         24    2    3    3    0    0 -0.58941147027E+02  0.26250381699E+02 -0.21814942784E+03  0.24118265560E+03  0.80104676180E+02 0.  0.
         -6    2    1    2    0  502  0.98535404863E+02 -0.77794891497E+02  0.13104859190E+03  0.24995365728E+03  0.17187735801E+03 0.  0.
        -24    2    5    5    0    0  0.49684232093E+02 -0.62076910018E+02  0.15637720995E+03  0.19253309550E+03  0.79329032498E+02 0.  0.
          5    1    3    3  501    0 -0.39594257837E+02  0.51544509798E+02 -0.17628673377E+01  0.65190025657E+02  0.47000000000E+01 0. -1.
        -13    1    4    4    0    0 -0.77779417262E+02  0.21489684148E+02 -0.15012483224E+03  0.17043740649E+03  0.00000000000E+00 0.  1.
         14    1    4    4    0    0  0.18838270235E+02  0.47606975509E+01 -0.68024595591E+02  0.70745249113E+02  0.00000000000E+00 0. -1.
         -5    1    5    5    0  502  0.48851172770E+02 -0.15717981479E+02 -0.25328618049E+02  0.57420561780E+02  0.47000000000E+01 0.  1.
         11    1    6    6    0    0  0.27665269555E+01 -0.63850029047E+02  0.74567570827E+02  0.98207955379E+02  0.00000000000E+00 0. -1.
        -12    1    6    6    0    0  0.46917705137E+02  0.17731190287E+01  0.81809639121E+02  0.94325140125E+02  0.00000000000E+00 0.  1.
</event>
<event>
12    1  0.8219652E-002  0.1918700E+03  0.7818608E-02  0.1156907E+00
         21   -1    0    0  503  502  0.00000000000E+00  0.00000000000E+00  0.42479970015E+02  0.42479970015E+02  0.00000000000E+00 0.  1.
         21   -1    0    0  501  503 -0.00000000000E+00 -0.00000000000E+00 -0.17928426620E+04  0.17928426620E+04  0.00000000000E+00 0.  1.
          6    2    1    2  501    0  0.15178470407E+02  0.81068939425E+02 -0.15350384096E+04  0.15469155750E+04  0.17263347941E+03 0.  0.
         24    2    3    3    0    0 -0.22388414771E+02  0.22016184615E+02 -0.12630743349E+04  0.12660507559E+04  0.80881316068E+02 0.  0.
         -6    2    1    2    0  502 -0.15178470407E+02 -0.81068939425E+02 -0.21532428242E+03  0.28840705709E+03  0.17323834759E+03 0.  0.
        -24    2    5    5    0    0 -0.45662146279E+02 -0.40618501480E+02 -0.43780205246E+02  0.10947982932E+03  0.79587890977E+02 0.  0.
          5    1    3    3  501    0  0.37566885178E+02  0.59052754810E+02 -0.27196407465E+03  0.28086481911E+03  0.47000000000E+01 0. -1.
        -11    1    4    4    0    0  0.16936610401E+02  0.32315979786E+02 -0.31511116091E+03  0.31721635369E+03  0.00000000000E+00 0.  1.
         12    1    4    4    0    0 -0.39325025172E+02 -0.10299795171E+02 -0.94796317404E+03  0.94883440216E+03  0.00000000000E+00 0. -1.
         -5    1    5    5    0  502  0.30483675873E+02 -0.40450437944E+02 -0.17154407717E+03  0.17892722777E+03  0.47000000000E+01 0.  1.
         13    1    6    6    0    0  0.18706503192E+02  0.61731970575E+01 -0.15356296890E+02  0.24977139103E+02  0.00000000000E+00 0. -1.
        -14    1    6    6    0    0 -0.64368649472E+02 -0.46791698538E+02 -0.28423908357E+02  0.84502690213E+02  0.00000000000E+00 0.  1.
</event>
<event>
12    1  0.8219652E-002  0.2584540E+03  0.7818608E-02  0.1108152E+00
         21   -1    0    0  501  502  0.00000000000E+00  0.00000000000E+00  0.11093160497E+03  0.11093160497E+03  0.00000000000E+00 0.  1.
         21   -1    0    0  502  503 -0.00000000000E+00 -0.00000000000E+00 -0.60113919649E+03  0.60113919649E+03  0.00000000000E+00 0.  1.
         -6    2    1    2    0  503 -0.22516768379E+02  0.19283199660E+03 -0.23929243216E+03  0.35185299781E+03  0.16984840360E+03 0.  0.
        -24    2    3    3    0    0  0.15853321554E+02  0.18878440378E+03 -0.15019665323E+03  0.25464808727E+03  0.79973338024E+02 0.  0.
          6    2    1    2  501    0  0.22516768379E+02 -0.19283199660E+03 -0.25091515935E+03  0.36021780365E+03  0.17060851416E+03 0.  0.
         24    2    5    5    0    0 -0.46174783352E+02 -0.73632661325E+02 -0.13859953118E+03  0.18255548029E+03  0.81011072765E+02 0.  0.
          5    1    5    5  501    0  0.68691551731E+02 -0.11919933527E+03 -0.11231562817E+03  0.17766232336E+03  0.47000000000E+01 0. -1.
        -13    1    6    6    0    0  0.98523269635E+01 -0.56988422897E+02 -0.87695429435E+02  0.10504873647E+03  0.00000000000E+00 0.  1.
         14    1    6    6    0    0 -0.56027110316E+02 -0.16644238429E+02 -0.50904101745E+02  0.77506743820E+02  0.00000000000E+00 0. -1.
         -5    1    3    3    0  503 -0.38370089932E+02  0.40475928239E+01 -0.89095778934E+02  0.97204910540E+02  0.47000000000E+01 0.  1.
         13    1    4    4    0    0  0.10831318231E+02  0.16527562788E+03 -0.15846576797E+03  0.22922641698E+03  0.00000000000E+00 0. -1.
        -14    1    4    4    0    0  0.50220033226E+01  0.23508775897E+02  0.82691147379E+01  0.25421670285E+02  0.00000000000E+00 0.  1.
</event>
<event>
12    1  0.8219652E-002  0.1829388E+03  0.7818608E-02  0.1165049E+00
         21   -1    0    0  503  502  0.00000000000E+00  0.00000000000E+00  0.11759908457E+03  0.11759908457E+03  0.00000000000E+00 0. -1.
         21   -1    0    0  501  503 -0.00000000000E+00 -0.00000000000E+00 -0.33044999571E+03  0.33044999571E+03  0.00000000000E+00 0. -1.
          6    2    1    2  501    0  0.24552174509E+02  0.54846263718E+02 -0.19018433615E+03  0.26371139850E+03  0.17251868904E+03 0.  0.
         24    2    3    3    0    0  0.77051571365E+02  0.65432076770E+02 -0.12885396348E+03  0.18215313270E+03  0.79737811168E+02 0.  0.
         -6    2    1    2    0  502 -0.24552174509E+02 -0.54846263718E+02 -0.22666575000E+02  0.18433768178E+03  0.17278797812E+03 0.  0.
        -24    2    5    5    0    0  0.45108250993E+02 -0.44104810388E+02  0.15179322984E+02  0.10419808049E+03  0.81528151725E+02 0.  0.
          5    1    3    3  501    0 -0.52499396856E+02 -0.10585813053E+02 -0.61330372668E+02  0.81558265797E+02  0.47000000000E+01 0. -1.
        -13    1    4    4    0    0  0.20618398031E+02  0.54827341837E+02 -0.25429420650E+02  0.63857741778E+02  0.00000000000E+00 0.  1.
         14    1    4    4    0    0  0.56433173334E+02  0.10604734933E+02 -0.10342454283E+03  0.11829539093E+03  0.00000000000E+00 0. -1.
         -5    1    5    5    0  502 -0.69660425502E+02 -0.10741453330E+02 -0.37845897984E+02  0.80139601290E+02  0.47000000000E+01 0.  1.
         13    1    6    6    0    0  0.10505887454E+02 -0.20430679466E+02  0.46499487684E+02  0.51865100882E+02  0.00000000000E+00 0. -1.
        -14    1    6    6    0    0  0.34602363539E+02 -0.23674130922E+02 -0.31320164700E+02  0.52332979604E+02  0.00000000000E+00 0.  1.
</event>
<event>
12    1  0.8219652E-002  0.1995835E+03  0.7818608E-02  0.1150249E+00
         21   -1    0    0  503  502  0.00000000000E+00  0.00000000000E+00  0.15969052430E+04  0.15969052430E+04  0.00000000000E+00 0. -1.
         21   -1    0    0  501  503 -0.00000000000E+00 -0.00000000000E+00 -0.40301554669E+02  0.40301554669E+02  0.00000000000E+00 0. -1.
          6    2    1    2  501    0  0.96474767280E+02  0.33739687750E+02  0.27234462786E+03  0.33764650813E+03  0.17142876328E+03 0.  0.
         24    2    3    3    0    0  0.27957726834E+02 -0.45063449413E+02  0.92198104543E+02  0.12936933914E+03  0.73645003000E+02 0.  0.
         -6    2    1    2    0  502 -0.96474767280E+02 -0.33739687750E+02  0.12842590605E+04  0.12995602896E+04  0.17055751080E+03 0.  0.
        -24    2    5    5    0    0 -0.11339420144E+03 -0.59740327635E+02  0.12068239285E+04  0.12160103632E+04  0.76354812290E+02 0.  0.
          5    1    3    3  501    0  0.68517040446E+02  0.78803137163E+02  0.18014652331E+03  0.20827716898E+03  0.47000000000E+01 0. -1.
        -13    1    4    4    0    0 -0.23530640658E+02 -0.49488789565E+01  0.35700834610E+02  0.43043373991E+02  0.00000000000E+00 0.  1.
         14    1    4    4    0    0  0.51488367492E+02 -0.40114570457E+02  0.56497269932E+02  0.86325965153E+02  0.00000000000E+00 0. -1.
         -5    1    5    5    0  502  0.16919434161E+02  0.26000639886E+02  0.77435132004E+02  0.83549926363E+02  0.47000000000E+01 0.  1.
         11    1    6    6    0    0 -0.81033931136E+02 -0.31944067190E+02  0.10461476769E+04  0.10497675377E+04  0.00000000000E+00 0. -1.
        -12    1    6    6    0    0 -0.32360270305E+02 -0.27796260446E+02  0.16067625163E+03  0.16624282549E+03  0.00000000000E+00 0.  1.
</event>
<event>
12    1  0.8219652E-002  0.1896929E+03  0.7818608E-02  0.1158834E+00
         21   -1    0    0  503  502  0.00000000000E+00  0.00000000000E+00  0.29132889423E+03  0.29132889423E+03  0.00000000000E+00 0. -1.
         21   -1    0    0  501  503 -0.00000000000E+00 -0.00000000000E+00 -0.40536143936E+03  0.40536143936E+03  0.00000000000E+00 0. -1.
          6    2    1    2  501    0 -0.73613130268E+02 -0.20968024141E+02 -0.34760472797E+03  0.39579275871E+03  0.17310202182E+03 0.  0.
         24    2    3    3    0    0 -0.71280159084E+01 -0.54080274976E+02 -0.27308445683E+03  0.29047394559E+03  0.82610578946E+02 0.  0.
         -6    2    1    2    0  502  0.73613130268E+02  0.20968024141E+02  0.23357218283E+03  0.30089757487E+03  0.17356507421E+03 0.  0.
        -24    2    5    5    0    0  0.32780171317E+02  0.79583680126E+02  0.15496068459E+03  0.19457267977E+03  0.80234731689E+02 0.  0.
          5    1    3    3  501    0 -0.66485114359E+02  0.33112250834E+02 -0.74520271140E+02  0.10531881312E+03  0.47000000000E+01 0. -1.
        -11    1    4    4    0    0  0.33946336278E+01 -0.15724597334E+02 -0.16840830291E+01  0.16174752995E+02  0.00000000000E+00 0.  1.
         12    1    4    4    0    0 -0.10522649536E+02 -0.38355677641E+02 -0.27140037380E+03  0.27429919260E+03  0.00000000000E+00 0. -1.
         -5    1    5    5    0  502  0.40832958951E+02 -0.58615655985E+02  0.78611498247E+02  0.10632489511E+03  0.47000000000E+01 0.  1.
         11    1    6    6    0    0  0.26771161101E+02  0.58648090055E+02  0.36415422337E+02  0.74043072044E+02  0.00000000000E+00 0. -1.
        -12    1    6    6    0    0  0.60090102162E+01  0.20935590071E+02  0.11854526225E+03  0.12052960772E+03  0.00000000000E+00 0.  1.
</event>
<event>
12    1  0.8219652E-002  0.2118692E+03  0.7818608E-02  0.1140733E+00
         21   -1    0    0  501  502  0.00000000000E+00  0.00000000000E+00  0.37771457070E+02  0.37771457070E+02  0.00000000000E+00 0. -1.
         21   -1    0    0  502  503 -0.00000000000E+00 -0.00000000000E+00 -0.16733030756E+04  0.16733030756E+04  0.00000000000E+00 0. -1.
         -6    2    1    2    0  503  0.10816032678E+03 -0.49876918747E+02 -0.12824075935E+04  0.12992673819E+04  0.17128961019E+03 0.  0.
        -24    2    3    3    0    0  0.37144631736E+00 -0.37482248017E+02 -0.35112439038E+03  0.36167335196E+03  0.78193472294E+02 0.  0.
          6    2    1    2  501    0 -0.10816032678E+03  0.49876918747E+02 -0.35312402501E+03  0.41180715073E+03  0.17522040131E+03 0.  0.
         24    2    5    5    0    0 -0.43201369970E+01 -0.26354816650E+02 -0.16569196080E+03  0.18432763255E+03  0.76220799665E+02 0.  0.
          5    1    5    5  501    0 -0.10384018979E+03  0.76231735397E+02 -0.18743206421E+03  0.22747951818E+03  0.47000000000E+01 0. -1.
        -13    1    6    6    0    0  0.32854029569E+02 -0.14160848847E+02 -0.45210841219E+02  0.57653595402E+02  0.00000000000E+00 0.  1.
         14    1    6    6    0    0 -0.37174166566E+02 -0.12193967803E+02 -0.12048111958E+03  0.12667403714E+03  0.00000000000E+00 0. -1.
         -5    1    3    3    0  503  0.10778888047E+03 -0.12394670729E+02 -0.93128320314E+03  0.93759402999E+03  0.47000000000E+01 0.  1.
         11    1    4    4    0    0  0.38188759217E+02 -0.15201918827E+02 -0.13422824595E+03  0.14038056018E+03  0.00000000000E+00 0. -1.
        -12    1    4    4    0    0 -0.37817312899E+02 -0.22280329191E+02 -0.21689614443E+03  0.22129279177E+03  0.00000000000E+00 0.  1.
</event>
<event>
12    1  0.8219652E-002  0.2006534E+03  0.7818608E-02  0.1149596E+00
         21   -1    0    0  503  502  0.00000000000E+00  0.00000000000E+00  0.15360627089E+03  0.15360627089E+03  0.00000000000E+00 0. -1.
         21   -1    0    0  501  503 -0.00000000000E+00 -0.00000000000E+00 -0.38524318209E+03  0.38524318209E+03  0.00000000000E+00 0. -1.
          6    2    1    2  501    0  0.74645798722E+02  0.67813605353E+02 -0.27006154054E+03  0.33644468089E+03  0.17346788545E+03 0.  0.
         24    2    3    3    0    0  0.89207077439E+01  0.78974382994E+02 -0.86592451632E+02  0.14118242871E+03  0.78215684494E+02 0.  0.
         -6    2    1    2    0  502 -0.74645798722E+02 -0.67813605353E+02  0.38424629341E+02  0.20240477209E+03  0.17123247148E+03 0.  0.
        -24    2    5    5    0    0  0.17549420092E+02  0.53503114823E+01  0.57189782180E+01  0.80156390860E+02  0.77818585861E+02 0.  0.
          5    1    3    3  501    0  0.65725090978E+02 -0.11160777642E+02 -0.18346908890E+03  0.19526225218E+03  0.47000000000E+01 0. -1.
        -13    1    4    4    0    0  0.65857434284E+01  0.74019491672E+02 -0.10121613437E+03  0.12556656808E+03  0.00000000000E+00 0.  1.
         14    1    4    4    0    0  0.23349643155E+01  0.49548913228E+01  0.14623682736E+02  0.15615860627E+02  0.00000000000E+00 0. -1.
         -5    1    5    5    0  502 -0.92195218814E+02 -0.73163916835E+02  0.32705651123E+02  0.12224838123E+03  0.47000000000E+01 0.  1.
         13    1    6    6    0    0  0.47404755551E+02  0.12338600804E+02  0.69199336682E+01  0.49470571057E+02  0.00000000000E+00 0. -1.
        -14    1    6    6    0    0 -0.29855335459E+02 -0.69882893220E+01 -0.12009554502E+01  0.30685819804E+02  0.00000000000E+00 0.  1.
</event>
<event>
12    1  0.8219652E-002  0.2366076E+03  0.7818608E-02  0.1122182E+00
         21   -1    0    0  501  502  0.00000000000E+00  0.00000000000E+00  0.67550924782E+03  0.67550924782E+03  0.00000000000E+00 0.  1.
         21   -1    0    0  502  503 -0.00000000000E+00 -0.00000000000E+00 -0.26901352481E+03  0.26901352481E+03  0.00000000000E+00 0. -1.
         -6    2    1    2    0  503 -0.16613596849E+02  0.16129106221E+03 -0.18974018485E+03  0.30328946505E+03  0.17231466426E+03 0.  0.
        -24    2    3    3    0    0  0.43812993087E+02  0.14177143001E+03 -0.10962838734E+03  0.20095482325E+03  0.79660159098E+02 0.  0.
          6    2    1    2  501    0  0.16613596849E+02 -0.16129106221E+03  0.59623590786E+03  0.64123330758E+03  0.17144118111E+03 0.  0.
         24    2    5    5    0    0  0.62589327981E+02 -0.11096264075E+03  0.50624281480E+03  0.52823965883E+03  0.80778821521E+02 0.  0.
          5    1    5    5  501    0 -0.45975731132E+02 -0.50328421454E+02  0.89993093060E+02  0.11299364875E+03  0.47000000000E+01 0. -1.
        -11    1    6    6    0    0  0.69825926759E+02 -0.97054526097E+02  0.32456823125E+03  0.34588983480E+03  0.00000000000E+00 0.  1.
         12    1    6    6    0    0 -0.72365987780E+01 -0.13908114657E+02  0.18167458355E+03  0.18234982403E+03  0.00000000000E+00 0. -1.
         -5    1    3    3    0  503 -0.60426589937E+02  0.19519632201E+02 -0.80111797513E+02  0.10233464181E+03  0.47000000000E+01 0.  1.
         13    1    4    4    0    0 -0.13513204150E+02  0.29355301646E+02 -0.54256812150E+02  0.63151738581E+02  0.00000000000E+00 0. -1.
        -14    1    4    4    0    0  0.57326197238E+02  0.11241612836E+03 -0.55371575187E+02  0.13780308467E+03  0.00000000000E+00 0.  1.
</event>
<event>
12    1  0.8219652E-002  0.1760736E+03  0.7818608E-02  0.1171718E+00
         21   -1    0    0  503  502  0.00000000000E+00  0.00000000000E+00  0.16651562517E+03  0.16651562517E+03  0.00000000000E+00 0.  1.
         21   -1    0    0  501  503 -0.00000000000E+00 -0.00000000000E+00 -0.22180437826E+03  0.22180437826E+03  0.00000000000E+00 0.  1.
          6    2    1    2  501    0 -0.37303030958E+02  0.12025096234E+02 -0.10574901833E+03  0.20538929005E+03  0.17165601222E+03 0.  0.
         24    2    3    3    0    0  0.29281870782E+02 -0.14769771564E+02 -0.10175845164E+03  0.13335090651E+03  0.79700110903E+02 0.  0.
         -6    2    1    2    0  502  0.37303030958E+02 -0.12025096234E+02  0.50460265240E+02  0.18293071339E+03  0.17140970939E+03 0.  0.
        -24    2    5    5    0    0 -0.39759665586E+02  0.90021569852E+01  0.20690402421E+01  0.89418119405E+02  0.79557836273E+02 0.  0.
          5    1    3    3  501    0 -0.66584901740E+02  0.26794867799E+02 -0.39905666867E+01  0.72038383536E+02  0.47000000000E+01 0. -1.
        -11    1    4    4    0    0 -0.22640327183E+02 -0.24793574063E+01 -0.57156005347E+01  0.23481901916E+02  0.00000000000E+00 0.  1.
         12    1    4    4    0    0  0.51922197965E+02 -0.12290414158E+02 -0.96042851110E+02  0.10986900460E+03  0.00000000000E+00 0. -1.
         -5    1    5    5    0  502  0.77062696544E+02 -0.21027253219E+02  0.48391224998E+02  0.93512593982E+02  0.47000000000E+01 0.  1.
         11    1    6    6    0    0 -0.35052211001E+02  0.11737903063E+02 -0.35622041317E+02  0.51335812957E+02  0.00000000000E+00 0. -1.
        -12    1    6    6    0    0 -0.47074545856E+01 -0.27357460781E+01  0.37691081559E+02  0.38082306448E+02  0.00000000000E+00 0.  1.
</event>
<event>
12    1  0.8219652E-002  0.1872599E+03  0.7818608E-02  0.1161482E+00
         21   -1    0    0  501  502  0.00000000000E+00  0.00000000000E+00  0.13378548249E+04  0.13378548249E+04  0.00000000000E+00 0. -1.
         21   -1    0    0  502  503 -0.00000000000E+00 -0.00000000000E+00 -0.26475934767E+02  0.26475934767E+02  0.00000000000E+00 0.  1.
         -6    2    1    2    0  503  0.18053391272E+02 -0.66001844226E+02  0.75294930931E+03  0.77534020725E+03  0.17186508142E+03 0.  0.
        -24    2    3    3    0    0  0.11201165209E+02  0.14001542499E+01  0.16573226992E+03  0.18420915262E+03  0.79614069621E+02 0.  0.
          6    2    1    2  501    0 -0.18053391272E+02  0.66001844226E+02  0.55842958079E+03  0.58899055239E+03  0.17431037181E+03 0.  0.
         24    2    5    5    0    0  0.56113261473E+02  0.41455910207E+02  0.32432475426E+03  0.34214980401E+03  0.83741575994E+02 0.  0.
          5    1    5    5  501    0 -0.74166652745E+02  0.24545934019E+02  0.23410482653E+03  0.24684074838E+03  0.47000000000E+01 0. -1.
        -11    1    6    6    0    0  0.22267973959E+02  0.50062215289E+02  0.90968420452E+02  0.10619482842E+03  0.00000000000E+00 0.  1.
         12    1    6    6    0    0  0.33845287515E+02 -0.86063050813E+01  0.23335633381E+03  0.23595497559E+03  0.00000000000E+00 0. -1.
         -5    1    3    3    0  503  0.68522260629E+01 -0.67401998476E+02  0.58721703939E+03  0.59113105463E+03  0.47000000000E+01 0.  1.
         11    1    4    4    0    0  0.29852301528E+01  0.10619316026E+01  0.17312359418E+03  0.17315258635E+03  0.00000000000E+00 0. -1.
        -12    1    4    4    0    0  0.82159350561E+01  0.33822264725E+00 -0.73913242582E+01  0.11056566271E+02  0.00000000000E+00 0.  1.
</event>
<event>
12    1  0.8219652E-002  0.2119785E+03  0.7818608E-02  0.1140258E+00
         21   -1    0    0  501  502  0.00000000000E+00  0.00000000000E+00  0.63615015124E+02  0.63615015124E+02  0.00000000000E+00 0.  1.
         21   -1    0    0  502  503 -0.00000000000E+00 -0.00000000000E+00 -0.91454530675E+03  0.91454530675E+03  0.00000000000E+00 0.  1.
         -6    2    1    2    0  503 -0.81228416382E+02  0.91603573664E+02 -0.19074382377E+03  0.28516327372E+03  0.17304801656E+03 0.  0.
        -24    2    3    3    0    0 -0.99279365784E+02  0.11362230267E+03 -0.19138234449E+03  0.25629878152E+03  0.79343830842E+02 0.  0.
          6    2    1    2  501    0  0.81228416382E+02 -0.91603573664E+02 -0.66018646785E+03  0.69299704815E+03  0.17149188342E+03 0.  0.
         24    2    5    5    0    0  0.50850231177E+02 -0.11189449566E+03 -0.62627353659E+03  0.64292976783E+03  0.77678951884E+02 0.  0.
          5    1    5    5  501    0  0.30378185205E+02  0.20290921995E+02 -0.33912931263E+02  0.50067280319E+02  0.47000000000E+01 0. -1.
        -11    1    6    6    0    0  0.25387891504E+01 -0.71327592029E+02 -0.45177585712E+03  0.45737894126E+03  0.00000000000E+00 0.  1.
         12    1    6    6    0    0  0.48311442027E+02 -0.40566903631E+02 -0.17449767947E+03  0.18555082657E+03  0.00000000000E+00 0. -1.
         -5    1    3    3    0  503  0.18050949402E+02 -0.22018729003E+02  0.63852071567E+00  0.28864492199E+02  0.47000000000E+01 0.  1.
         13    1    4    4    0    0 -0.81801745818E+02  0.83222461727E+02 -0.85230727317E+02  0.14450529621E+03  0.00000000000E+00 0. -1.
        -14    1    4    4    0    0 -0.17477619966E+02  0.30399840940E+02 -0.10615161717E+03  0.11179348531E+03  0.00000000000E+00 0.  1.
</event>
<event>
12    1  0.8219652E-002  0.2795818E+03  0.7818608E-02  0.1096179E+00
         21   -1    0    0  501  502  0.00000000000E+00  0.00000000000E+00  0.18868694430E+04  0.18868694430E+04  0.00000000000E+00 0.  1.
         21   -1    0    0  502  503 -0.00000000000E+00 -0.00000000000E+00 -0.74998567009E+02  0.74998567009E+02  0.00000000000E+00 0. -1.
         -6    2    1    2    0  503 -0.20164150628E+03  0.86644043191E+02  0.24858719643E+03  0.37411442191E+03  0.17320369274E+03 0.  0.
        -24    2    3    3    0    0 -0.16343712906E+03  0.44254920866E+02  0.93705572627E+02  0.20898774472E+03  0.78898351846E+02 0.  0.
          6    2    1    2  501    0  0.20164150628E+03 -0.86644043191E+02  0.15632836796E+04  0.15877535881E+04  0.17011498006E+03 0.  0.
         24    2    5    5    0    0  0.15791055209E+03  0.10275532043E+01  0.89137705011E+03  0.90872537523E+03  0.79321899806E+02 0.  0.
          5    1    5    5  501    0  0.43730954193E+02 -0.87671596395E+02  0.67190662947E+03  0.67902821288E+03  0.47000000000E+01 0. -1.
        -11    1    6    6    0    0  0.13484029752E+03 -0.25134179277E+02  0.61218347457E+03  0.62736133077E+03  0.00000000000E+00 0.  1.
         12    1    6    6    0    0  0.23070254574E+02  0.26161732482E+02  0.27919357554E+03  0.28136404446E+03  0.00000000000E+00 0. -1.
         -5    1    3    3    0  503 -0.38204377219E+02  0.42389122325E+02  0.15488162380E+03  0.16512667719E+03  0.47000000000E+01 0.  1.
         13    1    4    4    0    0 -0.15814619327E+03  0.18588889824E+02  0.88816917593E+02  0.18232994850E+03  0.00000000000E+00 0. -1.
        -14    1    4    4    0    0 -0.52909357927E+01  0.25666031042E+02  0.48886550345E+01  0.26657796215E+02  0.00000000000E+00 0.  1.
</event>
<event>
12    1  0.8219652E-002  0.1792868E+03  0.7818608E-02  0.1168546E+00
         21   -1    0    0  503  502  0.00000000000E+00  0.00000000000E+00  0.35599830712E+03  0.35599830712E+03  0.00000000000E+00 0. -1.
         21   -1    0    0  501  503 -0.00000000000E+00 -0.00000000000E+00 -0.10205494956E+03  0.10205494956E+03  0.00000000000E+00 0. -1.
          6    2    1    2  501    0  0.41045062973E+02  0.31964275919E+02  0.48934099740E+02  0.18584487491E+03  0.17157318930E+03 0.  0.
         24    2    3    3    0    0 -0.31080464953E+02  0.32904699460E+02  0.64676240804E+02  0.11186595102E+03  0.79260711107E+02 0.  0.
         -6    2    1    2    0  502 -0.41045062973E+02 -0.31964275919E+02  0.20500925782E+03  0.27220838177E+03  0.17135400545E+03 0.  0.
        -24    2    5    5    0    0 -0.46580556545E+02 -0.84198505409E+02  0.15828294423E+03  0.20174921060E+03  0.79938207285E+02 0.  0.
          5    1    3    3  501    0  0.72125527927E+02 -0.94042354069E+00 -0.15742141063E+02  0.73978923893E+02  0.47000000000E+01 0. -1.
        -13    1    4    4    0    0 -0.44116953449E+02  0.14269633584E+02  0.33842036403E+01  0.46490653453E+02  0.00000000000E+00 0.  1.
         14    1    4    4    0    0  0.13036488495E+02  0.18635065876E+02  0.61292037164E+02  0.65375297568E+02  0.00000000000E+00 0. -1.
         -5    1    5    5    0  502  0.55354935712E+01  0.52234229490E+02  0.46726313596E+02  0.70459171168E+02  0.47000000000E+01 0.  1.
         13    1    6    6    0    0 -0.50556427268E+02 -0.18623065455E+02  0.42482958296E+02  0.68611753006E+02  0.00000000000E+00 0. -1.
        -14    1    6    6    0    0  0.39758707231E+01 -0.65575439954E+02  0.11579998593E+03  0.13313745760E+03  0.00000000000E+00 0.  1.
</event>
<event>
12    1  0.8219652E-002  0.1852025E+03  0.7818608E-02  0.1163349E+00
         21   -1    0    0  501  502  0.00000000000E+00  0.00000000000E+00  0.44423349595E+03  0.44423349595E+03  0.00000000000E+00 0. -1.
         21   -1    0    0  502  503 -0.00000000000E+00 -0.00000000000E+00 -0.11326175897E+03  0.11326175897E+03  0.00000000000E+00 0. -1.
         -6    2    1    2    0  503  0.80783093303E+01  0.61369574642E+02  0.32525241025E+03  0.37428479364E+03  0.17455226323E+03 0.  0.
        -24    2    3    3    0    0  0.41772929726E+02  0.99235904127E+02  0.24108724367E+03  0.27592295339E+03  0.80110391447E+02 0.  0.
          6    2    1    2  501    0 -0.80783093303E+01 -0.61369574642E+02  0.57193267262E+01  0.18321046128E+03  0.17234232983E+03 0.  0.
         24    2    5    5    0    0  0.35935089603E+02 -0.40872443447E+02  0.57795629748E+02  0.11185681380E+03  0.78801806308E+02 0.  0.
          5    1    5    5  501    0 -0.44013398933E+02 -0.20497131196E+02 -0.52076303022E+02  0.71353647485E+02  0.47000000000E+01 0. -1.
        -11    1    6    6    0    0  0.28347564659E+02 -0.63589191751E+02  0.31894723308E+02  0.76579652027E+02  0.00000000000E+00 0.  1.
         12    1    6    6    0    0  0.75875249435E+01  0.22716748305E+02  0.25900906441E+02  0.35277161773E+02  0.00000000000E+00 0. -1.
         -5    1    3    3    0  503 -0.33694620396E+02 -0.37866329485E+02  0.84165166579E+02  0.98361840251E+02  0.47000000000E+01 0.  1.
         11    1    4    4    0    0  0.14235053812E+02  0.95531439050E+02  0.22231552142E+03  0.24239035391E+03  0.00000000000E+00 0. -1.
        -12    1    4    4    0    0  0.27537875915E+02  0.37044650762E+01  0.18771722256E+02  0.33532599479E+02  0.00000000000E+00 0.  1.
</event>
<event>
12    1  0.8219652E-002  0.2090099E+03  0.7818608E-02  0.1142615E+00
         21   -1    0    0  503  502  0.00000000000E+00  0.00000000000E+00  0.81410736180E+03  0.81410736180E+03  0.00000000000E+00 0.  1.
         21   -1    0    0  501  503 -0.00000000000E+00 -0.00000000000E+00 -0.62660934390E+02  0.62660934390E+02  0.00000000000E+00 0.  1.
          6    2    1    2  501    0  0.11395317577E+03  0.11839123406E+02  0.54394444477E+03  0.58224800139E+03  0.17323880921E+03 0.  0.
         24    2    3    3    0    0  0.97351201554E+02  0.46919369566E+02  0.52496622951E+03  0.53879098961E+03  0.55022765045E+02 0.  0.
         -6    2    1    2    0  502 -0.11395317577E+03 -0.11839123406E+02  0.20750198264E+03  0.29452029480E+03  0.17481315779E+03 0.  0.
        -24    2    5    5    0    0 -0.11375609831E+03  0.26069785686E+02  0.81717306518E+02  0.16306308132E+03  0.79320657320E+02 0.  0.
          5    1    3    3  501    0  0.16601974218E+02 -0.35080246160E+02  0.18978215257E+02  0.43457011780E+02  0.47000000000E+01 0. -1.
        -13    1    4    4    0    0  0.47981560330E+02 -0.53577066342E+01  0.17654112886E+03  0.18302378352E+03  0.00000000000E+00 0.  1.
         14    1    4    4    0    0  0.49369641224E+02  0.52277076200E+02  0.34842510065E+03  0.35576720610E+03  0.00000000000E+00 0. -1.
         -5    1    5    5    0  502 -0.19707746366E+00 -0.37908909092E+02  0.12578467612E+03  0.13145721348E+03  0.47000000000E+01 0.  1.
         11    1    6    6    0    0 -0.60815697870E+02 -0.52081205511E+01  0.81184931694E+02  0.10157099370E+03  0.00000000000E+00 0. -1.
        -12    1    6    6    0    0 -0.52940400437E+02  0.31277906237E+02  0.53237482379E+00  0.61492087621E+02  0.00000000000E+00 0.  1.
</event>
<event>
12    1  0.8219652E-002  0.1785269E+03  0.7818608E-02  0.1169893E+00
         21   -1    0    0  501  502  0.00000000000E+00  0.00000000000E+00  0.18683178470E+03  0.18683178470E+03  0.00000000000E+00 0. -1.
         21   -1    0    0  502  503 -0.00000000000E+00 -0.00000000000E+00 -0.23636767308E+03  0.23636767308E+03  0.00000000000E+00 0. -1.
         -6    2    1    2    0  503 -0.10494014760E+02  0.33437640057E+02 -0.13838916757E+03  0.22378344598E+03  0.17233475817E+03 0.  0.
        -24    2    3    3    0    0  0.48759123513E+02  0.56635155833E+02 -0.10830248711E+03  0.15324014385E+03  0.78537379455E+02 0.  0.
          6    2    1    2  501    0  0.10494014760E+02 -0.33437640057E+02  0.88853279194E+02  0.19941601180E+03  0.17505325024E+03 0.  0.
         24    2    5    5    0    0  0.40862642615E+02  0.35798649354E+02  0.73152849585E+02  0.12205639172E+03  0.81210371868E+02 0.  0.
          5    1    5    5  501    0 -0.30368627855E+02 -0.69236289411E+02  0.15700429609E+02  0.77359620081E+02  0.47000000000E+01 0. -1.
        -11    1    6    6    0    0 -0.11721603143E+02  0.22043819254E+02 -0.63389980383E+01  0.25758665409E+02  0.00000000000E+00 0.  1.
         12    1    6    6    0    0  0.52584245758E+02  0.13754830100E+02  0.79491847623E+02  0.96297726306E+02  0.00000000000E+00 0. -1.
         -5    1    3    3    0  503 -0.59253138273E+02 -0.23197515776E+02 -0.30086680459E+02  0.70543302123E+02  0.47000000000E+01 0.  1.
         13    1    4    4    0    0  0.26155106894E+02 -0.10637450653E+02 -0.63018090661E+02  0.69054505455E+02  0.00000000000E+00 0. -1.
        -14    1    4    4    0    0  0.22604016618E+02  0.67272606486E+02 -0.45284396453E+02  0.84185638400E+02  0.00000000000E+00 0.  1.
</event>
<event>
12    1  0.8219652E-002  0.2521715E+03  0.7818608E-02  0.1111987E+00
         21   -1    0    0  503  502  0.00000000000E+00  0.00000000000E+00  0.22899070085E+03  0.22899070085E+03  0.00000000000E+00 0.  1.
         21   -1    0    0  501  503 -0.00000000000E+00 -0.00000000000E+00 -0.33885327009E+03  0.33885327009E+03  0.00000000000E+00 0.  1.
          6    2    1    2  501    0 -0.14663150859E+03 -0.11231829249E+03 -0.17584752444E+03  0.30718239620E+03  0.17123806395E+03 0.  0.
         24    2    3    3    0    0 -0.95968640244E+02 -0.14574238028E+03 -0.13621482218E+03  0.23454124421E+03  0.77487393392E+02 0.  0.
         -6    2    1    2    0  502  0.14663150859E+03  0.11231829249E+03  0.65984955213E+02  0.26066157474E+03  0.17168064565E+03 0.  0.
        -24    2    5    5    0    0  0.17468572245E+03  0.11672338566E+03  0.64007381105E+02  0.23180945937E+03  0.74156794907E+02 0.  0.
          5    1    3    3  501    0 -0.50662868343E+02  0.33424087796E+02 -0.39632702268E+02  0.72641151992E+02  0.47000000000E+01 0. -1.
        -13    1    4    4    0    0  0.17177955741E+01 -0.61599885421E+02 -0.51064851891E+02  0.80031967389E+02  0.00000000000E+00 0.  1.
         14    1    4    4    0    0 -0.97686435818E+02 -0.84142494863E+02 -0.85149970286E+02  0.15450927682E+03  0.00000000000E+00 0. -1.
         -5    1    5    5    0  502 -0.28054213868E+02 -0.44050931683E+01  0.19775741076E+01  0.28852115363E+02  0.47000000000E+01 0.  1.
         11    1    6    6    0    0  0.45169570467E+02  0.21020436749E+01 -0.52161938468E+01  0.45518318972E+02  0.00000000000E+00 0. -1.
        -12    1    6    6    0    0  0.12951615199E+03  0.11462134198E+03  0.69223574952E+02  0.18629114040E+03  0.00000000000E+00 0.  1.
</event>
<event>
12    1  0.8219652E-002  0.1894286E+03  0.7818608E-02  0.1159067E+00
         21   -1    0    0  501  502  0.00000000000E+00  0.00000000000E+00  0.15588871529E+03  0.15588871529E+03  0.00000000000E+00 0. -1.
         21   -1    0    0  502  503 -0.00000000000E+00 -0.00000000000E+00 -0.30726352066E+03  0.30726352066E+03  0.00000000000E+00 0.  1.
         -6    2    1    2    0  503 -0.36841451028E+02 -0.71463736017E+02 -0.19197264449E+03  0.26942211304E+03  0.17108600376E+03 0.  0.
        -24    2    3    3    0    0  0.10621950872E+02 -0.41422699652E+02 -0.27604908994E+02  0.95657672318E+02  0.80991934080E+02 0.  0.
          6    2    1    2  501    0  0.36841451028E+02  0.71463736017E+02  0.40597839127E+02  0.19373012291E+03  0.17151914734E+03 0.  0.
         24    2    5    5    0    0  0.88529737564E+02  0.68642645102E+02  0.34080929670E+02  0.14134503317E+03  0.79168058420E+02 0.  0.
          5    1    5    5  501    0 -0.51688286536E+02  0.28210909146E+01  0.65169094573E+01  0.52385089747E+02  0.47000000000E+01 0. -1.
        -13    1    6    6    0    0  0.42395333483E+02  0.21674515593E+02 -0.24206369585E+02  0.53414391842E+02  0.00000000000E+00 0.  1.
         14    1    6    6    0    0  0.46134404081E+02  0.46968129509E+02  0.58287299255E+02  0.87930641325E+02  0.00000000000E+00 0. -1.
         -5    1    3    3    0  503 -0.47463401900E+02 -0.30041036365E+02 -0.16436773550E+03  0.17376444072E+03  0.47000000000E+01 0.  1.
         11    1    4    4    0    0 -0.67330116107E+01  0.10747849784E+02  0.19497054924E+02  0.23259081475E+02  0.00000000000E+00 0. -1.
        -12    1    4    4    0    0  0.17354962483E+02 -0.52170549435E+02 -0.47101963918E+02  0.72398590844E+02  0.00000000000E+00 0.  1.
</event>
<event>
12    1  0.8219652E-002  0.2848659E+03  0.7818608E-02  0.1094551E+00
         21   -1    0    0  501  502  0.00000000000E+00  0.00000000000E+00  0.26822460610E+03  0.26822460610E+03  0.00000000000E+00 0.  1.
         21   -1    0    0  502  503 -0.00000000000E+00 -0.00000000000E+00 -0.31390399079E+03  0.31390399079E+03  0.00000000000E+00 0. -1.
         -6    2    1    2    0  503  0.10976099005E+03 -0.19791618334E+03 -0.10095515287E+03  0.29194938359E+03  0.15435092848E+03 0.  0.
        -24    2    3    3    0    0  0.80186463940E+02 -0.15497230827E+03 -0.16947022792E+02  0.19296309707E+03  0.80630452798E+02 0.  0.
          6    2    1    2  501    0 -0.10976099005E+03  0.19791618334E+03  0.55275768176E+02  0.29017921330E+03  0.17300368412E+03 0.  0.
         24    2    5    5    0    0 -0.13048764355E+03  0.12997192463E+03  0.13529843809E+01  0.20087202955E+03  0.80174904915E+02 0.  0.
          5    1    5    5  501    0  0.20726653499E+02  0.67944258709E+02  0.53922783795E+02  0.89307183748E+02  0.47000000000E+01 0. -1.
        -11    1    6    6    0    0 -0.14081122343E+03  0.12792773397E+03 -0.12003790547E+00  0.19024542089E+03  0.00000000000E+00 0.  1.
         12    1    6    6    0    0  0.10323579877E+02  0.20441906617E+01  0.14730222864E+01  0.10626608659E+02  0.00000000000E+00 0. -1.
         -5    1    3    3    0  503  0.29574526112E+02 -0.42943875067E+02 -0.84008130073E+02  0.98986286519E+02  0.47000000000E+01 0.  1.
         11    1    4    4    0    0  0.29321223234E+02 -0.12386723118E+03 -0.32443870832E+02  0.13135992481E+03  0.00000000000E+00 0. -1.
        -12    1    4    4    0    0  0.50865240706E+02 -0.31105077095E+02  0.15496848040E+02  0.61603172259E+02  0.00000000000E+00 0.  1.
</event>
<event>
12    1  0.8219652E-002  0.2828521E+03  0.7818608E-02  0.1094178E+00
         21   -1    0    0  501  502  0.00000000000E+00  0.00000000000E+00  0.87950191976E+02  0.87950191976E+02  0.00000000000E+00 0.  1.
         21   -1    0    0  502  503 -0.00000000000E+00 -0.00000000000E+00 -0.93052736312E+03  0.93052736312E+03  0.00000000000E+00 0. -1.
         -6    2    1    2    0  503  0.22317093203E+03 -0.16867452629E+02 -0.34367280134E+03  0.44510260417E+03  0.17296114593E+03 0.  0.
        -24    2    3    3    0    0  0.11881514749E+03 -0.75154410387E+02 -0.22021234281E+03  0.27319543728E+03  0.79856410811E+02 0.  0.
          6    2    1    2  501    0 -0.22317093203E+03  0.16867452629E+02 -0.49890436981E+03  0.57337495093E+03  0.17252097924E+03 0.  0.
         24    2    5    5    0    0 -0.82727349716E+02  0.67625048123E+02 -0.24864780417E+03  0.28191110761E+03  0.78937827148E+02 0.  0.
          5    1    5    5  501    0 -0.14044358231E+03 -0.50757595494E+02 -0.25025656564E+03  0.29146384331E+03  0.47000000000E+01 0. -1.
        -13    1    6    6    0    0 -0.88525449001E+02  0.35826110694E+02 -0.14743807476E+03  0.17566516791E+03  0.00000000000E+00 0.  1.
         14    1    6    6    0    0  0.57980992853E+01  0.31798937430E+02 -0.10120972940E+03  0.10624593970E+03  0.00000000000E+00 0. -1.
         -5    1    3    3    0  503  0.10435578453E+03  0.58286957758E+02 -0.12346045853E+03  0.17190716690E+03  0.47000000000E+01 0.  1.
         11    1    4    4    0    0  0.80470870790E+01 -0.31013329980E+02 -0.95147034215E+02  0.10039691413E+03  0.00000000000E+00 0. -1.
        -12    1    4    4    0    0  0.11076806041E+03 -0.44141080407E+02 -0.12506530860E+03  0.17279852315E+03  0.00000000000E+00 0.  1.
</event>
<event>
12    1  0.8219652E-002  0.1897483E+03  0.7818608E-02  0.1158849E+00
         21   -1    0    0  501  502  0.00000000000E+00  0.00000000000E+00  0.72362218963E+03  0.72362218963E+03  0.00000000000E+00 0.  1.
         21   -1    0    0  502  503 -0.00000000000E+00 -0.00000000000E+00 -0.29124954712E+03  0.29124954712E+03  0.00000000000E+00 0.  1.
         -6    2    1    2    0  503 -0.38875876211E+02  0.68247442715E+02 -0.24598553223E+03  0.31066587358E+03  0.17272913985E+03 0.  0.
        -24    2    3    3    0    0  0.22151844939E+02  0.72572147228E+02 -0.74386719606E+02  0.12842611855E+03  0.72128101912E+02 0.  0.
          6    2    1    2  501    0  0.38875876211E+02 -0.68247442715E+02  0.67835817475E+03  0.70420586317E+03  0.17195068271E+03 0.  0.
         24    2    5    5    0    0  0.39540497315E+02 -0.96106534248E+02  0.65441814915E+03  0.66716824003E+03  0.77784508176E+02 0.  0.
          5    1    5    5  501    0 -0.66462110413E+00  0.27859091533E+02  0.23940025598E+02  0.37037623141E+02  0.47000000000E+01 0. -1.
        -13    1    6    6    0    0  0.57946204064E+02 -0.83545434888E+02  0.59665443589E+03  0.60525541561E+03  0.00000000000E+00 0.  1.
         14    1    6    6    0    0 -0.18405706749E+02 -0.12561099361E+02  0.57763713261E+02  0.61912824420E+02  0.00000000000E+00 0. -1.
         -5    1    3    3    0  503 -0.61027721150E+02 -0.43247045133E+01 -0.17159881262E+03  0.18223975503E+03  0.47000000000E+01 0.  1.
         11    1    4    4    0    0 -0.24652162305E+02  0.36792748385E+02 -0.21388948146E+02  0.49182543070E+02  0.00000000000E+00 0. -1.
        -12    1    4    4    0    0  0.46804007244E+02  0.35779398843E+02 -0.52997771460E+02  0.79243575483E+02  0.00000000000E+00 0.  1.
</event>
<event>
12    1  0.8219652E-002  0.2121811E+03  0.7818608E-02  0.1139890E+00
         21   -1    0    0  501  502  0.00000000000E+00  0.00000000000E+00  0.56815823545E+03  0.56815823545E+03  0.00000000000E+00 0.  1.
         21   -1    0    0  502  503 -0.00000000000E+00 -0.00000000000E+00 -0.88611245611E+02  0.88611245611E+02  0.00000000000E+00 0. -1.
         -6    2    1    2    0  503  0.84365683083E+01  0.12223781001E+03  0.13245048073E+03  0.24995651187E+03  0.17297939213E+03 0.  0.
        -24    2    3    3    0    0  0.74722800533E+00  0.18490885810E+02  0.10487972099E+03  0.14223099481E+03  0.94273160554E+02 0.  0.
          6    2    1    2  501    0 -0.84365683083E+01 -0.12223781001E+03  0.34709650911E+03  0.40681296918E+03  0.17322686680E+03 0.  0.
         24    2    5    5    0    0  0.29131494089E+02 -0.12916014000E+02  0.20455431110E+03  0.22322924821E+03  0.83506668599E+02 0.  0.
          5    1    5    5  501    0 -0.37568062397E+02 -0.10932179601E+03  0.14254219801E+03  0.18358372097E+03  0.47000000000E+01 0. -1.
        -11    1    6    6    0    0 -0.12526791050E+02  0.20001059829E+02  0.12742674197E+03  0.12959374004E+03  0.00000000000E+00 0.  1.
         12    1    6    6    0    0  0.41658285138E+02 -0.32917073829E+02  0.77127569129E+02  0.93635508168E+02  0.00000000000E+00 0. -1.
         -5    1    3    3    0  503  0.76893403029E+01  0.10374692420E+03  0.27570759733E+02  0.10772551706E+03  0.47000000000E+01 0.  1.
         11    1    4    4    0    0  0.72022912691E+01  0.44984350092E+02  0.14472325508E+02  0.47800763156E+02  0.00000000000E+00 0. -1.
        -12    1    4    4    0    0 -0.64550632638E+01 -0.26493464282E+02  0.90407395487E+02  0.94430231654E+02  0.00000000000E+00 0.  1.
</event>
<event>
12    1  0.8219652E-002  0.1751659E+03  0.7818608E-02  0.1172613E+00
         21   -1    0    0  503  502  0.00000000000E+00  0.00000000000E+00  0.10006536191E+03  0.10006536191E+03  0.00000000000E+00 0. -1.
         21   -1    0    0  501  503 -0.00000000000E+00 -0.00000000000E+00 -0.33853983373E+03  0.33853983373E+03  0.00000000000E+00 0. -1.
          6    2    1    2  501    0 -0.88499737275E+01 -0.29201482660E+02 -0.18697655410E+03  0.25620955902E+03  0.17248784805E+03 0.  0.
         24    2    3    3    0    0 -0.92710003803E+00 -0.29264917757E+02 -0.18217835537E+02  0.87199585816E+02  0.80091093818E+02 0.  0.
         -6    2    1    2    0  502  0.88499737275E+01  0.29201482660E+02 -0.51497917715E+02  0.18239563662E+03  0.17229359856E+03 0.  0.
        -24    2    5    5    0    0 -0.61286493937E+02  0.76930052646E+01 -0.19784434365E+02  0.10233582322E+03  0.79157944650E+02 0.  0.
          5    1    3    3  501    0 -0.79228736894E+01  0.63435097622E-01 -0.16875871856E+03  0.16900997320E+03  0.47000000000E+01 0. -1.
        -11    1    4    4    0    0 -0.33236500533E+02  0.76300280322E+01  0.19858098050E+01  0.34158831011E+02  0.00000000000E+00 0.  1.
         12    1    4    4    0    0  0.32309400495E+02 -0.36894945789E+02 -0.20203645342E+02  0.53040754805E+02  0.00000000000E+00 0. -1.
         -5    1    5    5    0  502  0.70136467664E+02  0.21508477395E+02 -0.31713483350E+02  0.80059813405E+02  0.47000000000E+01 0.  1.
         11    1    6    6    0    0 -0.40599932010E+02  0.24248529234E+02  0.22551817302E+02  0.52392080631E+02  0.00000000000E+00 0. -1.
        -12    1    6    6    0    0 -0.20686561926E+02 -0.16555523969E+02 -0.42336251667E+02  0.49943742585E+02  0.00000000000E+00 0.  1.
</event>
<event>
12    1  0.8219652E-002  0.1828432E+03  0.7818608E-02  0.1165439E+00
         21   -1    0    0  503  502  0.00000000000E+00  0.00000000000E+00  0.81430283510E+02  0.81430283510E+02  0.00000000000E+00 0. -1.
         21   -1    0    0  501  503 -0.00000000000E+00 -0.00000000000E+00 -0.55367262621E+03  0.55367262621E+03  0.00000000000E+00 0. -1.
          6    2    1    2  501    0  0.12249019652E+02 -0.56453412612E+02 -0.39874599889E+03  0.43804107697E+03  0.17188538975E+03 0.  0.
         24    2    3    3    0    0 -0.56256581132E+02 -0.21473773289E+02 -0.18547276855E+03  0.21127213447E+03  0.81300929081E+02 0.  0.
         -6    2    1    2    0  502 -0.12249019652E+02  0.56453412612E+02 -0.73496343808E+02  0.19706183274E+03  0.17347803058E+03 0.  0.
        -24    2    5    5    0    0 -0.51409019791E+02  0.88277549456E+02 -0.37331471800E+02  0.13480214061E+03  0.79637712632E+02 0.  0.
          5    1    3    3  501    0  0.68505600784E+02 -0.34979639323E+02 -0.21327323034E+03  0.22676894250E+03  0.47000000000E+01 0. -1.
        -13    1    4    4    0    0 -0.38979710349E+02 -0.21719111359E+02 -0.27624416518E+02  0.52480910863E+02  0.00000000000E+00 0.  1.
         14    1    4    4    0    0 -0.17276870783E+02  0.24533806969E+00 -0.15784835203E+03  0.15879122361E+03  0.00000000000E+00 0. -1.
         -5    1    5    5    0  502  0.39160000139E+02 -0.31824136844E+02 -0.36164872008E+02  0.62259692130E+02  0.47000000000E+01 0.  1.
         11    1    6    6    0    0 -0.33984384879E+02  0.64759048249E+02 -0.62497402155E+02  0.96200821316E+02  0.00000000000E+00 0. -1.
        -12    1    6    6    0    0 -0.17424634912E+02  0.23518501207E+02  0.25165930355E+02  0.38601319297E+02  0.00000000000E+00 0.  1.
</event>
<event>
12    1  0.8219652E-002  0.2113835E+03  0.7818608E-02  0.1141057E+00
         21   -1    0    0  501  502  0.00000000000E+00  0.00000000000E+00  0.54425819125E+02  0.54425819125E+02  0.00000000000E+00 0. -1.
         21   -1    0    0  502  503 -0.00000000000E+00 -0.00000000000E+00 -0.84154283235E+03  0.84154283235E+03  0.00000000000E+00 0. -1.
         -6    2    1    2    0  503 -0.11854467233E+03  0.12227553904E+02 -0.47818509520E+03  0.52164005031E+03  0.17101170836E+03 0.  0.
        -24    2    3    3    0    0 -0.45386465121E+02 -0.28478320484E+00 -0.41095301726E+03  0.42138575281E+03  0.81385244094E+02 0.  0.
          6    2    1    2  501    0  0.11854467233E+03 -0.12227553904E+02 -0.30893191802E+03  0.37432860117E+03  0.17458699627E+03 0.  0.
         24    2    5    5    0    0  0.78317883034E+02  0.50091294963E+02 -0.11927273049E+03  0.17062653707E+03  0.79022795960E+02 0.  0.
          5    1    5    5  501    0  0.40226789298E+02 -0.62318848867E+02 -0.18965918753E+03  0.20370206410E+03  0.47000000000E+01 0. -1.
        -11    1    6    6    0    0  0.69626195431E+01  0.45960994479E+01 -0.74351039181E+02  0.74817639821E+02  0.00000000000E+00 0.  1.
         12    1    6    6    0    0  0.71355263491E+02  0.45495195515E+02 -0.44921691309E+02  0.95808897253E+02  0.00000000000E+00 0. -1.
         -5    1    3    3    0  503 -0.73158207211E+02  0.12512337109E+02 -0.67232077939E+02  0.10025429750E+03  0.47000000000E+01 0.  1.
         11    1    4    4    0    0 -0.18460193145E+02  0.39225334713E+02 -0.23944214910E+03  0.24333505374E+03  0.00000000000E+00 0. -1.
        -12    1    4    4    0    0 -0.26926271976E+02 -0.39510117918E+02 -0.17151086817E+03  0.17805069907E+03  0.00000000000E+00 0.  1.
</event>
<event>
12    1  0.8219652E-002  0.1965778E+03  0.7818608E-02  0.1153072E+00
         21   -1    0    0  501  502  0.00000000000E+00  0.00000000000E+00  0.63909349895E+03  0.63909349895E+03  0.00000000000E+00 0. -1.
         21   -1    0    0  502  503 -0.00000000000E+00 -0.00000000000E+00 -0.87189806118E+02  0.87189806118E+02  0.00000000000E+00 0. -1.
         -6    2    1    2    0  503  0.32795341111E+02  0.84407558051E+02  0.73640604550E+02  0.20991847570E+03  0.17447824377E+03 0.  0.
        -24    2    3    3    0    0  0.31510961450E+02  0.90610111424E+02 -0.11245402263E+02  0.12466681617E+03  0.78817656647E+02 0.  0.
          6    2    1    2  501    0 -0.32795341111E+02 -0.84407558051E+02  0.47826308828E+03  0.51636482937E+03  0.17232784203E+03 0.  0.
         24    2    5    5    0    0  0.60209524320E+01  0.11181788165E+02  0.29616032488E+03  0.30701456260E+03  0.79910696176E+02 0.  0.
          5    1    5    5  501    0 -0.38816293543E+02 -0.95589346216E+02  0.18210276341E+03  0.20935026677E+03  0.47000000000E+01 0. -1.
        -13    1    6    6    0    0 -0.27718684041E+02 -0.12299015763E+02  0.59195997340E+02  0.66511332379E+02  0.00000000000E+00 0.  1.
         14    1    6    6    0    0  0.33739636474E+02  0.23480803928E+02  0.23696432754E+03  0.24050323022E+03  0.00000000000E+00 0. -1.
         -5    1    3    3    0  503  0.12843796607E+01 -0.62025533728E+01  0.84886006813E+02  0.85251659527E+02  0.47000000000E+01 0.  1.
         13    1    4    4    0    0  0.20300338431E+01 -0.13100326791E+02 -0.10391760565E+02  0.16844236019E+02  0.00000000000E+00 0. -1.
        -14    1    4    4    0    0  0.29480927607E+02  0.10371043821E+03 -0.85364169805E+00  0.10782258016E+03  0.00000000000E+00 0.  1.
</event>
<event>
12    1  0.8219652E-002  0.1718496E+03  0.7818608E-02  0.1175970E+00
         21   -1    0    0  501  502  0.00000000000E+00  0.00000000000E+00  0.30017952106E+03  0.30017952106E+03  0.00000000000E+00 0. -1.
         21   -1    0    0  502  503 -0.00000000000E+00 -0.00000000000E+00 -0.98573468660E+02  0.98573468660E+02  0.00000000000E+00 0. -1.
         -6    2    1    2    0  503  0.97409201097E+00 -0.20817684408E+01  0.11135940604E+03  0.20477596789E+03  0.17183421399E+03 0.  0.
        -24    2    3    3    0    0  0.50621137990E+01 -0.29763083921E+02 -0.69242512778E+01  0.83136826427E+02  0.77151283151E+02 0.  0.
          6    2    1    2  501    0 -0.97409201097E+00  0.20817684408E+01  0.90246646363E+02  0.19397702183E+03  0.17168967704E+03 0.  0.
         24    2    5    5    0    0 -0.36167126158E+02  0.30880327685E+02  0.11437324259E+02  0.10286771430E+03  0.90494743534E+02 0.  0.
          5    1    5    5  501    0  0.35193034147E+02 -0.28798559244E+02  0.78809322105E+02  0.91109307524E+02  0.47000000000E+01 0. -1.
        -11    1    6    6    0    0 -0.54928219085E+02  0.50748117071E+02  0.10586661389E+02  0.75528524661E+02  0.00000000000E+00 0.  1.
         12    1    6    6    0    0  0.18761092927E+02 -0.19867789387E+02  0.85066286971E+00  0.27339189642E+02  0.00000000000E+00 0. -1.
         -5    1    3    3    0  503 -0.40880217880E+01  0.27681315481E+02  0.11828365732E+03  0.12163914147E+03  0.47000000000E+01 0.  1.
         11    1    4    4    0    0  0.21592293114E+02  0.46061536653E-01  0.27318380307E+02  0.34821303052E+02  0.00000000000E+00 0. -1.
        -12    1    4    4    0    0 -0.16530179315E+02 -0.29809145458E+02 -0.34242631585E+02  0.48315523375E+02  0.00000000000E+00 0.  1.
</event>
<event>
12    1  0.8219652E-002  0.1857146E+03  0.7818608E-02  0.1162731E+00
         21   -1    0    0  501  502  0.00000000000E+00  0.00000000000E+00  0.91077832112E+02  0.91077832112E+02  0.00000000000E+00 0. -1.
         21   -1    0    0  502  503 -0.00000000000E+00 -0.00000000000E+00 -0.37589759228E+03  0.37589759228E+03  0.00000000000E+00 0. -1.
         -6    2    1    2    0  503 -0.59962011716E+02  0.25066071702E+02 -0.13708768948E+03  0.23083098380E+03  0.17397171516E+03 0.  0.
        -24    2    3    3    0    0 -0.63735093775E+02  0.70289114715E+02 -0.13004138579E+03  0.18466714337E+03  0.90490165203E+02 0.  0.
          6    2    1    2  501    0  0.59962011716E+02 -0.25066071702E+02 -0.14773207069E+03  0.23614444059E+03  0.17238236949E+03 0.  0.
         24    2    5    5    0    0  0.85931849069E+02 -0.63204598061E+02 -0.86531736743E+02  0.15935544060E+03  0.80791776087E+02 0.  0.
          5    1    5    5  501    0 -0.25969837353E+02  0.38138526359E+02 -0.61200333949E+02  0.76788999996E+02  0.47000000000E+01 0. -1.
        -13    1    6    6    0    0  0.31414677358E+01 -0.33612477687E+02 -0.57660767090E+02  0.66816401708E+02  0.00000000000E+00 0.  1.
         14    1    6    6    0    0  0.82790381334E+02 -0.29592120374E+02 -0.28870969652E+02  0.92539038888E+02  0.00000000000E+00 0. -1.
         -5    1    3    3    0  503  0.37730820584E+01 -0.45223043013E+02 -0.70463036954E+01  0.46163840431E+02  0.47000000000E+01 0.  1.
         13    1    4    4    0    0 -0.29634932029E+02 -0.92176421811E+01 -0.77420833929E+02  0.83409709567E+02  0.00000000000E+00 0. -1.
        -14    1    4    4    0    0 -0.34100161746E+02  0.79506756896E+02 -0.52620551856E+02  0.10125743381E+03  0.00000000000E+00 0.  1.
</event>
<event>
12    1  0.8219652E-002  0.1827914E+03  0.7818608E-02  0.1167208E+00
         21   -1    0    0  501  502  0.00000000000E+00  0.00000000000E+00  0.30005794031E+03  0.30005794031E+03  0.00000000000E+00 0.  1.
         21   -1    0    0  502  503 -0.00000000000E+00 -0.00000000000E+00 -0.13971105245E+03  0.13971105245E+03  0.00000000000E+00 0.  1.
         -6    2    1    2    0  503  0.14638106436E+02 -0.28111156915E+02 -0.26020951253E+02  0.18463416220E+03  0.18002270036E+03 0.  0.
        -24    2    3    3    0    0  0.15344266188E+02 -0.59387733047E+00  0.53513697764E+02  0.10033973930E+03  0.83477830826E+02 0.  0.
          6    2    1    2  501    0 -0.14638106436E+02  0.28111156915E+02  0.18636783911E+03  0.25513483056E+03  0.17133679993E+03 0.  0.
         24    2    5    5    0    0 -0.53061924989E+02  0.25084410314E+02  0.45419841775E+02  0.10893640725E+03  0.79745741414E+02 0.  0.
          5    1    5    5  501    0  0.38423818553E+02  0.30267466003E+01  0.14094799733E+03  0.14619842331E+03  0.47000000000E+01 0. -1.
        -11    1    6    6    0    0 -0.78677215378E+01  0.91281718063E+01  0.58118244462E+02  0.59354485105E+02  0.00000000000E+00 0.  1.
         12    1    6    6    0    0 -0.45194203451E+02  0.15956238508E+02 -0.12698402687E+02  0.49581922146E+02  0.00000000000E+00 0. -1.
         -5    1    3    3    0  503 -0.70615975134E+00 -0.27517279584E+02 -0.79534649017E+02  0.84294422897E+02  0.47000000000E+01 0.  1.
         11    1    4    4    0    0  0.16059618523E+02  0.18399783989E+02  0.70647583454E+02  0.74749879236E+02  0.00000000000E+00 0. -1.
        -12    1    4    4    0    0 -0.71535233531E+00 -0.18993661320E+02 -0.17133885690E+02  0.25589860065E+02  0.00000000000E+00 0.  1.
</event>
<event>
12    1  0.8219652E-002  0.2541533E+03  0.7818608E-02  0.1110745E+00
         21   -1    0    0  501  502  0.00000000000E+00  0.00000000000E+00  0.17760759616E+03  0.17760759616E+03  0.00000000000E+00 0.  1.
         21   -1    0    0  502  503 -0.00000000000E+00 -0.00000000000E+00 -0.37446034201E+03  0.37446034201E+03  0.00000000000E+00 0.  1.
         -6    2    1    2    0  503  0.54099604954E+02 -0.17894714621E+03 -0.14593809779E+03  0.29286488317E+03  0.17182276630E+03 0.  0.
        -24    2    3    3    0    0  0.61148740011E+02 -0.14142146508E+03 -0.17369249859E+03  0.24542793752E+03  0.79539859544E+02 0.  0.
          6    2    1    2  501    0 -0.54099604954E+02  0.17894714621E+03 -0.50914648068E+02  0.25920305500E+03  0.17217744899E+03 0.  0.
         24    2    5    5    0    0  0.21795952829E+02  0.15277998551E+03 -0.37444884328E+02  0.17766545308E+03  0.79662452422E+02 0.  0.
          5    1    5    5  501    0 -0.75895557783E+02  0.26167160699E+02 -0.13469763740E+02  0.81537601911E+02  0.47000000000E+01 0. -1.
        -11    1    6    6    0    0  0.37033692131E+02  0.94577041294E+02  0.85575386698E+01  0.10192910556E+03  0.00000000000E+00 0.  1.
         12    1    6    6    0    0 -0.15237739303E+02  0.58202944214E+02 -0.46002422997E+02  0.75736347521E+02  0.00000000000E+00 0. -1.
         -5    1    3    3    0  503 -0.70491350565E+01 -0.37525681129E+02  0.27754400806E+02  0.47436945658E+02  0.47000000000E+01 0.  1.
         11    1    4    4    0    0  0.16847238083E+02 -0.25735792304E+00  0.53281270340E+00  0.16857625975E+02  0.00000000000E+00 0. -1.
        -12    1    4    4    0    0  0.44301501928E+02 -0.14116410715E+03 -0.17422531130E+03  0.22857031154E+03  0.00000000000E+00 0.  1.
</event>
<event>
12    1  0.8219652E-002  0.3702533E+03  0.7818608E-02  0.1054687E+00
         21   -1    0    0  503  502  0.00000000000E+00  0.00000000000E+00  0.80492736477E+02  0.80492736477E+02  0.00000000000E+00 0. -1.
         21   -1    0    0  501  503 -0.00000000000E+00 -0.00000000000E+00 -0.16989261757E+04  0.16989261757E+04  0.00000000000E+00 0. -1.
          6    2    1    2  501    0  0.30427227615E+03  0.12077306742E+03 -0.81798953663E+03  0.89749035825E+03  0.17092193912E+03 0.  0.
         24    2    3    3    0    0  0.23092814614E+03  0.42596421688E+02 -0.45586759660E+03  0.51980617961E+03  0.85093683146E+02 0.  0.
         -6    2    1    2    0  502 -0.30427227615E+03 -0.12077306742E+03 -0.80044390259E+03  0.88192855392E+03  0.17297335397E+03 0.  0.
        -24    2    5    5    0    0 -0.50009649756E+02 -0.13711972017E+02 -0.16034954909E+03  0.18489596307E+03  0.76062842575E+02 0.  0.
          5    1    3    3  501    0  0.73344130008E+02  0.78176645730E+02 -0.36212194003E+03  0.37768417864E+03  0.47000000000E+01 0. -1.
        -11    1    4    4    0    0  0.22269140908E+02 -0.94652394235E+01 -0.12962118736E+02  0.27450353663E+02  0.00000000000E+00 0.  1.
         12    1    4    4    0    0  0.20865900523E+03  0.52061661112E+02 -0.44290547787E+03  0.49235582595E+03  0.00000000000E+00 0. -1.
         -5    1    5    5    0  502 -0.25426262639E+03 -0.10706109540E+03 -0.64009435350E+03  0.69703259086E+03  0.47000000000E+01 0.  1.
         13    1    6    6    0    0 -0.38202226817E+02  0.88656948255E+01 -0.23552433915E+02  0.45746342169E+02  0.00000000000E+00 0. -1.
        -14    1    6    6    0    0 -0.11807422939E+02 -0.22577666843E+02 -0.13679711517E+03  0.13914962090E+03  0.00000000000E+00 0.  1.
</event>
<event>
12    1  0.8219652E-002  0.2368232E+03  0.7818608E-02  0.1122029E+00
         21   -1    0    0  503  502  0.00000000000E+00  0.00000000000E+00  0.75178942225E+03  0.75178942225E+03  0.00000000000E+00 0.  1.
         21   -1    0    0  501  503 -0.00000000000E+00 -0.00000000000E+00 -0.12686607240E+03  0.12686607240E+03  0.00000000000E+00 0. -1.
          6    2    1    2  501    0 -0.15574460183E+03 -0.46587875280E+02  0.30208269206E+02  0.23874209561E+03  0.17221625232E+03 0.  0.
         24    2    3    3    0    0 -0.45862701878E+02  0.35691216905E+02  0.11937821568E+02  0.10017882412E+03  0.80721960023E+02 0.  0.
         -6    2    1    2    0  502  0.15574460183E+03  0.46587875280E+02  0.59471508064E+03  0.63991339904E+03  0.17139521581E+03 0.  0.
        -24    2    5    5    0    0  0.15009883229E+03  0.65475441003E+02  0.59190483814E+03  0.61945362593E+03  0.80961499700E+02 0.  0.
          5    1    3    3  501    0 -0.10988189996E+03 -0.82279092185E+02  0.18270447638E+02  0.13856327149E+03  0.47000000000E+01 0. -1.
        -11    1    4    4    0    0 -0.28801274755E+02  0.40971438942E+02  0.41899919667E+02  0.65297591874E+02  0.00000000000E+00 0.  1.
         12    1    4    4    0    0 -0.17061427123E+02 -0.52802220369E+01 -0.29962098099E+02  0.34881232243E+02  0.00000000000E+00 0. -1.
         -5    1    5    5    0  502  0.56457695461E+01 -0.18887565722E+02  0.28102425002E+01  0.20459773107E+02  0.47000000000E+01 0.  1.
         13    1    6    6    0    0  0.23000510054E+01  0.14969105893E+02  0.13357451460E+02  0.20193708806E+02  0.00000000000E+00 0. -1.
        -14    1    6    6    0    0  0.14779878128E+03  0.50506335110E+02  0.57854738668E+03  0.59925991713E+03  0.00000000000E+00 0.  1.
</event>
<event>
12    1  0.8219652E-002  0.2204669E+03  0.7818608E-02  0.1133668E+00
         21   -1    0    0  501  502  0.00000000000E+00  0.00000000000E+00  0.24863235195E+03  0.24863235195E+03  0.00000000000E+00 0.  1.
         21   -1    0    0  502  503 -0.00000000000E+00 -0.00000000000E+00 -0.32895500968E+03  0.32895500968E+03  0.00000000000E+00 0.  1.
         -6    2    1    2    0  503 -0.39386049801E+01 -0.13634748280E+03 -0.22458364352E+03  0.31471174972E+03  0.17320370608E+03 0.  0.
        -24    2    3    3    0    0  0.26283753922E+01 -0.11989181381E+02 -0.42303211051E+02  0.93903329536E+02  0.82931446420E+02 0.  0.
          6    2    1    2  501    0  0.39386049801E+01  0.13634748280E+03  0.14426098579E+03  0.26287561191E+03  0.17229685615E+03 0.  0.
         24    2    5    5    0    0 -0.13620612995E+02  0.16000089298E+03  0.88627291824E+02  0.19974869329E+03  0.79113442365E+02 0.  0.
          5    1    5    5  501    0  0.17559217975E+02 -0.23653410180E+02  0.55633693969E+02  0.63126918613E+02  0.47000000000E+01 0. -1.
        -13    1    6    6    0    0 -0.32223414328E+01  0.14020608180E+03  0.39386340475E+02  0.14566884593E+03  0.00000000000E+00 0.  1.
         14    1    6    6    0    0 -0.10398271562E+02  0.19794811181E+02  0.49240951349E+02  0.54079847364E+02  0.00000000000E+00 0. -1.
         -5    1    3    3    0  503 -0.65669803722E+01 -0.12435830142E+03 -0.18228043247E+03  0.22080842018E+03  0.47000000000E+01 0.  1.
         11    1    4    4    0    0  0.41066949659E+02  0.15573738807E+01 -0.11085201775E+02  0.42565261260E+02  0.00000000000E+00 0. -1.
        -12    1    4    4    0    0 -0.38438574267E+02 -0.13546555262E+02 -0.31218009276E+02  0.51338068276E+02  0.00000000000E+00 0.  1.
</event>
<event>
12    1  0.8219652E-002  0.1953060E+03  0.7818608E-02  0.1154288E+00
         21   -1    0    0  503  502  0.00000000000E+00  0.00000000000E+00  0.45747313799E+03  0.45747313799E+03  0.00000000000E+00 0. -1.
         21   -1    0    0  501  503 -0.00000000000E+00 -0.00000000000E+00 -0.91345407979E+02  0.91345407979E+02  0.00000000000E+00 0. -1.
          6    2    1    2  501    0 -0.79873062618E+02  0.32222399449E+02  0.95956852894E+02  0.21544679879E+03  0.17260248067E+03 0.  0.
         24    2    3    3    0    0 -0.37139242216E+02  0.75243334715E+02  0.22800952040E+02  0.12031081135E+03  0.83150016129E+02 0.  0.
         -6    2    1    2    0  502  0.79873062618E+02 -0.32222399449E+02  0.27017087712E+03  0.33337174717E+03  0.17528955991E+03 0.  0.
        -24    2    5    5    0    0  0.17481594733E+02 -0.43293797842E+02  0.25456446077E+03  0.26794299693E+03  0.69357233447E+02 0.  0.
          5    1    3    3  501    0 -0.42733820402E+02 -0.43020935266E+02  0.73155900854E+02  0.95135987444E+02  0.47000000000E+01 0. -1.
        -13    1    4    4    0    0  0.13928221363E+02  0.76465832251E+00  0.26481796984E+02  0.29931014420E+02  0.00000000000E+00 0.  1.
         14    1    4    4    0    0 -0.51067463579E+02  0.74478676393E+02 -0.36808449442E+01  0.90379796930E+02  0.00000000000E+00 0. -1.
         -5    1    5    5    0  502  0.62391467884E+02  0.11071398393E+02  0.15606416347E+02  0.65428750243E+02  0.47000000000E+01 0.  1.
         13    1    6    6    0    0  0.44273284328E+02 -0.24847962837E+02  0.14367567013E+03  0.15238189902E+03  0.00000000000E+00 0. -1.
        -14    1    6    6    0    0 -0.26791689595E+02 -0.18445835005E+02  0.11088879064E+03  0.11556109791E+03  0.00000000000E+00 0.  1.
</event>
<event>
12    1  0.8219652E-002  0.2110267E+03  0.7818608E-02  0.1141009E+00
         21   -1    0    0  501  502  0.00000000000E+00  0.00000000000E+00  0.97349868645E+03  0.97349868645E+03  0.00000000000E+00 0.  1.
         21   -1    0    0  502  503 -0.00000000000E+00 -0.00000000000E+00 -0.97399837616E+02  0.97399837616E+02  0.00000000000E+00 0.  1.
         -6    2    1    2    0  503  0.11817734393E+03  0.31020009721E+02  0.47688543496E+02  0.21634801506E+03  0.17205853893E+03 0.  0.
        -24    2    3    3    0    0  0.36870872988E+02  0.70858616588E+02  0.56001425016E+02  0.12530379057E+03  0.78641436326E+02 0.  0.
          6    2    1    2  501    0 -0.11817734393E+03 -0.31020009721E+02  0.82841030534E+03  0.85455050901E+03  0.17048405447E+03 0.  0.
         24    2    5    5    0    0 -0.24142579044E+02  0.19774058001E+02  0.54411122623E+03  0.55078969734E+03  0.79613985527E+02 0.  0.
          5    1    5    5  501    0 -0.94034764887E+02 -0.50794067722E+02  0.28429907911E+03  0.30376081167E+03  0.47000000000E+01 0. -1.
        -13    1    6    6    0    0 -0.41101147652E+02  0.36077245032E+02  0.25907039464E+03  0.26477979781E+03  0.00000000000E+00 0.  1.
         14    1    6    6    0    0  0.16958568609E+02 -0.16303187031E+02  0.28504083159E+03  0.28600989953E+03  0.00000000000E+00 0. -1.
         -5    1    3    3    0  503  0.81306470943E+02 -0.39838606867E+02 -0.83128815199E+01  0.91044224493E+02  0.47000000000E+01 0.  1.
         11    1    4    4    0    0 -0.23890518077E+02  0.14598009289E+02  0.22725614902E+02  0.36059843342E+02  0.00000000000E+00 0. -1.
        -12    1    4    4    0    0  0.60761391065E+02  0.56260607299E+02  0.33275810114E+02  0.89243947226E+02  0.00000000000E+00 0.  1.
</event>
<event>
12    1  0.8219652E-002  0.1834419E+03  0.7818608E-02  0.1165729E+00
         21   -1    0    0  501  502  0.00000000000E+00  0.00000000000E+00  0.19865602153E+02  0.19865602153E+02  0.00000000000E+00 0. -1.
         21   -1    0    0  502  503 -0.00000000000E+00 -0.00000000000E+00 -0.17070726070E+04  0.17070726070E+04  0.00000000000E+00 0. -1.
         -6    2    1    2    0  503  0.55158759354E+02 -0.34521064142E+02 -0.99360414298E+03  0.10094872638E+04  0.16607573641E+03 0.  0.
        -24    2    3    3    0    0  0.29702422468E+02 -0.76764635865E+02 -0.84782657456E+03  0.85552059892E+03  0.79564762472E+02 0.  0.
          6    2    1    2  501    0 -0.55158759354E+02  0.34521064142E+02 -0.69360286190E+03  0.71745094539E+03  0.17151307938E+03 0.  0.
         24    2    5    5    0    0 -0.87699605934E+02  0.56297178878E+02 -0.39147320145E+03  0.41275843220E+03  0.79105389625E+02 0.  0.
          5    1    5    5  501    0  0.32540846580E+02 -0.21776114736E+02 -0.30212966045E+03  0.30469251319E+03  0.47000000000E+01 0. -1.
        -11    1    6    6    0    0 -0.27175406028E+02 -0.17495354853E+02 -0.64548913228E+02  0.72188311610E+02  0.00000000000E+00 0.  1.
         12    1    6    6    0    0 -0.60524199906E+02  0.73792533731E+02 -0.32692428823E+03  0.34057012059E+03  0.00000000000E+00 0. -1.
         -5    1    3    3    0  503  0.25456336886E+02  0.42243571723E+02 -0.14577756843E+03  0.15396666488E+03  0.47000000000E+01 0.  1.
         11    1    4    4    0    0  0.50025806222E+01 -0.35394752063E+02 -0.10096137891E+03  0.10710282124E+03  0.00000000000E+00 0. -1.
        -12    1    4    4    0    0  0.24699841846E+02 -0.41369883803E+02 -0.74686519564E+03  0.74841777767E+03  0.00000000000E+00 0.  1.
</event>
<event>
12    1  0.8219652E-002  0.1720872E+03  0.7818608E-02  0.1175740E+00
         21   -1    0    0  501  502  0.00000000000E+00  0.00000000000E+00  0.10428479388E+04  0.10428479388E+04  0.00000000000E+00 0. -1.
         21   -1    0    0  502  503 -0.00000000000E+00 -0.00000000000E+00 -0.37372750155E+02  0.37372750155E+02  0.00000000000E+00 0. -1.
         -6    2    1    2    0  503  0.37087747685E+01 -0.12483763832E+01  0.23778387296E+03  0.29352202100E+03  0.17204270725E+03 0.  0.
        -24    2    3    3    0    0  0.62311148386E+02 -0.13275497521E+02  0.19480023808E+03  0.21970757320E+03  0.79154070762E+02 0.  0.
          6    2    1    2  501    0 -0.37087747685E+01  0.12483763832E+01  0.76769131564E+03  0.78669866791E+03  0.17184156810E+03 0.  0.
         24    2    5    5    0    0  0.53630162285E+02 -0.12749998838E+02  0.29698771719E+03  0.31228568769E+03  0.79258373657E+02 0.  0.
          5    1    5    5  501    0 -0.57338937054E+02  0.13998375221E+02  0.47070359845E+03  0.47441298022E+03  0.47000000000E+01 0. -1.
        -11    1    6    6    0    0  0.41651166915E+02  0.27839017855E+02  0.11493655993E+03  0.12538039492E+03  0.00000000000E+00 0.  1.
         12    1    6    6    0    0  0.11978995370E+02 -0.40589016692E+02  0.18205115726E+03  0.18690529277E+03  0.00000000000E+00 0. -1.
         -5    1    3    3    0  503 -0.58602373618E+02  0.12027121138E+02  0.42983634882E+02  0.73814447801E+02  0.47000000000E+01 0.  1.
         13    1    4    4    0    0  0.51305607279E+02  0.21469027680E+02  0.15970229763E+03  0.16910945673E+03  0.00000000000E+00 0. -1.
        -14    1    4    4    0    0  0.11005541107E+02 -0.34744525201E+02  0.35097940454E+02  0.50598116473E+02  0.00000000000E+00 0.  1.
</event>
<event>
12    1  0.8219652E-002  0.1938007E+03  0.7818608E-02  0.1155195E+00
         21   -1    0    0  501  502  0.00000000000E+00  0.00000000000E+00  0.82327777424E+03  0.82327777424E+03  0.00000000000E+00 0. -1.
         21   -1    0    0  502  503 -0.00000000000E+00 -0.00000000000E+00 -0.56543588503E+02  0.56543588503E+02  0.00000000000E+00 0. -1.
         -6    2    1    2    0  503 -0.48303208724E+02 -0.74167418171E+02  0.57824828813E+03  0.60986046609E+03  0.17240852498E+03 0.  0.
        -24    2    3    3    0    0 -0.29287141082E+02  0.26292492362E+02  0.32455375559E+03  0.33629729186E+03  0.78814316339E+02 0.  0.
          6    2    1    2  501    0  0.48303208724E+02  0.74167418171E+02  0.18848589760E+03  0.26996089665E+03  0.17180787593E+03 0.  0.
         24    2    5    5    0    0  0.22816544690E+02 -0.42249751729E+01  0.24341649092E+02  0.86220967135E+02  0.79392028356E+02 0.  0.
          5    1    5    5  501    0  0.25486664035E+02  0.78392393343E+02  0.16414424851E+03  0.18373992951E+03  0.47000000000E+01 0. -1.
        -11    1    6    6    0    0  0.52657240788E+02 -0.30765273234E+01  0.13459343810E+02  0.54437156094E+02  0.00000000000E+00 0.  1.
         12    1    6    6    0    0 -0.29840696098E+02 -0.11484478495E+01  0.10882305281E+02  0.31783811042E+02  0.00000000000E+00 0. -1.
         -5    1    3    3    0  503 -0.19016067643E+02 -0.10045991053E+03  0.25369453254E+03  0.27356317423E+03  0.47000000000E+01 0.  1.
         11    1    4    4    0    0  0.82498318736E+01 -0.20697766649E+02  0.15061914531E+03  0.15225828123E+03  0.00000000000E+00 0. -1.
        -12    1    4    4    0    0 -0.37536972955E+02  0.46990259012E+02  0.17393461028E+03  0.18403901063E+03  0.00000000000E+00 0.  1.
</event>
<event>
12    1  0.8219652E-002  0.3556300E+03  0.7818608E-02  0.1060356E+00
         21   -1    0    0  503  502  0.00000000000E+00  0.00000000000E+00  0.37707537221E+03  0.37707537221E+03  0.00000000000E+00 0.  1.
         21   -1    0    0  501  503 -0.00000000000E+00 -0.00000000000E+00 -0.55529464312E+03  0.55529464312E+03  0.00000000000E+00 0. -1.
          6    2    1    2  501    0 -0.62107412333E+02 -0.30437958646E+03  0.20444872445E+03  0.40996455444E+03  0.17253229161E+03 0.  0.
         24    2    3    3    0    0 -0.62864063993E+02 -0.26692406843E+03  0.10384964035E+03  0.30251338379E+03  0.74358931684E+02 0.  0.
         -6    2    1    2    0  502  0.62107412333E+02  0.30437958646E+03 -0.38266799536E+03  0.52240546089E+03  0.17311385726E+03 0.  0.
        -24    2    5    5    0    0  0.93679256131E+02  0.20756756015E+03 -0.20059305402E+03  0.31373652687E+03  0.79579770788E+02 0.  0.
          5    1    3    3  501    0  0.75665166031E+00 -0.37455518028E+02  0.10059908410E+03  0.10745117065E+03  0.47000000000E+01 0. -1.
        -11    1    4    4    0    0 -0.26855244429E+02 -0.10593278984E+03  0.80868946823E+02  0.13595126582E+03  0.00000000000E+00 0.  1.
         12    1    4    4    0    0 -0.36008819563E+02 -0.16099127859E+03  0.22980693523E+02  0.16656211797E+03  0.00000000000E+00 0. -1.
         -5    1    5    5    0  502 -0.31571843798E+02  0.96812026309E+02 -0.18207494134E+03  0.20866893402E+03  0.47000000000E+01 0.  1.
         11    1    6    6    0    0  0.57711420049E+02  0.55099739503E+02 -0.98453838162E+02  0.12672705925E+03  0.00000000000E+00 0. -1.
        -12    1    6    6    0    0  0.35967836082E+02  0.15246782065E+03 -0.10213921586E+03  0.18700946762E+03  0.00000000000E+00 0.  1.
</event>
<event>
12    1  0.8219652E-002  0.2493491E+03  0.7818608E-02  0.1113808E+00
         21   -1    0    0  503  502  0.00000000000E+00  0.00000000000E+00  0.15772523955E+04  0.15772523955E+04  0.00000000000E+00 0.  1.
         21   -1    0    0  501  503 -0.00000000000E+00 -0.00000000000E+00 -0.42711455664E+02  0.42711455664E+02  0.00000000000E+00 0.  1.
          6    2    1    2  501    0  0.17125654499E+03  0.56623367775E+02  0.54014883628E+03  0.59492497787E+03  0.17216258010E+03 0.  0.
         24    2    3    3    0    0  0.16890259576E+03  0.95140945255E+02  0.43725638930E+03  0.48493365778E+03  0.79922563400E+02 0.  0.
         -6    2    1    2    0  502 -0.17125654499E+03 -0.56623367775E+02  0.99439210353E+03  0.10250388733E+04  0.17133016711E+03 0.  0.
        -24    2    5    5    0    0 -0.17377631854E+02 -0.12800004728E+02  0.48005820825E+03  0.48637325074E+03  0.75081512487E+02 0.  0.
          5    1    3    3  501    0  0.23539492256E+01 -0.38517577480E+02  0.10289244698E+03  0.10999132010E+03  0.47000000000E+01 0. -1.
        -13    1    4    4    0    0  0.16493964128E+03  0.65006103904E+02  0.34646920093E+03  0.38919376408E+03  0.00000000000E+00 0.  1.
         14    1    4    4    0    0  0.39629544821E+01  0.30134841351E+02  0.90787188374E+02  0.95739893693E+02  0.00000000000E+00 0. -1.
         -5    1    5    5    0  502 -0.15387891313E+03 -0.43823363047E+02  0.51433389529E+03  0.53866562253E+03  0.47000000000E+01 0.  1.
         13    1    6    6    0    0  0.54657672247E+01 -0.16440422673E+02  0.23328925843E+02  0.29058576875E+02  0.00000000000E+00 0. -1.
        -14    1    6    6    0    0 -0.22843399079E+02  0.36404179444E+01  0.45672928241E+03  0.45731467386E+03  0.00000000000E+00 0.  1.
</event>
<event>
12    1  0.8219652E-002  0.2052377E+03  0.7818608E-02  0.1145967E+00
         21   -1    0    0  503  502  0.00000000000E+00  0.00000000000E+00  0.70952979815E+03  0.70952979815E+03  0.00000000000E+00 0.  1.
         21   -1    0    0  501  503 -0.00000000000E+00 -0.00000000000E+00 -0.27721052826E+03  0.27721052826E+03  0.00000000000E+00 0.  1.
          6    2    1    2  501    0  0.10921652469E+03  0.16069301582E+02 -0.22231827122E+03  0.30068433889E+03  0.16970322985E+03 0.  0.
         24    2    3    3    0    0  0.64602148395E+02  0.32574851471E+02 -0.43003212728E+02  0.11510724993E+03  0.78522889370E+02 0.  0.
         -6    2    1    2    0  502 -0.10921652469E+03 -0.16069301582E+02  0.65463754110E+03  0.68605598752E+03  0.17302033428E+03 0.  0.
        -24    2    5    5    0    0  0.54217017595E+01  0.12713742173E+01  0.37099993375E+03  0.37960043723E+03  0.80153164991E+02 0.  0.
          5    1    3    3  501    0  0.44614376299E+02 -0.16505549888E+02 -0.17931505849E+03  0.18557708897E+03  0.47000000000E+01 0. -1.
        -13    1    4    4    0    0  0.24097003129E+02 -0.38874645545E+01 -0.54224391270E+02  0.59464800925E+02  0.00000000000E+00 0.  1.
         14    1    4    4    0    0  0.40505145265E+02  0.36462316025E+02  0.11221178542E+02  0.55642449000E+02  0.00000000000E+00 0. -1.
         -5    1    5    5    0  502 -0.11463822645E+03 -0.17340675800E+02  0.28363760735E+03  0.30645555029E+03  0.47000000000E+01 0.  1.
         11    1    6    6    0    0  0.57501215075E+01  0.11423873404E+02  0.54381648186E+01  0.13897568762E+02  0.00000000000E+00 0. -1.
        -12    1    6    6    0    0 -0.32841974805E+00 -0.10152499187E+02  0.36556176893E+03  0.36570286846E+03  0.00000000000E+00 0.  1.
</event>
<event>
12    1  0.8219652E-002  0.2212253E+03  0.7818608E-02  0.1133486E+00
         21   -1    0    0  501  502  0.00000000000E+00  0.00000000000E+00  0.36695672880E+04  0.36695672880E+04  0.00000000000E+00 0.  1.
         21   -1    0    0  502  503 -0.00000000000E+00 -0.00000000000E+00 -0.13239683677E+02  0.13239683677E+02  0.00000000000E+00 0.  1.
         -6    2    1    2    0  503  0.12986362740E+03  0.44712205637E+02  0.16845050024E+04  0.16986131838E+04  0.16989968225E+03 0.  0.
        -24    2    3    3    0    0  0.12694807888E+03  0.53840767950E+02  0.16790299203E+04  0.16866174514E+04  0.80760824954E+02 0.  0.
          6    2    1    2  501    0 -0.12986362740E+03 -0.44712205637E+02  0.19718226020E+04  0.19841937879E+04  0.17342684720E+03 0.  0.
         24    2    5    5    0    0 -0.15294328086E+03 -0.70209253088E+02  0.16529338227E+04  0.16634214179E+04  0.80371667144E+02 0.  0.
          5    1    5    5  501    0  0.23079653463E+02  0.25497047450E+02  0.31888877928E+03  0.32077237004E+03  0.47000000000E+01 0. -1.
        -11    1    6    6    0    0 -0.37671485793E+02  0.17602938317E+02  0.36329406467E+03  0.36566594277E+03  0.00000000000E+00 0.  1.
         12    1    6    6    0    0 -0.11527179507E+03 -0.87812191405E+02  0.12896397580E+04  0.12977554751E+04  0.00000000000E+00 0. -1.
         -5    1    3    3    0  503  0.29155485142E+01 -0.91285623122E+01  0.54750820587E+01  0.11995732432E+02  0.47000000000E+01 0.  1.
         11    1    4    4    0    0  0.38797791273E+02 -0.20608092713E+02  0.52427076890E+03  0.52610816494E+03  0.00000000000E+00 0. -1.
        -12    1    4    4    0    0  0.88150287611E+02  0.74448860663E+02  0.11547591514E+04  0.11605092864E+04  0.00000000000E+00 0.  1.
</event>
<event>
12    1  0.8219652E-002  0.2033372E+03  0.7818608E-02  0.1147209E+00
         21   -1    0    0  503  502  0.00000000000E+00  0.00000000000E+00  0.68603302160E+03  0.68603302160E+03  0.00000000000E+00 0.  1.
         21   -1    0    0  501  503 -0.00000000000E+00 -0.00000000000E+00 -0.12362913022E+03  0.12362913022E+03  0.00000000000E+00 0.  1.
          6    2    1    2  501    0 -0.86476165226E+02  0.64287842944E+02 -0.90336105472E+01  0.20353774812E+03  0.17243826399E+03 0.  0.
         24    2    3    3    0    0 -0.10992796914E+03  0.49299936315E+02 -0.50767488813E+02  0.15315490335E+03  0.79777467885E+02 0.  0.
         -6    2    1    2    0  502  0.86476165226E+02 -0.64287842944E+02  0.57143750192E+03  0.60612440369E+03  0.17098222203E+03 0.  0.
        -24    2    5    5    0    0  0.96089098437E+01 -0.56595950293E+02  0.16306377378E+03  0.19048160994E+03  0.79987603217E+02 0.  0.
          5    1    3    3  501    0  0.23451803909E+02  0.14987906628E+02  0.41733878266E+02  0.50382844767E+02  0.47000000000E+01 0. -1.
        -13    1    4    4    0    0 -0.67423972952E+02 -0.95871016865E+01 -0.41979006726E+02  0.80000885327E+02  0.00000000000E+00 0.  1.
         14    1    4    4    0    0 -0.42503996183E+02  0.58887038002E+02 -0.87884820870E+01  0.73154018027E+02  0.00000000000E+00 0. -1.
         -5    1    5    5    0  502  0.76867255382E+02 -0.76918926505E+01  0.40837372814E+03  0.41564279375E+03  0.47000000000E+01 0.  1.
         13    1    6    6    0    0  0.37032770965E+02 -0.14580480293E+02  0.35223325373E+02  0.53147899123E+02  0.00000000000E+00 0. -1.
        -14    1    6    6    0    0 -0.27423861121E+02 -0.42015470000E+02  0.12784044841E+03  0.13733371082E+03  0.00000000000E+00 0.  1.
</event>
<event>
12    1  0.8219652E-002  0.1749624E+03  0.7818608E-02  0.1172988E+00
         21   -1    0    0  501  502  0.00000000000E+00  0.00000000000E+00  0.61185796396E+02  0.61185796396E+02  0.00000000000E+00 0.  1.
         21   -1    0    0  502  503 -0.00000000000E+00 -0.00000000000E+00 -0.59824526142E+03  0.59824526142E+03  0.00000000000E+00 0.  1.
         -6    2    1    2    0  503  0.14028691990E+02 -0.23888499225E+02 -0.40416777248E+03  0.44041279915E+03  0.17275526258E+03 0.  0.
        -24    2    3    3    0    0 -0.20769863089E+02  0.47509118137E+02 -0.24311662022E+03  0.26077949810E+03  0.78814669222E+02 0.  0.
          6    2    1    2  501    0 -0.14028691990E+02  0.23888499225E+02 -0.13289169255E+03  0.21901825867E+03  0.17187591771E+03 0.  0.
         24    2    5    5    0    0 -0.74521518260E+02  0.60731640212E+01 -0.88357047886E+02  0.14167362231E+03  0.81695210031E+02 0.  0.
          5    1    5    5  501    0  0.60492826270E+02  0.17815335203E+02 -0.44534644660E+02  0.77344636359E+02  0.47000000000E+01 0. -1.
        -11    1    6    6    0    0 -0.13007376878E+02  0.17852378575E+02 -0.74259344628E+02  0.77474831646E+02  0.00000000000E+00 0.  1.
         12    1    6    6    0    0 -0.61514141382E+02 -0.11779214554E+02 -0.14097703258E+02  0.64198790663E+02  0.00000000000E+00 0. -1.
         -5    1    3    3    0  503  0.34798555078E+02 -0.71397617361E+02 -0.16105115226E+03  0.17963330104E+03  0.47000000000E+01 0.  1.
         13    1    4    4    0    0 -0.41730694905E+02 -0.30265196016E+00 -0.12011277155E+03  0.12715589009E+03  0.00000000000E+00 0. -1.
        -14    1    4    4    0    0  0.20960831817E+02  0.47811770097E+02 -0.12300384867E+03  0.13362360801E+03  0.00000000000E+00 0.  1.
</event>
<event>
12    1  0.8219652E-002  0.2892267E+03  0.7818608E-02  0.1091203E+00
         21   -1    0    0  503  502  0.00000000000E+00  0.00000000000E+00  0.34858796228E+03  0.34858796228E+03  0.00000000000E+00 0. -1.
         21   -1    0    0  501  503 -0.00000000000E+00 -0.00000000000E+00 -0.41716836576E+03  0.41716836576E+03  0.00000000000E+00 0. -1.
          6    2    1    2  501    0 -0.19689876992E+03  0.12081732246E+03 -0.28568445353E+03  0.40411250885E+03  0.16830140171E+03 0.  0.
         24    2    3    3    0    0 -0.21318887095E+03  0.10280166531E+03 -0.21665173337E+03  0.33078081211E+03  0.80375960322E+02 0.  0.
         -6    2    1    2    0  502  0.19689876992E+03 -0.12081732246E+03  0.21710405006E+03  0.36164381918E+03  0.17402911365E+03 0.  0.
        -24    2    5    5    0    0  0.20412247106E+03 -0.13046054530E+03  0.22994684755E+03  0.34341743577E+03  0.79837619092E+02 0.  0.
          5    1    3    3  501    0  0.16290101033E+02  0.18015657148E+02 -0.69032720164E+02  0.73331696744E+02  0.47000000000E+01 0. -1.
        -13    1    4    4    0    0 -0.50318814144E+01  0.20121522904E+02 -0.24852696611E+01  0.20889520814E+02  0.00000000000E+00 0.  1.
         14    1    4    4    0    0 -0.20815698954E+03  0.82680142406E+02 -0.21416646371E+03  0.30989129129E+03  0.00000000000E+00 0. -1.
         -5    1    5    5    0  502 -0.72237011351E+01  0.96432228369E+01 -0.12842797496E+02  0.18226383413E+02  0.47000000000E+01 0.  1.
         13    1    6    6    0    0  0.16022220236E+03 -0.60597729674E+02  0.17077127794E+03  0.24188027687E+03  0.00000000000E+00 0. -1.
        -14    1    6    6    0    0  0.43900268701E+02 -0.69862815622E+02  0.59175569616E+02  0.10153715890E+03  0.00000000000E+00 0.  1.
</event>
<event>
12    1  0.8219652E-002  0.3198474E+03  0.7818608E-02  0.1075825E+00
         21   -1    0    0  501  502  0.00000000000E+00  0.00000000000E+00  0.99997769412E+03  0.99997769412E+03  0.00000000000E+00 0. -1.
         21   -1    0    0  502  503 -0.00000000000E+00 -0.00000000000E+00 -0.11123589056E+03  0.11123589056E+03  0.00000000000E+00 0. -1.
         -6    2    1    2    0  503  0.66752443117E+02  0.26025373866E+03  0.28495736757E+03  0.42837253806E+03  0.17353510563E+03 0.  0.
        -24    2    3    3    0    0  0.33791749291E+02  0.21075139664E+03  0.28978958398E+03  0.36851997322E+03  0.79189230127E+02 0.  0.
          6    2    1    2  501    0 -0.66752443117E+02 -0.26025373866E+03  0.60378443600E+03  0.68284104662E+03  0.17183815832E+03 0.  0.
         24    2    5    5    0    0 -0.78110311529E+02 -0.22227743797E+03  0.37311154018E+03  0.44874005249E+03  0.81528725611E+02 0.  0.
          5    1    5    5  501    0  0.11357868413E+02 -0.37976300693E+02  0.23067289582E+03  0.23410099413E+03  0.47000000000E+01 0. -1.
        -11    1    6    6    0    0 -0.33066912148E+02 -0.16502795034E+02  0.38673024903E+02  0.53491735605E+02  0.00000000000E+00 0.  1.
         12    1    6    6    0    0 -0.45043399381E+02 -0.20577464293E+03  0.33443851528E+03  0.39524831689E+03  0.00000000000E+00 0. -1.
         -5    1    3    3    0  503  0.32960693826E+02  0.49502342018E+02 -0.48322164176E+01  0.59852564843E+02  0.47000000000E+01 0.  1.
         11    1    4    4    0    0  0.11350218156E+02  0.84766084286E+02  0.56694576077E+02  0.10260795025E+03  0.00000000000E+00 0. -1.
        -12    1    4    4    0    0  0.22441531135E+02  0.12598531236E+03  0.23309500791E+03  0.26591202297E+03  0.00000000000E+00 0.  1.
</event>
<event>
12    1  0.8219652E-002  0.2090033E+03  0.7818608E-02  0.1143410E+00
         21   -1    0    0  503  502  0.00000000000E+00  0.00000000000E+00  0.13162557394E+03  0.13162557394E+03  0.00000000000E+00 0. -1.
         21   -1    0    0  501  503 -0.00000000000E+00 -0.00000000000E+00 -0.46817982070E+03  0.46817982070E+03  0.00000000000E+00 0. -1.
          6    2    1    2  501    0  0.95438061717E+02  0.54586390411E+02 -0.31214856073E+01  0.20902655917E+03  0.17774774577E+03 0.  0.
         24    2    3    3    0    0  0.32324962776E+02  0.20725426656E+02 -0.68703285585E+02  0.11180058213E+03  0.79402658551E+02 0.  0.
         -6    2    1    2    0  502 -0.95438061717E+02 -0.54586390411E+02 -0.33343276115E+03  0.39077883546E+03  0.17158844482E+03 0.  0.
        -24    2    5    5    0    0 -0.13258336859E+03 -0.44186122538E+02 -0.29688497317E+03  0.33743307461E+03  0.78674198391E+02 0.  0.
          5    1    3    3  501    0  0.63113098942E+02  0.33860963756E+02  0.65581799978E+02  0.97225977047E+02  0.47000000000E+01 0. -1.
        -13    1    4    4    0    0 -0.16235705291E+02  0.10526011038E+02 -0.57859700986E+02  0.61009343816E+02  0.00000000000E+00 0.  1.
         14    1    4    4    0    0  0.48560668067E+02  0.10199415618E+02 -0.10843584599E+02  0.50791238309E+02  0.00000000000E+00 0. -1.
         -5    1    5    5    0  502  0.37145306876E+02 -0.10400267873E+02 -0.36547787975E+02  0.53345760849E+02  0.47000000000E+01 0.  1.
         11    1    6    6    0    0  0.33222090711E+01  0.48490126694E+01 -0.57692168933E+02  0.57990829906E+02  0.00000000000E+00 0. -1.
        -12    1    6    6    0    0 -0.13590557766E+03 -0.49035135208E+02 -0.23919280424E+03  0.27944224471E+03  0.00000000000E+00 0.  1.
</event>
<event>
12    1  0.8219652E-002  0.1768618E+03  0.7818608E-02  0.1170935E+00
         21   -1    0    0  503  502  0.00000000000E+00  0.00000000000E+00  0.22916917122E+03  0.22916917122E+03  0.00000000000E+00 0.  1.
         21   -1    0    0  501  503 -0.00000000000E+00 -0.00000000000E+00 -0.34197762897E+03  0.34197762897E+03  0.00000000000E+00 0.  1.
          6    2    1    2  501    0 -0.26376618281E+02 -0.27520482571E+02 -0.27785403005E+03  0.32923743021E+03  0.17245672061E+03 0.  0.
         24    2    3    3    0    0 -0.42072008547E+02  0.33131254467E+02 -0.23583677900E+03  0.25365622972E+03  0.76516420604E+02 0.  0.
         -6    2    1    2    0  502  0.26376618281E+02  0.27520482571E+02  0.16504557229E+03  0.24190936998E+03  0.17270494897E+03 0.  0.
        -24    2    5    5    0    0  0.73657441105E+02  0.41893150242E+02  0.71241222115E+02  0.13578022273E+03  0.78616171934E+02 0.  0.
          5    1    3    3  501    0  0.15695390266E+02 -0.60651737039E+02 -0.42017251053E+02  0.75581200490E+02  0.47000000000E+01 0. -1.
        -11    1    4    4    0    0 -0.74689310921E+01 -0.23578500598E+02 -0.91164131670E+02  0.94459671423E+02  0.00000000000E+00 0.  1.
         12    1    4    4    0    0 -0.34603077455E+02  0.56709755066E+02 -0.14467264733E+03  0.15919655830E+03  0.00000000000E+00 0. -1.
         -5    1    5    5    0  502 -0.47280822824E+02 -0.14372667671E+02  0.93804350179E+02  0.10612914725E+03  0.47000000000E+01 0.  1.
         13    1    6    6    0    0  0.49963371093E+02  0.33638795866E+02 -0.18679835897E-01  0.60232112591E+02  0.00000000000E+00 0. -1.
        -14    1    6    6    0    0  0.23694070012E+02  0.82543543755E+01  0.71259901951E+02  0.75548110141E+02  0.00000000000E+00 0.  1.
</event>
<event>
12    1  0.8219652E-002  0.2556387E+03  0.7818608E-02  0.1109960E+00
         21   -1    0    0  503  502  0.00000000000E+00  0.00000000000E+00  0.23217758935E+03  0.23217758935E+03  0.00000000000E+00 0. -1.
         21   -1    0    0  501  503 -0.00000000000E+00 -0.00000000000E+00 -0.79415715544E+03  0.79415715544E+03  0.00000000000E+00 0. -1.
          6    2    1    2  501    0 -0.86732520319E+02 -0.16664979863E+03 -0.69400142243E+03  0.73958712646E+03  0.17336798386E+03 0.  0.
         24    2    3    3    0    0  0.22547997084E+02 -0.81102142630E+02 -0.31291991712E+03  0.33399393542E+03  0.80914180792E+02 0.  0.
         -6    2    1    2    0  502  0.86732520319E+02  0.16664979863E+03  0.13202185634E+03  0.28674761833E+03  0.17175488524E+03 0.  0.
        -24    2    5    5    0    0  0.82095234489E+02  0.15415243096E+03  0.16295700446E+03  0.25273641418E+03  0.82571849039E+02 0.  0.
          5    1    3    3  501    0 -0.10928051740E+03 -0.85547655996E+02 -0.38108150531E+03  0.40559319105E+03  0.47000000000E+01 0. -1.
        -13    1    4    4    0    0 -0.35326725018E+00  0.10068254589E+02 -0.10883690792E+03  0.10930218238E+03  0.00000000000E+00 0.  1.
         14    1    4    4    0    0  0.22901264334E+02 -0.91170397219E+02 -0.20408300920E+03  0.22469175303E+03  0.00000000000E+00 0. -1.
         -5    1    5    5    0  502  0.46372858293E+01  0.12497367663E+02 -0.30935148119E+02  0.34011204147E+02  0.47000000000E+01 0.  1.
         11    1    6    6    0    0  0.95511065439E+02  0.12401334980E+03  0.11375911395E+03  0.19350144846E+03  0.00000000000E+00 0. -1.
        -12    1    6    6    0    0 -0.13415830949E+02  0.30139081165E+02  0.49197890510E+02  0.59234965723E+02  0.00000000000E+00 0.  1.
</event>
<event>
12    1  0.8219652E-002  0.2851552E+03  0.7818608E-02  0.1093037E+00
         21   -1    0    0  503  502  0.00000000000E+00  0.00000000000E+00  0.91448432521E+02  0.91448432521E+02  0.00000000000E+00 0.  1.
         21   -1    0    0  501  503 -0.00000000000E+00 -0.00000000000E+00 -0.11221777700E+04  0.11221777700E+04  0.00000000000E+00 0. -1.
          6    2    1    2  501    0 -0.28185516637E+02  0.22429076183E+03 -0.79436777427E+03  0.84399861202E+03  0.17381808626E+03 0.  0.
         24    2    3    3    0    0 -0.25024679305E+02  0.28384814036E+02 -0.24821875486E+03  0.26374868943E+03  0.80739635051E+02 0.  0.
         -6    2    1    2    0  502  0.28185516637E+02 -0.22429076183E+03 -0.23636156318E+03  0.36962759047E+03  0.17221207245E+03 0.  0.
        -24    2    5    5    0    0 -0.48955203453E+02 -0.93150464918E+02 -0.11940168417E+03  0.17766360565E+03  0.78955516148E+02 0.  0.
          5    1    3    3  501    0 -0.31608373319E+01  0.19590594779E+03 -0.54614901941E+03  0.58024992259E+03  0.47000000000E+01 0. -1.
        -13    1    4    4    0    0 -0.17412106746E+02  0.55734980700E+02 -0.19328653414E+03  0.20191397628E+03  0.00000000000E+00 0.  1.
         14    1    4    4    0    0 -0.76125725595E+01 -0.27350166663E+02 -0.54932220717E+02  0.61834713150E+02  0.00000000000E+00 0. -1.
         -5    1    5    5    0  502  0.77140720090E+02 -0.13114029691E+03 -0.11695987901E+03  0.19196398482E+03  0.47000000000E+01 0.  1.
         11    1    6    6    0    0 -0.14123991552E+02 -0.67416985074E+02 -0.11511053749E+03  0.13414534228E+03  0.00000000000E+00 0. -1.
        -12    1    6    6    0    0 -0.34831211900E+02 -0.25733479844E+02 -0.42911466862E+01  0.43518263375E+02  0.00000000000E+00 0.  1.
</event>
<event>
12    1  0.8219652E-002  0.1931430E+03  0.7818608E-02  0.1155680E+00
         21   -1    0    0  503  502  0.00000000000E+00  0.00000000000E+00  0.34783437551E+03  0.34783437551E+03  0.00000000000E+00 0.  1.
         21   -1    0    0  501  503 -0.00000000000E+00 -0.00000000000E+00 -0.52739453174E+03  0.52739453174E+03  0.00000000000E+00 0.  1.
          6    2    1    2  501    0  0.73385936325E+02 -0.48861049401E+02 -0.48039582499E+03  0.51772882658E+03  0.17172679292E+03 0.  0.
         24    2    3    3    0    0  0.85267284693E+02 -0.73215622114E+02 -0.46744566913E+03  0.48732967877E+03  0.79710256923E+02 0.  0.
         -6    2    1    2    0  502 -0.73385936325E+02  0.48861049401E+02  0.30083566876E+03  0.35750008066E+03  0.17184676394E+03 0.  0.
        -24    2    5    5    0    0 -0.85082743631E+02  0.95996225993E+01  0.29307005344E+03  0.31553974562E+03  0.79649537514E+02 0.  0.
          5    1    3    3  501    0 -0.11881348367E+02  0.24354572713E+02 -0.12950155864E+02  0.30399147816E+02  0.47000000000E+01 0. -1.
        -11    1    4    4    0    0  0.51353031623E+02 -0.41033158831E+02 -0.39938128928E+03  0.40475457774E+03  0.00000000000E+00 0.  1.
         12    1    4    4    0    0  0.33914253069E+02 -0.32182463282E+02 -0.68064379854E+02  0.82575101024E+02  0.00000000000E+00 0. -1.
         -5    1    5    5    0  502  0.11696807306E+02  0.39261426801E+02  0.77656153212E+01  0.41960335043E+02  0.47000000000E+01 0.  1.
         13    1    6    6    0    0  0.69150562395E+01 -0.13019824176E+02  0.93139752567E+02  0.94299243542E+02  0.00000000000E+00 0. -1.
        -14    1    6    6    0    0 -0.91997799870E+02  0.22619446776E+02  0.19993030087E+03  0.22124050208E+03  0.00000000000E+00 0.  1.
</event>
<event>
12    1  0.8219652E-002  0.2138939E+03  0.7818608E-02  0.1139140E+00
         21   -1    0    0  501  502  0.00000000000E+00  0.00000000000E+00  0.80210799031E+03  0.80210799031E+03  0.00000000000E+00 0. -1.
         21   -1    0    0  502  503 -0.00000000000E+00 -0.00000000000E+00 -0.71177183271E+02  0.71177183271E+02  0.00000000000E+00 0. -1.
         -6    2    1    2    0  503  0.57763887751E+02  0.10690060415E+03  0.16728198609E+03  0.27153981489E+03  0.17602898143E+03 0.  0.
        -24    2    3    3    0    0 -0.16612201540E+02  0.46779363541E+02  0.20302563928E+02  0.96122008577E+02  0.79768241409E+02 0.  0.
          6    2    1    2  501    0 -0.57763887751E+02 -0.10690060415E+03  0.56364882095E+03  0.60174535870E+03  0.17214260791E+03 0.  0.
         24    2    5    5    0    0 -0.88574095978E+01 -0.10806165363E+03  0.51631129996E+03  0.53350957238E+03  0.79368322787E+02 0.  0.
          5    1    5    5  501    0 -0.48906478153E+02  0.11610494790E+01  0.47337520991E+02  0.68235786320E+02  0.47000000000E+01 0. -1.
        -11    1    6    6    0    0 -0.29954199583E+02 -0.11377678077E+02  0.18428348429E+03  0.18704841141E+03  0.00000000000E+00 0.  1.
         12    1    6    6    0    0  0.21096789985E+02 -0.96683975555E+02  0.33202781568E+03  0.34646116097E+03  0.00000000000E+00 0. -1.
         -5    1    3    3    0  503  0.74376089291E+02  0.60121240612E+02  0.14697942216E+03  0.17541780631E+03  0.47000000000E+01 0.  1.
         13    1    4    4    0    0 -0.25441543292E+02  0.26267834652E+02  0.48127352368E+02  0.60444299221E+02  0.00000000000E+00 0. -1.
        -14    1    4    4    0    0  0.88293417527E+01  0.20511528889E+02 -0.27824788440E+02  0.35677709356E+02  0.00000000000E+00 0.  1.
</event>
<event>
12    1  0.8219652E-002  0.2384581E+03  0.7818608E-02  0.1123615E+00
         21   -1    0    0  503  502  0.00000000000E+00  0.00000000000E+00  0.34019238482E+03  0.34019238482E+03  0.00000000000E+00 0. -1.
         21   -1    0    0  501  503 -0.00000000000E+00 -0.00000000000E+00 -0.33565642745E+03  0.33565642745E+03  0.00000000000E+00 0.  1.
          6    2    1    2  501    0  0.15581099601E+03  0.21488483289E+02 -0.24477527959E+03  0.34172682885E+03  0.17923020578E+03 0.  0.
         24    2    3    3    0    0  0.14279681563E+03  0.48128214937E+02 -0.10939250763E+03  0.20305589051E+03  0.80979740183E+02 0.  0.
         -6    2    1    2    0  502 -0.15581099601E+03 -0.21488483289E+02  0.24931123697E+03  0.33412198342E+03  0.15729776074E+03 0.  0.
        -24    2    5    5    0    0 -0.58473199753E+02 -0.10109736074E+00  0.19743266586E+03  0.22166958017E+03  0.82089097410E+02 0.  0.
          5    1    3    3  501    0  0.13014180379E+02 -0.26639731648E+02 -0.13538277197E+03  0.13867093834E+03  0.47000000000E+01 0. -1.
        -11    1    4    4    0    0  0.12161472177E+03  0.68578866870E+02 -0.77641511694E+02  0.15975420454E+03  0.00000000000E+00 0.  1.
         12    1    4    4    0    0  0.21182093860E+02 -0.20450651933E+02 -0.31750995932E+02  0.43301685966E+02  0.00000000000E+00 0. -1.
         -5    1    5    5    0  502 -0.97337796253E+02 -0.21387385929E+02  0.51878571109E+02  0.11245240325E+03  0.47000000000E+01 0.  1.
         13    1    6    6    0    0 -0.67073737641E+02  0.15118088017E+02  0.92305399222E+02  0.11509878189E+03  0.00000000000E+00 0. -1.
        -14    1    6    6    0    0  0.86005378884E+01 -0.15219185378E+02  0.10512726664E+03  0.10657079828E+03  0.00000000000E+00 0.  1.
</event>
<event>
12    1  0.8219652E-002  0.2055483E+03  0.7818608E-02  0.1145344E+00
         21   -1    0    0  501  502  0.00000000000E+00  0.00000000000E+00  0.14131957914E+03  0.14131957914E+03  0.00000000000E+00 0. -1.
         21   -1    0    0  502  503 -0.00000000000E+00 -0.00000000000E+00 -0.45861380427E+03  0.45861380427E+03  0.00000000000E+00 0.  1.
         -6    2    1    2    0  503  0.78053081462E+02  0.81135413168E+02 -0.33617841445E+03  0.39351943975E+03  0.17078168615E+03 0.  0.
        -24    2    3    3    0    0  0.10194045166E+03  0.83102589798E+02 -0.18014644936E+03  0.23558736458E+03  0.75833811825E+02 0.  0.
          6    2    1    2  501    0 -0.78053081462E+02 -0.81135413168E+02  0.18884189311E+02  0.20641394367E+03  0.17197344196E+03 0.  0.
         24    2    5    5    0    0 -0.57689663263E+02 -0.97779367399E+02  0.64860381583E+02  0.15323885298E+03  0.79914798558E+02 0.  0.
          5    1    5    5  501    0 -0.20363418199E+02  0.16643954231E+02 -0.45976192272E+02  0.53175090682E+02  0.47000000000E+01 0. -1.
        -11    1    6    6    0    0  0.15140055992E+02 -0.71261582309E+01 -0.51466824845E+01  0.17506906271E+02  0.00000000000E+00 0.  1.
         12    1    6    6    0    0 -0.72829719255E+02 -0.90653209169E+02  0.70007064067E+02  0.13573194671E+03  0.00000000000E+00 0. -1.
         -5    1    3    3    0  503 -0.23887370197E+02 -0.19671766298E+01 -0.15603196508E+03  0.15793207517E+03  0.47000000000E+01 0.  1.
         13    1    4    4    0    0  0.34108231162E+02  0.73742859361E+02 -0.11697529699E+03  0.14242401780E+03  0.00000000000E+00 0. -1.
        -14    1    4    4    0    0  0.67832220497E+02  0.93597304369E+01 -0.63171152370E+02  0.93163346780E+02  0.00000000000E+00 0.  1.
</event>
<event>
12    1  0.8219652E-002  0.1929954E+03  0.7818608E-02  0.1156882E+00
         21   -1    0    0  501  502  0.00000000000E+00  0.00000000000E+00  0.58550724636E+03  0.58550724636E+03  0.00000000000E+00 0. -1.
         21   -1    0    0  502  503 -0.00000000000E+00 -0.00000000000E+00 -0.70096997929E+02  0.70096997929E+02  0.00000000000E+00 0. -1.
         -6    2    1    2    0  503  0.78254034722E+02 -0.43748927250E+02  0.36608654537E+03  0.41158619484E+03  0.16536678776E+03 0.  0.
        -24    2    3    3    0    0  0.43846416797E+02 -0.77827323635E+02  0.16198343597E+03  0.20176391161E+03  0.80563279045E+02 0.  0.
          6    2    1    2  501    0 -0.78254034722E+02  0.43748927250E+02  0.14932370306E+03  0.24401804945E+03  0.17090809687E+03 0.  0.
         24    2    5    5    0    0 -0.66084589535E+02 -0.37995385343E+02  0.92663103729E+02  0.14370483221E+03  0.79081007364E+02 0.  0.
          5    1    5    5  501    0 -0.12169445187E+02  0.81744312592E+02  0.56660599336E+02  0.10031321725E+03  0.47000000000E+01 0. -1.
        -11    1    6    6    0    0 -0.20553146594E+02 -0.55721778330E+02  0.62824359213E+02  0.86453736332E+02  0.00000000000E+00 0.  1.
         12    1    6    6    0    0 -0.45531442941E+02  0.17726392988E+02  0.29838744516E+02  0.57251095875E+02  0.00000000000E+00 0. -1.
         -5    1    3    3    0  503  0.34407617924E+02  0.34078396386E+02  0.20410310940E+03  0.20982228323E+03  0.47000000000E+01 0.  1.
         13    1    4    4    0    0  0.59765604110E+02 -0.53582587600E+02  0.15050371546E+03  0.17057077562E+03  0.00000000000E+00 0. -1.
        -14    1    4    4    0    0 -0.15919187313E+02 -0.24244736035E+02  0.11479720511E+02  0.31193135994E+02  0.00000000000E+00 0.  1.
</event>
<event>
12    1  0.8219652E-002  0.3012507E+03  0.7818608E-02  0.1084623E+00
         21   -1    0    0  501  502  0.00000000000E+00  0.00000000000E+00  0.80181262930E+03  0.80181262930E+03  0.00000000000E+00 0. -1.
         21   -1    0    0  502  503 -0.00000000000E+00 -0.00000000000E+00 -0.24100468396E+03  0.24100468396E+03  0.00000000000E+00 0.  1.
         -6    2    1    2    0  503 -0.22333372075E+03 -0.10680354721E+03 -0.99357297334E+02  0.31716579270E+03  0.17157307190E+03 0.  0.
        -24    2    3    3    0    0 -0.72347472707E+02 -0.10157624423E+03 -0.65347181602E+02  0.16223693881E+03  0.80614390600E+02 0.  0.
          6    2    1    2  501    0  0.22333372075E+03  0.10680354721E+03  0.66016524268E+03  0.72565152056E+03  0.17165964329E+03 0.  0.
         24    2    5    5    0    0  0.74368200119E+02  0.27895678443E+02  0.11318985809E+03  0.15326935851E+03  0.66111679900E+02 0.  0.
          5    1    5    5  501    0  0.14896552063E+03  0.78907868765E+02  0.54697538458E+03  0.57238216205E+03  0.47000000000E+01 0. -1.
        -13    1    6    6    0    0 -0.10576904544E+02  0.13451333227E+02  0.20836928091E+02  0.26962693626E+02  0.00000000000E+00 0.  1.
         14    1    6    6    0    0  0.84945104663E+02  0.14444345217E+02  0.92352930004E+02  0.12630666489E+03  0.00000000000E+00 0. -1.
         -5    1    3    3    0  503 -0.15098624804E+03 -0.52273029805E+01 -0.34010115732E+02  0.15492885389E+03  0.47000000000E+01 0.  1.
         11    1    4    4    0    0 -0.26839042532E+02 -0.54418587369E+02 -0.74480900233E+02  0.96068316082E+02  0.00000000000E+00 0. -1.
        -12    1    4    4    0    0 -0.45508430175E+02 -0.47157656859E+02  0.91337186308E+01  0.66168622726E+02  0.00000000000E+00 0.  1.
</event>
<event>
12    1  0.8219652E-002  0.1823594E+03  0.7818608E-02  0.1165722E+00
         21   -1    0    0  501  502  0.00000000000E+00  0.00000000000E+00  0.24827464668E+04  0.24827464668E+04  0.00000000000E+00 0. -1.
         21   -1    0    0  502  503 -0.00000000000E+00 -0.00000000000E+00 -0.13414793934E+02  0.13414793934E+02  0.00000000000E+00 0. -1.
         -6    2    1    2    0  503  0.14675409192E+02 -0.56609782036E+02  0.11377599676E+04  0.11521604643E+04  0.17191845883E+03 0.  0.
        -24    2    3    3    0    0  0.27256785693E+02  0.15542673574E+02  0.88031105593E+03  0.88445484235E+03  0.79550649872E+02 0.  0.
          6    2    1    2  501    0 -0.14675409192E+02  0.56609782036E+02  0.13315717053E+04  0.13440007965E+04  0.17272781938E+03 0.  0.
         24    2    5    5    0    0  0.97774155044E+01  0.80425006645E+02  0.54050639439E+03  0.55218546344E+03  0.78726387586E+02 0.  0.
          5    1    5    5  501    0 -0.24452824696E+02 -0.23815224610E+02  0.79106531090E+03  0.79181533306E+03  0.47000000000E+01 0. -1.
        -11    1    6    6    0    0  0.10686126200E+02 -0.14503825933E+02  0.89959865615E+02  0.91746017250E+02  0.00000000000E+00 0.  1.
         12    1    6    6    0    0 -0.90871069571E+00  0.94928832578E+02  0.45054652878E+03  0.46043944619E+03  0.00000000000E+00 0. -1.
         -5    1    3    3    0  503 -0.12581376501E+02 -0.72152455609E+02  0.25744891167E+03  0.26770562192E+03  0.47000000000E+01 0.  1.
         11    1    4    4    0    0 -0.13182038508E+02 -0.16194142663E+02  0.86638338795E+02  0.89119123340E+02  0.00000000000E+00 0. -1.
        -12    1    4    4    0    0  0.40438824200E+02  0.31736816236E+02  0.79367271714E+03  0.79533571901E+03  0.00000000000E+00 0.  1.
</event>
<event>
12    1  0.8219652E-002  0.2097519E+03  0.7818608E-02  0.1141821E+00
         21   -1    0    0  503  502  0.00000000000E+00  0.00000000000E+00  0.10557201463E+03  0.10557201463E+03  0.00000000000E+00 0.  1.
         21   -1    0    0  501  503 -0.00000000000E+00 -0.00000000000E+00 -0.65960092322E+03  0.65960092322E+03  0.00000000000E+00 0.  1.
          6    2    1    2  501    0 -0.88484243929E+02  0.82151126585E+02 -0.50932249796E+03  0.55070959737E+03  0.17115310305E+03 0.  0.
         24    2    3    3    0    0 -0.58657584672E+02 -0.89042699017E+01 -0.16148436484E+03  0.18988530262E+03  0.80369333706E+02 0.  0.
         -6    2    1    2    0  502  0.88484243929E+02 -0.82151126585E+02 -0.44706410625E+02  0.21446334047E+03  0.17151557431E+03 0.  0.
        -24    2    5    5    0    0 -0.21223600477E+02 -0.26897216961E+02 -0.29390670652E+02  0.90586516389E+02  0.78537913982E+02 0.  0.
          5    1    3    3  501    0 -0.29826659258E+02  0.91055396487E+02 -0.34783813312E+03  0.36082429475E+03  0.47000000000E+01 0. -1.
        -11    1    4    4    0    0 -0.23920314765E+02 -0.21328632191E+02 -0.14666859623E+03  0.15012917481E+03  0.00000000000E+00 0.  1.
         12    1    4    4    0    0 -0.34737269906E+02  0.12424362289E+02 -0.14815768616E+02  0.39756127811E+02  0.00000000000E+00 0. -1.
         -5    1    5    5    0  502  0.10970784441E+03 -0.55253909624E+02 -0.15315739973E+02  0.12387682408E+03  0.47000000000E+01 0.  1.
         11    1    6    6    0    0  0.20257918124E+02  0.48612143553E+01 -0.32106363920E+02  0.38273140136E+02  0.00000000000E+00 0. -1.
        -12    1    6    6    0    0 -0.41481518601E+02 -0.31758431316E+02  0.27156932673E+01  0.52313376253E+02  0.00000000000E+00 0.  1.
</event>
<event>
12    1  0.8219652E-002  0.2609129E+03  0.7818608E-02  0.1106824E+00
         21   -1    0    0  501  502  0.00000000000E+00  0.00000000000E+00  0.75899480850E+03  0.75899480850E+03  0.00000000000E+00 0.  1.
         21   -1    0    0  502  503 -0.00000000000E+00 -0.00000000000E+00 -0.10269602561E+03  0.10269602561E+03  0.00000000000E+00 0. -1.
         -6    2    1    2    0  503 -0.10845877104E+03  0.16240552032E+03  0.17262295316E+03  0.31284857701E+03  0.17302222439E+03 0.  0.
        -24    2    3    3    0    0 -0.68266593961E+02  0.20803770327E+02  0.37939479344E+02  0.11327855216E+03  0.79369399494E+02 0.  0.
          6    2    1    2  501    0  0.10845877104E+03 -0.16240552032E+03  0.48367582973E+03  0.54884225710E+03  0.17072392002E+03 0.  0.
         24    2    5    5    0    0  0.10666638394E+03 -0.97094572586E+02  0.20616066388E+03  0.26370108185E+03  0.78936479209E+02 0.  0.
          5    1    5    5  501    0  0.17923871064E+01 -0.65310947733E+02  0.27751516585E+03  0.28514117525E+03  0.47000000000E+01 0. -1.
        -11    1    6    6    0    0 -0.42626362062E+01 -0.27667933573E+02  0.14232896009E+02  0.31404775822E+02  0.00000000000E+00 0.  1.
         12    1    6    6    0    0  0.11092902014E+03 -0.69426639012E+02  0.19192776787E+03  0.23229630602E+03  0.00000000000E+00 0. -1.
         -5    1    3    3    0  503 -0.40192177081E+02  0.14160174999E+03  0.13468347381E+03  0.19957002485E+03  0.47000000000E+01 0.  1.
         11    1    4    4    0    0 -0.10243588306E+02 -0.20724934750E+02  0.34897520914E+02  0.41860374912E+02  0.00000000000E+00 0. -1.
        -12    1    4    4    0    0 -0.58023005655E+02  0.41528705077E+02  0.30419584300E+01  0.71418177250E+02  0.00000000000E+00 0.  1.
</event>
<event>
12    1  0.8219652E-002  0.2830340E+03  0.7818608E-02  0.1094153E+00
         21   -1    0    0  501  502  0.00000000000E+00  0.00000000000E+00  0.20642663666E+03  0.20642663666E+03  0.00000000000E+00 0.  1.
         21   -1    0    0  502  503 -0.00000000000E+00 -0.00000000000E+00 -0.40193378076E+03  0.40193378076E+03  0.00000000000E+00 0.  1.
         -6    2    1    2    0  503 -0.71857638613E+02  0.21206494072E+03 -0.15633345463E+03  0.32262830545E+03  0.17179585306E+03 0.  0.
        -24    2    3    3    0    0 -0.41278610238E+02  0.77218051976E+02 -0.14061274703E+03  0.18338753905E+03  0.78692398840E+02 0.  0.
          6    2    1    2  501    0  0.71857638613E+02 -0.21206494072E+03 -0.39173689471E+02  0.28573211198E+03  0.17312770593E+03 0.  0.
         24    2    5    5    0    0  0.53375116479E+02 -0.15968577242E+03 -0.90774320486E+02  0.20977228038E+03  0.86116104086E+02 0.  0.
          5    1    5    5  501    0  0.18482522134E+02 -0.52379168300E+02  0.51600631015E+02  0.75959831604E+02  0.47000000000E+01 0. -1.
        -11    1    6    6    0    0  0.69637594572E+02 -0.14660598484E+03 -0.95579475718E+02  0.18835643219E+03  0.00000000000E+00 0.  1.
         12    1    6    6    0    0 -0.16262478093E+02 -0.13079787582E+02  0.48051552322E+01  0.21415848190E+02  0.00000000000E+00 0. -1.
         -5    1    3    3    0  503 -0.30579028375E+02  0.13484688874E+03 -0.15720707598E+02  0.13924076640E+03  0.47000000000E+01 0.  1.
         11    1    4    4    0    0 -0.58899964409E+01  0.48935849292E+02 -0.12677514744E+03  0.13601965818E+03  0.00000000000E+00 0. -1.
        -12    1    4    4    0    0 -0.35388613797E+02  0.28282202684E+02 -0.13837599596E+02  0.47367880865E+02  0.00000000000E+00 0.  1.
</event>
<event>
12    1  0.8219652E-002  0.2088870E+03  0.7818608E-02  0.1142501E+00
         21   -1    0    0  501  502  0.00000000000E+00  0.00000000000E+00  0.10710285288E+03  0.10710285288E+03  0.00000000000E+00 0.  1.
         21   -1    0    0  502  503 -0.00000000000E+00 -0.00000000000E+00 -0.45920598969E+03  0.45920598969E+03  0.00000000000E+00 0.  1.
         -6    2    1    2    0  503 -0.46056103204E+02 -0.10869427853E+03 -0.27170530925E+03  0.34272082826E+03  0.17233159961E+03 0.  0.
        -24    2    3    3    0    0 -0.58567379052E+02 -0.10287971568E+03 -0.11017327649E+03  0.18053257724E+03  0.80246413031E+02 0.  0.
          6    2    1    2  501    0  0.46056103204E+02  0.10869427853E+03 -0.80397827560E+02  0.22358801430E+03  0.17202377345E+03 0.  0.
         24    2    5    5    0    0  0.38130330377E+02  0.24110536437E+00 -0.46556098201E+00  0.88546665499E+02  0.79914422963E+02 0.  0.
          5    1    5    5  501    0  0.79257728276E+01  0.10845317317E+03 -0.79932266578E+02  0.13504134880E+03  0.47000000000E+01 0. -1.
        -13    1    6    6    0    0  0.25089242900E+02  0.30627050872E+02 -0.25482306249E+02  0.47083269705E+02  0.00000000000E+00 0.  1.
         14    1    6    6    0    0  0.13041087477E+02 -0.30385945507E+02  0.25016745267E+02  0.41463395793E+02  0.00000000000E+00 0. -1.
         -5    1    3    3    0  503  0.12511275848E+02 -0.58145628535E+01 -0.16153203276E+03  0.16218825103E+03  0.47000000000E+01 0.  1.
         11    1    4    4    0    0 -0.48367155412E+02 -0.14383059125E+02 -0.21531759881E+02  0.54862289380E+02  0.00000000000E+00 0. -1.
        -12    1    4    4    0    0 -0.10200223641E+02 -0.88496656551E+02 -0.88641516613E+02  0.12567028786E+03  0.00000000000E+00 0.  1.
</event>
<event>
12    1  0.8219652E-002  0.1862035E+03  0.7818608E-02  0.1162138E+00
         21   -1    0    0  501  502  0.00000000000E+00  0.00000000000E+00  0.16412225158E+03  0.16412225158E+03  0.00000000000E+00 0.  1.
         21   -1    0    0  502  503 -0.00000000000E+00 -0.00000000000E+00 -0.21329360927E+03  0.21329360927E+03  0.00000000000E+00 0.  1.
         -6    2    1    2    0  503 -0.39971072020E+02  0.54087099239E+02 -0.47096926031E+02  0.19120079313E+03  0.17267461293E+03 0.  0.
        -24    2    3    3    0    0 -0.24334210016E+02  0.37125825058E+02  0.45675433327E+02  0.95487696137E+02  0.71141930257E+02 0.  0.
          6    2    1    2  501    0  0.39971072020E+02 -0.54087099239E+02 -0.20744316570E+01  0.18621506771E+03  0.17363365824E+03 0.  0.
         24    2    5    5    0    0  0.27762606805E+01 -0.56098982133E+02 -0.61237657751E+02  0.11614453907E+03  0.81146163237E+02 0.  0.
          5    1    5    5  501    0  0.37194811339E+02  0.20118828942E+01  0.59163226094E+02  0.70070528649E+02  0.47000000000E+01 0. -1.
        -13    1    6    6    0    0  0.39683984230E+02 -0.29015638505E+02 -0.15781110164E+02  0.51631088699E+02  0.00000000000E+00 0.  1.
         14    1    6    6    0    0 -0.36907723549E+02 -0.27083343628E+02 -0.45456547587E+02  0.64513450367E+02  0.00000000000E+00 0. -1.
         -5    1    3    3    0  503 -0.15636862003E+02  0.16961274181E+02 -0.92772359358E+02  0.95713096993E+02  0.47000000000E+01 0.  1.
         13    1    4    4    0    0  0.17418404695E+01 -0.18285336425E+02  0.24645250460E+02  0.30737207203E+02  0.00000000000E+00 0. -1.
        -14    1    4    4    0    0 -0.26076050486E+02  0.55411161483E+02  0.21030182867E+02  0.64750488935E+02  0.00000000000E+00 0.  1.
</event>
<event>
12    1  0.8219652E-002  0.1731567E+03  0.7818608E-02  0.1174905E+00
         21   -1    0    0  501  502  0.00000000000E+00  0.00000000000E+00  0.50877539608E+03  0.50877539608E+03  0.00000000000E+00 0.  1.
         21   -1    0    0  502  503 -0.00000000000E+00 -0.00000000000E+00 -0.62973914323E+02  0.62973914323E+02  0.00000000000E+00 0.  1.
         -6    2    1    2    0  503  0.62966100803E+01  0.15172910300E+02  0.14615482154E+03  0.22566932278E+03  0.17115941948E+03 0.  0.
        -24    2    3    3    0    0 -0.61933765809E+02 -0.15330840788E+02  0.11456746819E+03  0.14439377962E+03  0.60440324263E+02 0.  0.
          6    2    1    2  501    0 -0.62966100803E+01 -0.15172910300E+02  0.29964666022E+03  0.34607998763E+03  0.17237567216E+03 0.  0.
         24    2    5    5    0    0  0.36147355152E+02 -0.43313155047E+02  0.11561576827E+03  0.15507521609E+03  0.86594780955E+02 0.  0.
          5    1    5    5  501    0 -0.42443965233E+02  0.28140244747E+02  0.18403089195E+03  0.19100477154E+03  0.47000000000E+01 0. -1.
        -13    1    6    6    0    0  0.30799843210E+02  0.19969791462E+01  0.10330748918E+03  0.10781955105E+03  0.00000000000E+00 0.  1.
         14    1    6    6    0    0  0.53475119426E+01 -0.45310134193E+02  0.12308279090E+02  0.47255665044E+02  0.00000000000E+00 0. -1.
         -5    1    3    3    0  503  0.68230375889E+02  0.30503751088E+02  0.31587353347E+02  0.81275543160E+02  0.47000000000E+01 0.  1.
         11    1    4    4    0    0 -0.30115728655E+02 -0.16973098093E+02  0.10586500737E+03  0.11136625592E+03  0.00000000000E+00 0. -1.
        -12    1    4    4    0    0 -0.31818037154E+02  0.16422573042E+01  0.87024608235E+01  0.33027523700E+02  0.00000000000E+00 0.  1.
</event>
<event>
12    1  0.8219652E-002  0.2361672E+03  0.7818608E-02  0.1122443E+00
         21   -1    0    0  503  502  0.00000000000E+00  0.00000000000E+00  0.38728333479E+03  0.38728333479E+03  0.00000000000E+00 0. -1.
         21   -1    0    0  501  503 -0.00000000000E+00 -0.00000000000E+00 -0.17653936776E+03  0.17653936776E+03  0.00000000000E+00 0.  1.
          6    2    1    2  501    0 -0.10949800940E+03  0.11859500650E+03 -0.16022584264E+02  0.23671012100E+03  0.17239596442E+03 0.  0.
         24    2    3    3    0    0 -0.11202675791E+03  0.12973655057E+03  0.28733723407E+02  0.19028011293E+03  0.77455325662E+02 0.  0.
         -6    2    1    2    0  502  0.10949800940E+03 -0.11859500650E+03  0.22676655130E+03  0.32711258156E+03  0.17182835213E+03 0.  0.
        -24    2    5    5    0    0 -0.62899702631E+01 -0.23479992545E+02  0.62639125242E+02  0.10482082710E+03  0.80454160909E+02 0.  0.
          5    1    3    3  501    0  0.25287485119E+01 -0.11141544066E+02 -0.44756307671E+02  0.46430008072E+02  0.47000000000E+01 0. -1.
        -11    1    4    4    0    0 -0.99955202834E+02  0.80084125197E+02 -0.64460590769E+01  0.12824219805E+03  0.00000000000E+00 0.  1.
         12    1    4    4    0    0 -0.12071555078E+02  0.49652425369E+02  0.35179782484E+02  0.62037914880E+02  0.00000000000E+00 0. -1.
         -5    1    5    5    0  502  0.11578797966E+03 -0.95115013956E+02  0.16412742606E+03  0.22229175445E+03  0.47000000000E+01 0.  1.
         11    1    6    6    0    0 -0.21930855012E+02 -0.62870849923E+01  0.75071665729E+02  0.78461741215E+02  0.00000000000E+00 0. -1.
        -12    1    6    6    0    0  0.15640884749E+02 -0.17192907552E+02 -0.12432540487E+02  0.26359085887E+02  0.00000000000E+00 0.  1.
</event>
<event>
12    1  0.8219652E-002  0.1894697E+03  0.7818608E-02  0.1159406E+00
         21   -1    0    0  503  502  0.00000000000E+00  0.00000000000E+00  0.64519145969E+03  0.64519145969E+03  0.00000000000E+00 0. -1.
         21   -1    0    0  501  503 -0.00000000000E+00 -0.00000000000E+00 -0.55048650620E+02  0.55048650620E+02  0.00000000000E+00 0. -1.
          6    2    1    2  501    0  0.17754881374E+02 -0.71742968551E+02  0.29733551025E+03  0.35147816423E+03  0.17223880204E+03 0.  0.
         24    2    3    3    0    0 -0.50574977348E+02 -0.40187375175E+02  0.22349881737E+03  0.24593825575E+03  0.79756196130E+02 0.  0.
         -6    2    1    2    0  502 -0.17754881374E+02  0.71742968551E+02  0.29280729882E+03  0.34876194607E+03  0.17446057273E+03 0.  0.
        -24    2    5    5    0    0  0.20543710263E+02  0.43342006279E+02  0.57955981640E+02  0.10907333984E+03  0.78977997669E+02 0.  0.
          5    1    3    3  501    0  0.68329858723E+02 -0.31555593376E+02  0.73836692882E+02  0.10553990848E+03  0.47000000000E+01 0. -1.
        -13    1    4    4    0    0 -0.35200280050E+01 -0.46502485725E+02  0.15996901649E+03  0.16662820293E+03  0.00000000000E+00 0.  1.
         14    1    4    4    0    0 -0.47054949343E+02  0.63151105504E+01  0.63529800879E+02  0.79310052822E+02  0.00000000000E+00 0. -1.
         -5    1    5    5    0  502 -0.38298591637E+02  0.28400962272E+02  0.23485131718E+03  0.23968860624E+03  0.47000000000E+01 0.  1.
         13    1    6    6    0    0  0.29804728354E+02 -0.25718991677E+01  0.54421205814E+02  0.62101563103E+02  0.00000000000E+00 0. -1.
        -14    1    6    6    0    0 -0.92610180916E+01  0.45913905446E+02  0.35347758262E+01  0.46971776734E+02  0.00000000000E+00 0.  1.
</event>
<event>
12    1  0.8219652E-002  0.1821353E+03  0.7818608E-02  0.1165895E+00
         21   -1    0    0  503  502  0.00000000000E+00  0.00000000000E+00  0.10038860618E+03  0.10038860618E+03  0.00000000000E+00 0. -1.
         21   -1    0    0  501  503 -0.00000000000E+00 -0.00000000000E+00 -0.36158791868E+03  0.36158791868E+03  0.00000000000E+00 0. -1.
          6    2    1    2  501    0  0.54728525919E+02 -0.25271458566E+02 -0.19974874442E+03  0.27031988567E+03  0.17187036255E+03 0.  0.
         24    2    3    3    0    0  0.75629435609E+02  0.15712933625E+02 -0.19346018376E+03  0.22364864801E+03  0.81395130344E+02 0.  0.
         -6    2    1    2    0  502 -0.54728525919E+02  0.25271458566E+02 -0.61450568079E+02  0.19165663919E+03  0.17123736993E+03 0.  0.
        -24    2    5    5    0    0 -0.72252854090E+02  0.49851578111E+02  0.64937783262E+01  0.11715960191E+03  0.77321073447E+02 0.  0.
          5    1    3    3  501    0 -0.20900909689E+02 -0.40984392191E+02 -0.62885606611E+01  0.46671237655E+02  0.47000000000E+01 0. -1.
        -13    1    4    4    0    0 -0.85519215596E+01  0.21643477412E+02 -0.19742677332E+02  0.30518007554E+02  0.00000000000E+00 0.  1.
         14    1    4    4    0    0  0.84181357168E+02 -0.59305437869E+01 -0.17371750643E+03  0.19313064046E+03  0.00000000000E+00 0. -1.
         -5    1    5    5    0  502  0.17524328171E+02 -0.24580119545E+02 -0.67944346406E+02  0.74497037278E+02  0.47000000000E+01 0.  1.
         11    1    6    6    0    0 -0.76683370866E+02  0.38950658433E+02 -0.19883172507E+02  0.88277028205E+02  0.00000000000E+00 0. -1.
        -12    1    6    6    0    0  0.44305167763E+01  0.10900919678E+02  0.26376950833E+02  0.28882573708E+02  0.00000000000E+00 0.  1.
</event>
<event>
12    1  0.8219652E-002  0.2435875E+03  0.7818608E-02  0.1117742E+00
         21   -1    0    0  501  502  0.00000000000E+00  0.00000000000E+00  0.58827708941E+02  0.58827708941E+02  0.00000000000E+00 0.  1.
         21   -1    0    0  502  503 -0.00000000000E+00 -0.00000000000E+00 -0.10085238520E+04  0.10085238520E+04  0.00000000000E+00 0. -1.
         -6    2    1    2    0  503 -0.11866398764E+02  0.17215555466E+03 -0.42581095863E+03  0.48960547534E+03  0.16917506488E+03 0.  0.
        -24    2    3    3    0    0 -0.38648398225E+02  0.97170838696E+02 -0.36886623502E+03  0.39160152302E+03  0.79709365321E+02 0.  0.
          6    2    1    2  501    0  0.11866398764E+02 -0.17215555466E+03 -0.52388518443E+03  0.57774608560E+03  0.17192005857E+03 0.  0.
         24    2    5    5    0    0 -0.55450780618E+01 -0.15448059775E+03 -0.26423367485E+03  0.31686956298E+03  0.81803924387E+02 0.  0.
          5    1    5    5  501    0  0.17411476826E+02 -0.17674956908E+02 -0.25965150959E+03  0.26087652263E+03  0.47000000000E+01 0. -1.
        -11    1    6    6    0    0 -0.41959313128E+02 -0.10165670390E+03 -0.18078383432E+03  0.21160686226E+03  0.00000000000E+00 0.  1.
         12    1    6    6    0    0  0.36414235066E+02 -0.52823893855E+02 -0.83449840527E+02  0.10526270071E+03  0.00000000000E+00 0. -1.
         -5    1    3    3    0  503  0.26781999461E+02  0.74984715962E+02 -0.56944723611E+02  0.98003952319E+02  0.47000000000E+01 0.  1.
         13    1    4    4    0    0 -0.29289855638E+02  0.37742431685E+02 -0.58842833323E+02  0.75794893141E+02  0.00000000000E+00 0. -1.
        -14    1    4    4    0    0 -0.93585425864E+01  0.59428407011E+02 -0.31002340169E+03  0.31580662988E+03  0.00000000000E+00 0.  1.
</event>
<event>
12    1  0.8219652E-002  0.1880822E+03  0.7818608E-02  0.1160983E+00
         21   -1    0    0  501  502  0.00000000000E+00  0.00000000000E+00  0.61000114639E+03  0.61000114639E+03  0.00000000000E+00 0.  1.
         21   -1    0    0  502  503 -0.00000000000E+00 -0.00000000000E+00 -0.19612662641E+03  0.19612662641E+03  0.00000000000E+00 0.  1.
         -6    2    1    2    0  503 -0.47113792651E+02 -0.49298809548E+02 -0.13313919788E+03  0.22768251864E+03  0.17164848150E+03 0.  0.
        -24    2    3    3    0    0  0.18001083173E+01 -0.32857328150E+02 -0.14949291099E+03  0.17334628808E+03  0.81350849738E+02 0.  0.
          6    2    1    2  501    0  0.47113792651E+02  0.49298809548E+02  0.54701371787E+03  0.57844525416E+03  0.17528497496E+03 0.  0.
         24    2    5    5    0    0  0.87235058823E+02  0.67684501984E+02  0.32801315481E+03  0.35499260525E+03  0.78968175609E+02 0.  0.
          5    1    5    5  501    0 -0.40121266172E+02 -0.18385692436E+02  0.21900056306E+03  0.22345264891E+03  0.47000000000E+01 0. -1.
        -11    1    6    6    0    0  0.65009450195E+02  0.73205910042E+02  0.31212487767E+03  0.32711966181E+03  0.00000000000E+00 0.  1.
         12    1    6    6    0    0  0.22225608629E+02 -0.55214080586E+01  0.15888277139E+02  0.27872943445E+02  0.00000000000E+00 0. -1.
         -5    1    3    3    0  503 -0.48913900968E+02 -0.16441481398E+02  0.16353713107E+02  0.54336230555E+02  0.47000000000E+01 0.  1.
         11    1    4    4    0    0  0.69959408247E+01  0.26729775373E+02 -0.40649543924E+02  0.49150885045E+02  0.00000000000E+00 0. -1.
        -12    1    4    4    0    0 -0.51958325074E+01 -0.59587103523E+02 -0.10884336707E+03  0.12419540304E+03  0.00000000000E+00 0.  1.
</event>
<event>
12    1  0.8219652E-002  0.2623983E+03  0.7818608E-02  0.1105787E+00
         21   -1    0    0  503  502  0.00000000000E+00  0.00000000000E+00  0.30952858036E+03  0.30952858036E+03  0.00000000000E+00 0.  1.
         21   -1    0    0  501  503 -0.00000000000E+00 -0.00000000000E+00 -0.27107163582E+03  0.27107163582E+03  0.00000000000E+00 0. -1.
          6    2    1    2  501    0  0.19449964567E+03  0.33502213122E+02 -0.10429109043E+03  0.28188656101E+03  0.17213625791E+03 0.  0.
         24    2    3    3    0    0  0.16420973423E+03 -0.34846097692E+02 -0.84036499613E+02  0.20428946844E+03  0.80578944571E+02 0.  0.
         -6    2    1    2    0  502 -0.19449964567E+03 -0.33502213122E+02  0.14274803497E+03  0.29871365518E+03  0.17291713580E+03 0.  0.
        -24    2    5    5    0    0 -0.17896594621E+02  0.23836582520E+01  0.45733956225E+02  0.93993712627E+02  0.80107760771E+02 0.  0.
          5    1    3    3  501    0  0.30289911435E+02  0.68348310813E+02 -0.20254590812E+02  0.77597092566E+02  0.47000000000E+01 0. -1.
        -13    1    4    4    0    0  0.77333992180E+01  0.14214039194E+02 -0.25435329494E+02  0.30146315863E+02  0.00000000000E+00 0.  1.
         14    1    4    4    0    0  0.15647633501E+03 -0.49060136885E+02 -0.58601170119E+02  0.17414315258E+03  0.00000000000E+00 0. -1.
         -5    1    5    5    0  502 -0.17660305105E+03 -0.35885871374E+02  0.97014078743E+02  0.20471994255E+03  0.47000000000E+01 0.  1.
         11    1    6    6    0    0 -0.20835578467E+02 -0.37085961575E+02  0.23603533541E+02  0.48647884555E+02  0.00000000000E+00 0. -1.
        -12    1    6    6    0    0  0.29389838463E+01  0.39469619827E+02  0.22130422684E+02  0.45345828072E+02  0.00000000000E+00 0.  1.
</event>
<event>
12    1  0.8219652E-002  0.1947026E+03  0.7818608E-02  0.1156545E+00
         21   -1    0    0  501  502  0.00000000000E+00  0.00000000000E+00  0.18087105604E+04  0.18087105604E+04  0.00000000000E+00 0.  1.
         21   -1    0    0  502  503 -0.00000000000E+00 -0.00000000000E+00 -0.43659058991E+02  0.43659058991E+02  0.00000000000E+00 0.  1.
         -6    2    1    2    0  503 -0.43806806489E+02 -0.46883857763E+02  0.18861879789E+03  0.26395872975E+03  0.17314741604E+03 0.  0.
        -24    2    3    3    0    0 -0.37341554587E+00  0.31186329735E+02  0.59830008368E+02  0.10714656208E+03  0.83234783965E+02 0.  0.
          6    2    1    2  501    0  0.43806806489E+02  0.46883857763E+02  0.15764327035E+04  0.15884108897E+04  0.18382587736E+03 0.  0.
         24    2    5    5    0    0 -0.59424568986E+01  0.94836118482E+02  0.10771157128E+04  0.10843137207E+04  0.80800890878E+02 0.  0.
          5    1    5    5  501    0  0.49749263388E+02 -0.47952260718E+02  0.49931699073E+03  0.50409716895E+03  0.47000000000E+01 0. -1.
        -13    1    6    6    0    0  0.29743652132E+02  0.80054032478E+02  0.79270506919E+03  0.79729207928E+03  0.00000000000E+00 0.  1.
         14    1    6    6    0    0 -0.35686109031E+02  0.14782086004E+02  0.28441064362E+03  0.28702164143E+03  0.00000000000E+00 0. -1.
         -5    1    3    3    0  503 -0.43433390943E+02 -0.78070187498E+02  0.12878878952E+03  0.15681216767E+03  0.47000000000E+01 0.  1.
         11    1    4    4    0    0  0.28402997079E+02 -0.16677503266E+02  0.24674741219E+02  0.41154734995E+02  0.00000000000E+00 0. -1.
        -12    1    4    4    0    0 -0.28776412625E+02  0.47863833001E+02  0.35155267149E+02  0.65991827081E+02  0.00000000000E+00 0.  1.
</event>
<event>
12    1  0.8219652E-002  0.1857712E+03  0.7818608E-02  0.1162943E+00
         21   -1    0    0  503  502  0.00000000000E+00  0.00000000000E+00  0.38655263908E+03  0.38655263908E+03  0.00000000000E+00 0. -1.
         21   -1    0    0  501  503 -0.00000000000E+00 -0.00000000000E+00 -0.25779262524E+03  0.25779262524E+03  0.00000000000E+00 0. -1.
          6    2    1    2  501    0 -0.31136922978E+02 -0.61460051451E+02  0.32597692767E+03  0.37519579389E+03  0.17252269557E+03 0.  0.
         24    2    3    3    0    0  0.56826271461E+00 -0.88112332747E+02  0.13612537527E+03  0.18082176053E+03  0.80014281132E+02 0.  0.
         -6    2    1    2    0  502  0.31136922978E+02  0.61460051451E+02 -0.19721691383E+03  0.26914947043E+03  0.16970586447E+03 0.  0.
        -24    2    5    5    0    0 -0.39936136667E+02  0.20025172935E+02 -0.62134213885E+02  0.11091655733E+03  0.80286484488E+02 0.  0.
          5    1    3    3  501    0 -0.31705185692E+02  0.26652281296E+02  0.18985155240E+03  0.19437403336E+03  0.47000000000E+01 0. -1.
        -13    1    4    4    0    0  0.29016052419E+01 -0.47774442170E+02  0.10693364576E+02  0.49042478359E+02  0.00000000000E+00 0.  1.
         14    1    4    4    0    0 -0.23333425273E+01 -0.40337890577E+02  0.12543201069E+03  0.13177928217E+03  0.00000000000E+00 0. -1.
         -5    1    5    5    0  502  0.71073059645E+02  0.41434878516E+02 -0.13508269994E+03  0.15823291310E+03  0.47000000000E+01 0.  1.
         13    1    6    6    0    0 -0.25884052246E+02 -0.86413365096E+01 -0.72407505034E+02  0.77378961240E+02  0.00000000000E+00 0. -1.
        -14    1    6    6    0    0 -0.14052084422E+02  0.28666509445E+02  0.10273291149E+02  0.33537596088E+02  0.00000000000E+00 0.  1.
</event>
<event>
12    1  0.8219652E-002  0.2653352E+03  0.7818608E-02  0.1103988E+00
         21   -1    0    0  503  502  0.00000000000E+00  0.00000000000E+00  0.38343826497E+03  0.38343826497E+03  0.00000000000E+00 0.  1.
         21   -1    0    0  501  503 -0.00000000000E+00 -0.00000000000E+00 -0.19454207350E+03  0.19454207350E+03  0.00000000000E+00 0. -1.
          6    2    1    2  501    0 -0.30297042171E+02 -0.19948135919E+03  0.16307231063E+03  0.31139142466E+03  0.17222461331E+03 0.  0.
         24    2    3    3    0    0 -0.53592120410E+02 -0.14847410716E+03  0.47851763461E+02  0.18316402931E+03  0.79640407442E+02 0.  0.
         -6    2    1    2    0  502  0.30297042171E+02  0.19948135919E+03  0.25823880839E+02  0.26658891381E+03  0.17231382045E+03 0.  0.
        -24    2    5    5    0    0 -0.30612410512E+02  0.61175546166E+02 -0.29479592429E+02  0.10559505213E+03  0.74844515760E+02 0.  0.
          5    1    3    3  501    0  0.23295078240E+02 -0.51007252026E+02  0.11522054717E+03  0.12822739535E+03  0.47000000000E+01 0. -1.
        -13    1    4    4    0    0  0.17736586310E+01 -0.76646083332E+02  0.51571536101E+02  0.92398004799E+02  0.00000000000E+00 0.  1.
         14    1    4    4    0    0 -0.55365779041E+02 -0.71828023833E+02 -0.37197726402E+01  0.90766024508E+02  0.00000000000E+00 0. -1.
         -5    1    5    5    0  502  0.60909452682E+02  0.13830581302E+03  0.55303473269E+02  0.16099386168E+03  0.47000000000E+01 0.  1.
         11    1    6    6    0    0  0.18649151534E+02  0.30290780640E+02 -0.31361101518E+02  0.47421945691E+02  0.00000000000E+00 0. -1.
        -12    1    6    6    0    0 -0.49261562046E+02  0.30884765527E+02  0.18815090887E+01  0.58173106443E+02  0.00000000000E+00 0.  1.
</event>
<event>
12    1  0.8219652E-002  0.2134566E+03  0.7818608E-02  0.1139481E+00
         21   -1    0    0  503  502  0.00000000000E+00  0.00000000000E+00  0.12324257203E+04  0.12324257203E+04  0.00000000000E+00 0.  1.
         21   -1    0    0  501  503 -0.00000000000E+00 -0.00000000000E+00 -0.45386267048E+02  0.45386267048E+02  0.00000000000E+00 0.  1.
          6    2    1    2  501    0 -0.11955166434E+03 -0.26087691608E+02  0.30597118284E+03  0.37125530454E+03  0.17099405931E+03 0.  0.
         24    2    3    3    0    0 -0.97660599398E+02 -0.53628304597E+02  0.12441054647E+03  0.18625784843E+03  0.82464624539E+02 0.  0.
         -6    2    1    2    0  502  0.11955166434E+03  0.26087691608E+02  0.88106827037E+03  0.90655668277E+03  0.17490155494E+03 0.  0.
        -24    2    5    5    0    0  0.95944297566E+01  0.48860082659E+02  0.27553404183E+03  0.29068091025E+03  0.78083433720E+02 0.  0.
          5    1    3    3  501    0 -0.21891064939E+02  0.27540612989E+02  0.18156063636E+03  0.18499745610E+03  0.47000000000E+01 0. -1.
        -11    1    4    4    0    0 -0.95589400257E+02 -0.37204383198E+02  0.13271773405E+03  0.16773638992E+03  0.00000000000E+00 0.  1.
         12    1    4    4    0    0 -0.20711991406E+01 -0.16423921398E+02 -0.83071875802E+01  0.18521458514E+02  0.00000000000E+00 0. -1.
         -5    1    5    5    0  502  0.10995723458E+03 -0.22772391050E+02  0.60553422854E+03  0.61587577251E+03  0.47000000000E+01 0.  1.
         13    1    6    6    0    0 -0.14147456717E+02  0.22623473389E+02  0.21700774502E+02  0.34393250700E+02  0.00000000000E+00 0. -1.
        -14    1    6    6    0    0  0.23741886474E+02  0.26236609270E+02  0.25383326732E+03  0.25628765955E+03  0.00000000000E+00 0.  1.
</event>
<event>
12    1  0.8219652E-002  0.2350626E+03  0.7818608E-02  0.1123172E+00
         21   -1    0    0  501  502  0.00000000000E+00  0.00000000000E+00  0.89239856509E+03  0.89239856509E+03  0.00000000000E+00 0. -1.
         21   -1    0    0  502  503 -0.00000000000E+00 -0.00000000000E+00 -0.89991717816E+02  0.89991717816E+02  0.00000000000E+00 0.  1.
         -6    2    1    2    0  503  0.42339926941E+02 -0.15408170581E+03  0.12634489022E+03  0.26662900180E+03  0.17202950863E+03 0.  0.
        -24    2    3    3    0    0 -0.36877119116E+02 -0.11776317833E+03  0.87320248015E+02  0.17102885262E+03  0.79987215419E+02 0.  0.
          6    2    1    2  501    0 -0.42339926941E+02  0.15408170581E+03  0.67606195705E+03  0.71576128110E+03  0.17239663649E+03 0.  0.
         24    2    5    5    0    0 -0.74412670964E+02  0.65069206995E+02  0.26531076843E+03  0.29422775360E+03  0.80055729620E+02 0.  0.
          5    1    5    5  501    0  0.32072744022E+02  0.89012498812E+02  0.41075118862E+03  0.42153352750E+03  0.47000000000E+01 0. -1.
        -13    1    6    6    0    0 -0.31334838087E+02  0.51821065348E+02  0.64710573741E+02  0.88627045791E+02  0.00000000000E+00 0.  1.
         14    1    6    6    0    0 -0.43077832877E+02  0.13248141647E+02  0.20060019469E+03  0.20560070781E+03  0.00000000000E+00 0. -1.
         -5    1    3    3    0  503  0.79217046057E+02 -0.36318527477E+02  0.39024642205E+02  0.95600149181E+02  0.47000000000E+01 0.  1.
         13    1    4    4    0    0 -0.10551890117E+02 -0.61862900314E+02  0.89373232953E+02  0.10920593202E+03  0.00000000000E+00 0. -1.
        -14    1    4    4    0    0 -0.26325228999E+02 -0.55900278016E+02 -0.20529849383E+01  0.61822920598E+02  0.00000000000E+00 0.  1.
</event>
<event>
12    1  0.8219652E-002  0.1912011E+03  0.7818608E-02  0.1157680E+00
         21   -1    0    0  503  502  0.00000000000E+00  0.00000000000E+00  0.52037579841E+03  0.52037579841E+03  0.00000000000E+00 0. -1.
         21   -1    0    0  501  503 -0.00000000000E+00 -0.00000000000E+00 -0.69806516668E+02  0.69806516668E+02  0.00000000000E+00 0. -1.
          6    2    1    2  501    0 -0.75194151640E+02 -0.38981589639E+02  0.21739753473E+03  0.28864136840E+03  0.16993653720E+03 0.  0.
         24    2    3    3    0    0  0.16419637130E+02 -0.42888649960E+02  0.14450904627E+03  0.17141008776E+03  0.79934429069E+02 0.  0.
         -6    2    1    2    0  502  0.75194151640E+02  0.38981589639E+02  0.23317174702E+03  0.30154094668E+03  0.17141806832E+03 0.  0.
        -24    2    5    5    0    0 -0.86093613532E+01  0.59516825653E+02  0.96865742035E+02  0.14015277579E+03  0.81507391954E+02 0.  0.
          5    1    3    3  501    0 -0.91613788770E+02  0.39070603210E+01  0.72888488452E+02  0.11723128065E+03  0.47000000000E+01 0. -1.
        -13    1    4    4    0    0 -0.46581563221E+01 -0.40408759981E+02  0.20410689975E+02  0.45510027123E+02  0.00000000000E+00 0.  1.
         14    1    4    4    0    0  0.21077793452E+02 -0.24798899795E+01  0.12409835630E+03  0.12590006063E+03  0.00000000000E+00 0. -1.
         -5    1    5    5    0  502  0.83803512993E+02 -0.20535236014E+02  0.13630600498E+03  0.16138817089E+03  0.47000000000E+01 0.  1.
         11    1    6    6    0    0  0.26112120110E+02 -0.51218650812E+01  0.16406724316E+02  0.31261108767E+02  0.00000000000E+00 0. -1.
        -12    1    6    6    0    0 -0.34721481464E+02  0.64638690735E+02  0.80459017719E+02  0.10889166702E+03  0.00000000000E+00 0.  1.
</event>
<event>
12    1  0.8219652E-002  0.2040424E+03  0.7818608E-02  0.1146641E+00
         21   -1    0    0  503  502  0.00000000000E+00  0.00000000000E+00  0.24899116121E+03  0.24899116121E+03  0.00000000000E+00 0. -1.
         21   -1    0    0  501  503 -0.00000000000E+00 -0.00000000000E+00 -0.16634247825E+03  0.16634247825E+03  0.00000000000E+00 0.  1.
          6    2    1    2  501    0  0.45451824710E+02  0.99139451941E+02  0.34265977719E+02  0.20689967956E+03  0.17244947339E+03 0.  0.
         24    2    3    3    0    0  0.12171009224E+02  0.39589021730E+02 -0.44117873249E+02  0.10288052502E+03  0.83202112844E+02 0.  0.
         -6    2    1    2    0  502 -0.45451824710E+02 -0.99139451941E+02  0.48382705247E+02  0.20843395990E+03  0.17090737308E+03 0.  0.
        -24    2    5    5    0    0  0.30928688096E+02 -0.83800757590E+02  0.77079573886E+01  0.12042382756E+03  0.80394868724E+02 0.  0.
          5    1    3    3  501    0  0.33280815486E+02  0.59550430210E+02  0.78383850969E+02  0.10401915454E+03  0.47000000000E+01 0. -1.
        -11    1    4    4    0    0  0.27302693667E+02 -0.16356892631E+02 -0.28826014045E+02  0.42940937388E+02  0.00000000000E+00 0.  1.
         12    1    4    4    0    0 -0.15131684443E+02  0.55945914361E+02 -0.15291859204E+02  0.59939587634E+02  0.00000000000E+00 0. -1.
         -5    1    5    5    0  502 -0.76380512806E+02 -0.15338694350E+02  0.40674747859E+02  0.88010132339E+02  0.47000000000E+01 0.  1.
         13    1    6    6    0    0  0.19255442120E+02 -0.62003415837E+02  0.42604440914E+02  0.77655225274E+02  0.00000000000E+00 0. -1.
        -14    1    6    6    0    0  0.11673245976E+02 -0.21797341753E+02 -0.34896483525E+02  0.42768602287E+02  0.00000000000E+00 0.  1.
</event>
<event>
12    1  0.8219652E-002  0.2040578E+03  0.7818608E-02  0.1146404E+00
         21   -1    0    0  503  502  0.00000000000E+00  0.00000000000E+00  0.80722540083E+02  0.80722540083E+02  0.00000000000E+00 0.  1.
         21   -1    0    0  501  503 -0.00000000000E+00 -0.00000000000E+00 -0.52473015721E+03  0.52473015721E+03  0.00000000000E+00 0.  1.
          6    2    1    2  501    0 -0.80164538165E+01  0.10883232814E+03 -0.26248925233E+03  0.33234370936E+03  0.17217140989E+03 0.  0.
         24    2    3    3    0    0  0.98532809549E+01  0.49154545567E+02 -0.43721703365E+02  0.10483086218E+03  0.81022625389E+02 0.  0.
         -6    2    1    2    0  502  0.80164538165E+01 -0.10883232814E+03 -0.18151836480E+03  0.27310898793E+03  0.17242639980E+03 0.  0.
        -24    2    5    5    0    0 -0.15309265903E+02 -0.67009004262E+00 -0.30011427305E+02  0.85440127806E+02  0.78514374655E+02 0.  0.
          5    1    3    3  501    0 -0.17869734771E+02  0.59677782577E+02 -0.21876754896E+03  0.22751284718E+03  0.47000000000E+01 0. -1.
        -13    1    4    4    0    0  0.40024717787E+02  0.50020232215E+02 -0.36740106023E+02  0.73850098547E+02  0.00000000000E+00 0.  1.
         14    1    4    4    0    0 -0.30171436832E+02 -0.86568664767E+00 -0.69815973421E+01  0.30980763634E+02  0.00000000000E+00 0. -1.
         -5    1    5    5    0  502  0.23325719719E+02 -0.10816223810E+03 -0.15150693750E+03  0.18766886013E+03  0.47000000000E+01 0.  1.
         11    1    6    6    0    0  0.29253216525E+02  0.11322609390E+02 -0.19466497993E+01  0.31428356716E+02  0.00000000000E+00 0. -1.
        -12    1    6    6    0    0 -0.44562482427E+02 -0.11992699432E+02 -0.28064777506E+02  0.54011771089E+02  0.00000000000E+00 0.  1.
</event>
<event>
12    1  0.8219652E-002  0.2070862E+03  0.7818608E-02  0.1144077E+00
         21   -1    0    0  501  502  0.00000000000E+00  0.00000000000E+00  0.45441252085E+02  0.45441252085E+02  0.00000000000E+00 0. -1.
         21   -1    0    0  502  503 -0.00000000000E+00 -0.00000000000E+00 -0.13653391776E+04  0.13653391776E+04  0.00000000000E+00 0. -1.
         -6    2    1    2    0  503 -0.92407180865E+02  0.66561211523E+02 -0.10528388275E+04  0.10728377483E+04  0.17187715259E+03 0.  0.
        -24    2    3    3    0    0 -0.59737039561E+02  0.48968932602E+02 -0.10159404438E+04  0.10202981715E+04  0.53915704345E+02 0.  0.
          6    2    1    2  501    0  0.92407180865E+02 -0.66561211523E+02 -0.26705909807E+03  0.33794268141E+03  0.17296014600E+03 0.  0.
         24    2    5    5    0    0  0.69753654875E+01 -0.63279738752E+01 -0.43868097839E+02  0.91441260364E+02  0.79676816652E+02 0.  0.
          5    1    5    5  501    0  0.85431815378E+02 -0.60233237648E+02 -0.22319100023E+03  0.24650142105E+03  0.47000000000E+01 0. -1.
        -11    1    6    6    0    0 -0.52177009112E+01 -0.42068065381E+02 -0.21181219668E+02  0.47387662892E+02  0.00000000000E+00 0.  1.
         12    1    6    6    0    0  0.12193066399E+02  0.35740091506E+02 -0.22686878171E+02  0.44053597472E+02  0.00000000000E+00 0. -1.
         -5    1    3    3    0  503 -0.32670141304E+02  0.17592278921E+02 -0.36898383633E+02  0.52539576751E+02  0.47000000000E+01 0.  1.
         13    1    4    4    0    0 -0.14482118355E+02  0.45416870394E+02 -0.44117999286E+03  0.44374791264E+03  0.00000000000E+00 0. -1.
        -14    1    4    4    0    0 -0.45254921205E+02  0.35520622081E+01 -0.57476045097E+03  0.57655025890E+03  0.00000000000E+00 0.  1.
</event>
<event>
12    1  0.8219652E-002  0.2457454E+03  0.7818608E-02  0.1116241E+00
         21   -1    0    0  501  502  0.00000000000E+00  0.00000000000E+00  0.18434210091E+03  0.18434210091E+03  0.00000000000E+00 0. -1.
         21   -1    0    0  502  503 -0.00000000000E+00 -0.00000000000E+00 -0.73496552623E+03  0.73496552623E+03  0.00000000000E+00 0. -1.
         -6    2    1    2    0  503 -0.10959876174E+03  0.13704795506E+03 -0.61860254158E+03  0.66562744269E+03  0.17203708163E+03 0.  0.
        -24    2    3    3    0    0  0.20536061285E+01  0.16145997964E+02 -0.21192876354E+03  0.22689154694E+03  0.79379233471E+02 0.  0.
          6    2    1    2  501    0  0.10959876174E+03 -0.13704795506E+03  0.67979116256E+02  0.25368018444E+03  0.17011303644E+03 0.  0.
         24    2    5    5    0    0  0.54320265533E+02 -0.89993901027E+02 -0.25824502643E+02  0.13497464513E+03  0.80632849518E+02 0.  0.
          5    1    5    5  501    0  0.55278496211E+02 -0.47054054037E+02  0.93803618899E+02  0.11870553931E+03  0.47000000000E+01 0. -1.
        -13    1    6    6    0    0 -0.14819638932E+02 -0.48297963135E+02 -0.10931948580E+01  0.50532267078E+02  0.00000000000E+00 0.  1.
         14    1    6    6    0    0  0.69139904465E+02 -0.41695937892E+02 -0.24731307785E+02  0.84442378051E+02  0.00000000000E+00 0. -1.
         -5    1    3    3    0  503 -0.11165236787E+03  0.12090195710E+03 -0.40667377804E+03  0.43873589576E+03  0.47000000000E+01 0.  1.
         13    1    4    4    0    0  0.12433996094E+02  0.44420445391E+02 -0.16330562200E+03  0.16969533406E+03  0.00000000000E+00 0. -1.
        -14    1    4    4    0    0 -0.10380389966E+02 -0.28274447427E+02 -0.48623141545E+02  0.57196212871E+02  0.00000000000E+00 0.  1.
</event>
<event>
12    1  0.8219652E-002  0.3111914E+03  0.7818608E-02  0.1079835E+00
         21   -1    0    0  501  502  0.00000000000E+00  0.00000000000E+00  0.94426158591E+02  0.94426158591E+02  0.00000000000E+00 0.  1.
         21   -1    0    0  502  503 -0.00000000000E+00 -0.00000000000E+00 -0.10361415801E+04  0.10361415801E+04  0.00000000000E+00 0. -1.
         -6    2    1    2    0  503 -0.15755006659E+02 -0.26001906167E+03 -0.40987495598E+03  0.51462373653E+03  0.17024094100E+03 0.  0.
        -24    2    3    3    0    0  0.29294211461E+02 -0.64557237107E+02 -0.19850408943E+03  0.22318851192E+03  0.73372001783E+02 0.  0.
          6    2    1    2  501    0  0.15755006659E+02  0.26001906167E+03 -0.53184046554E+03  0.61594400217E+03  0.16933576219E+03 0.  0.
         24    2    5    5    0    0 -0.45081137946E+02  0.91251991587E+02 -0.19573848649E+03  0.23493220346E+03  0.80748685207E+02 0.  0.
          5    1    5    5  501    0  0.60836144605E+02  0.16876707009E+03 -0.33610197905E+03  0.38101179871E+03  0.47000000000E+01 0. -1.
        -13    1    6    6    0    0  0.74414759045E+01 -0.95764330227E+01 -0.42052363650E+02  0.43766253229E+02  0.00000000000E+00 0.  1.
         14    1    6    6    0    0 -0.52522613850E+02  0.10082842461E+03 -0.15368612284E+03  0.19116595024E+03  0.00000000000E+00 0. -1.
         -5    1    3    3    0  503 -0.45049218120E+02 -0.19546182457E+03 -0.21137086655E+03  0.29143522461E+03  0.47000000000E+01 0.  1.
         13    1    4    4    0    0  0.26682123296E+02 -0.74285848839E+02 -0.11743899546E+03  0.14149996712E+03  0.00000000000E+00 0. -1.
        -14    1    4    4    0    0  0.26120881651E+01  0.97286117322E+01 -0.81065093977E+02  0.81688544804E+02  0.00000000000E+00 0.  1.
</event>
<event>
12    1  0.8219652E-002  0.2235589E+03  0.7818608E-02  0.1131334E+00
         21   -1    0    0  501  502  0.00000000000E+00  0.00000000000E+00  0.24289674027E+03  0.24289674027E+03  0.00000000000E+00 0. -1.
         21   -1    0    0  502  503 -0.00000000000E+00 -0.00000000000E+00 -0.27536547365E+03  0.27536547365E+03  0.00000000000E+00 0.  1.
         -6    2    1    2    0  503 -0.12198868580E+03  0.73961584505E+02 -0.14689036340E+03  0.26749831218E+03  0.17212499155E+03 0.  0.
        -24    2    3    3    0    0 -0.73907255385E+02 -0.25898344756E+02 -0.64533148506E+02  0.12933670294E+03  0.80190079262E+02 0.  0.
          6    2    1    2  501    0  0.12198868580E+03 -0.73961584505E+02  0.11442163002E+03  0.25076390175E+03  0.17157700767E+03 0.  0.
         24    2    5    5    0    0  0.61574322298E+02  0.15067728935E+02  0.99176277663E+02  0.14199522640E+03  0.79424660198E+02 0.  0.
          5    1    5    5  501    0  0.60414363499E+02 -0.89029313441E+02  0.15245352354E+02  0.10876867535E+03  0.47000000000E+01 0. -1.
        -11    1    6    6    0    0 -0.19304945696E+02  0.58755632006E+01  0.21339552421E+02  0.29369706651E+02  0.00000000000E+00 0.  1.
         12    1    6    6    0    0  0.80879267994E+02  0.91921657348E+01  0.77836725242E+02  0.11262551975E+03  0.00000000000E+00 0. -1.
         -5    1    3    3    0  503 -0.48081430413E+02  0.99859929261E+02 -0.82357214890E+02  0.13816160924E+03  0.47000000000E+01 0.  1.
         13    1    4    4    0    0  0.75429327420E+01 -0.26883144642E+02 -0.48114763144E+01  0.28332836154E+02  0.00000000000E+00 0. -1.
        -14    1    4    4    0    0 -0.81450188127E+02  0.98479988629E+00 -0.59721672192E+02  0.10100386679E+03  0.00000000000E+00 0.  1.
</event>
<event>
12    1  0.8219652E-002  0.1851493E+03  0.7818608E-02  0.1163108E+00
         21   -1    0    0  503  502  0.00000000000E+00  0.00000000000E+00  0.88269012038E+03  0.88269012038E+03  0.00000000000E+00 0. -1.
         21   -1    0    0  501  503 -0.00000000000E+00 -0.00000000000E+00 -0.40070534818E+02  0.40070534818E+02  0.00000000000E+00 0. -1.
          6    2    1    2  501    0 -0.69205173554E+02  0.31992358212E+01  0.50695950420E+03  0.53942274450E+03  0.17079041901E+03 0.  0.
         24    2    3    3    0    0 -0.19470756372E+02 -0.54558295466E+02  0.19263771721E+03  0.21595756793E+03  0.78566297464E+02 0.  0.
         -6    2    1    2    0  502  0.69205173554E+02 -0.31992358212E+01  0.33566008136E+03  0.38333791070E+03  0.17169936635E+03 0.  0.
        -24    2    5    5    0    0  0.88288975196E+02 -0.78284797130E+00  0.34174247892E+03  0.36262279603E+03  0.83137322018E+02 0.  0.
          5    1    3    3  501    0 -0.49734417182E+02  0.57757531287E+02  0.31432178700E+03  0.32346517657E+03  0.47000000000E+01 0. -1.
        -11    1    4    4    0    0  0.17077988230E+02 -0.35841976973E+01  0.11419886768E+03  0.11552439367E+03  0.00000000000E+00 0.  1.
         12    1    4    4    0    0 -0.36548744602E+02 -0.50974097769E+02  0.78438849531E+02  0.10043317426E+03  0.00000000000E+00 0. -1.
         -5    1    5    5    0  502 -0.19083801641E+02 -0.24163878499E+01 -0.60823975654E+01  0.20715114662E+02  0.47000000000E+01 0.  1.
         11    1    6    6    0    0  0.34047017975E+02  0.15240050724E+02  0.36516189570E+02  0.52200485436E+02  0.00000000000E+00 0. -1.
        -12    1    6    6    0    0  0.54241957221E+02 -0.16022898696E+02  0.30522628935E+03  0.31042231060E+03  0.00000000000E+00 0.  1.
</event>
<event>
12    1  0.8219652E-002  0.1849367E+03  0.7818608E-02  0.1163267E+00
         21   -1    0    0  501  502  0.00000000000E+00  0.00000000000E+00  0.37400953492E+03  0.37400953492E+03  0.00000000000E+00 0. -1.
         21   -1    0    0  502  503 -0.00000000000E+00 -0.00000000000E+00 -0.96359545939E+02  0.96359545939E+02  0.00000000000E+00 0. -1.
         -6    2    1    2    0  503  0.10553042135E+02  0.67007439955E+02  0.84187467709E+02  0.20319718738E+03  0.17204709684E+03 0.  0.
        -24    2    3    3    0    0 -0.26657639929E+02  0.63120581570E+02  0.11382560289E+03  0.15523624926E+03  0.80294381051E+02 0.  0.
          6    2    1    2  501    0 -0.10553042135E+02 -0.67007439955E+02  0.19346252127E+03  0.26717189348E+03  0.17132340710E+03 0.  0.
         24    2    5    5    0    0  0.22357547560E+02 -0.45152664064E+02  0.28053836337E+02  0.97045877848E+02  0.78052941450E+02 0.  0.
          5    1    5    5  501    0 -0.32910589695E+02 -0.21854775891E+02  0.16540868494E+03  0.17012601564E+03  0.47000000000E+01 0. -1.
        -13    1    6    6    0    0 -0.74791199480E+01  0.13402438269E+02 -0.12523903353E+02  0.19809359959E+02  0.00000000000E+00 0.  1.
         14    1    6    6    0    0  0.29836667508E+02 -0.58555102333E+02  0.40577739691E+02  0.77236517889E+02  0.00000000000E+00 0. -1.
         -5    1    3    3    0  503  0.37210682064E+02  0.38868583849E+01 -0.29638135180E+02  0.47960938113E+02  0.47000000000E+01 0.  1.
         11    1    4    4    0    0 -0.20989242159E+02  0.33384820304E+02  0.21089648254E+01  0.39491040070E+02  0.00000000000E+00 0. -1.
        -12    1    4    4    0    0 -0.56683977701E+01  0.29735761266E+02  0.11171663806E+03  0.11574520919E+03  0.00000000000E+00 0.  1.
</event>
<event>
12    1  0.8219652E-002  0.1752012E+03  0.7818608E-02  0.1172676E+00
         21   -1    0    0  501  502  0.00000000000E+00  0.00000000000E+00  0.56928621554E+03  0.56928621554E+03  0.00000000000E+00 0. -1.
         21   -1    0    0  502  503 -0.00000000000E+00 -0.00000000000E+00 -0.68073273976E+02  0.68073273976E+02  0.00000000000E+00 0. -1.
         -6    2    1    2    0  503  0.16652295142E+02 -0.30748591011E+02  0.39650600108E+03  0.43325410605E+03  0.17108283589E+03 0.  0.
        -24    2    3    3    0    0  0.30624750764E+02  0.43302379603E+02  0.17701763053E+03  0.20114204137E+03  0.79434928393E+02 0.  0.
          6    2    1    2  501    0 -0.16652295142E+02  0.30748591011E+02  0.10470694049E+03  0.20410538347E+03  0.17167611771E+03 0.  0.
         24    2    5    5    0    0  0.13590069163E+02  0.80215957707E+02  0.78287106617E+02  0.14021705442E+03  0.83142416596E+02 0.  0.
          5    1    5    5  501    0 -0.30242364305E+02 -0.49467366697E+02  0.26419833872E+02  0.63888329047E+02  0.47000000000E+01 0. -1.
        -11    1    6    6    0    0  0.30385827044E+01  0.63536034855E+02  0.44238879677E+01  0.63762304653E+02  0.00000000000E+00 0.  1.
         12    1    6    6    0    0  0.10551486459E+02  0.16679922852E+02  0.73863218649E+02  0.76454749768E+02  0.00000000000E+00 0. -1.
         -5    1    3    3    0  503 -0.13972455622E+02 -0.74050970614E+02  0.21948837055E+03  0.23211206468E+03  0.47000000000E+01 0.  1.
         13    1    4    4    0    0  0.60605358164E+01  0.61454051780E+02  0.14092094656E+03  0.15385721872E+03  0.00000000000E+00 0. -1.
        -14    1    4    4    0    0  0.24564214947E+02 -0.18151672177E+02  0.36096683970E+02  0.47284822643E+02  0.00000000000E+00 0.  1.
</event>
<event>
12    1  0.8219652E-002  0.1881665E+03  0.7818608E-02  0.1160481E+00
         21   -1    0    0  501  502  0.00000000000E+00  0.00000000000E+00  0.26392116255E+03  0.26392116255E+03  0.00000000000E+00 0. -1.
         21   -1    0    0  502  503 -0.00000000000E+00 -0.00000000000E+00 -0.20415488445E+03  0.20415488445E+03  0.00000000000E+00 0. -1.
         -6    2    1    2    0  503 -0.67675785969E+02  0.26120509907E+02 -0.10831348102E+03  0.21577179281E+03  0.17193999930E+03 0.  0.
        -24    2    3    3    0    0  0.27444225712E+02  0.10731561582E+02 -0.71155250405E+02  0.11239161843E+03  0.81856302715E+02 0.  0.
          6    2    1    2  501    0  0.67675785969E+02 -0.26120509907E+02  0.16807975913E+03  0.25230425418E+03  0.17362124929E+03 0.  0.
         24    2    5    5    0    0  0.60226939307E+02  0.47718230584E+02  0.12323228948E+03  0.16546514751E+03  0.79298197468E+02 0.  0.
          5    1    5    5  501    0  0.74488466627E+01 -0.73838740491E+02  0.44847469647E+02  0.86839106672E+02  0.47000000000E+01 0. -1.
        -11    1    6    6    0    0 -0.39383334162E+01  0.15866571697E+02  0.80304505663E+02  0.81951645483E+02  0.00000000000E+00 0.  1.
         12    1    6    6    0    0  0.64165272723E+02  0.31851658887E+02  0.42927783818E+02  0.83513502028E+02  0.00000000000E+00 0. -1.
         -5    1    3    3    0  503 -0.95120011682E+02  0.15388948325E+02 -0.37158230619E+02  0.10338017438E+03  0.47000000000E+01 0.  1.
         11    1    4    4    0    0 -0.13675078798E+02  0.18923862258E+02  0.64169931183E+01  0.24213594189E+02  0.00000000000E+00 0. -1.
        -12    1    4    4    0    0  0.41119304510E+02 -0.81923006754E+01 -0.77572243524E+02  0.88178024241E+02  0.00000000000E+00 0.  1.
</event>
<event>
12    1  0.8219652E-002  0.1883365E+03  0.7818608E-02  0.1161374E+00
         21   -1    0    0  503  502  0.00000000000E+00  0.00000000000E+00  0.17564599635E+03  0.17564599635E+03  0.00000000000E+00 0. -1.
         21   -1    0    0  501  503 -0.00000000000E+00 -0.00000000000E+00 -0.25842654732E+03  0.25842654732E+03  0.00000000000E+00 0. -1.
          6    2    1    2  501    0 -0.55248865090E+02  0.30769404555E+02  0.65174443100E+02  0.19929463462E+03  0.17740194476E+03 0.  0.
         24    2    3    3    0    0  0.37922806705E+02  0.84921504635E+01  0.51437869824E+02  0.10240283971E+03  0.79562750339E+02 0.  0.
         -6    2    1    2    0  502  0.55248865090E+02 -0.30769404555E+02 -0.14795499407E+03  0.23477790906E+03  0.17097015225E+03 0.  0.
        -24    2    5    5    0    0  0.97427572410E+02 -0.20481193185E+02 -0.70592126069E+02  0.14594101363E+03  0.80024496595E+02 0.  0.
          5    1    3    3  501    0 -0.93171671795E+02  0.22277254091E+02  0.13736573276E+02  0.96891794907E+02  0.47000000000E+01 0. -1.
        -11    1    4    4    0    0  0.25717622240E+02 -0.29219192524E+02  0.19168073423E+01  0.38972188235E+02  0.00000000000E+00 0.  1.
         12    1    4    4    0    0  0.12205184465E+02  0.37711342987E+02  0.49521062482E+02  0.63430651479E+02  0.00000000000E+00 0. -1.
         -5    1    5    5    0  502 -0.42178707321E+02 -0.10288211369E+02 -0.77362868002E+02  0.88836895431E+02  0.47000000000E+01 0.  1.
         11    1    6    6    0    0  0.71925266435E+02 -0.50555009142E+02 -0.53899179470E+02  0.10312213365E+03  0.00000000000E+00 0. -1.
        -12    1    6    6    0    0  0.25502305976E+02  0.30073815957E+02 -0.16692946599E+02  0.42818879977E+02  0.00000000000E+00 0.  1.
</event>
<event>
12    1  0.8219652E-002  0.1757275E+03  0.7818608E-02  0.1172595E+00
         21   -1    0    0  501  502  0.00000000000E+00  0.00000000000E+00  0.43483471631E+03  0.43483471631E+03  0.00000000000E+00 0. -1.
         21   -1    0    0  502  503 -0.00000000000E+00 -0.00000000000E+00 -0.95596822193E+02  0.95596822193E+02  0.00000000000E+00 0. -1.
         -6    2    1    2    0  503  0.10980784185E+02  0.25256734492E+02  0.31731537167E+02  0.17625601895E+03  0.17117480395E+03 0.  0.
        -24    2    3    3    0    0  0.10348031106E+02  0.46194598405E+02 -0.39772724075E+02  0.10159850830E+03  0.80618637039E+02 0.  0.
          6    2    1    2  501    0 -0.10980784185E+02 -0.25256734492E+02  0.30750635695E+03  0.35417551955E+03  0.17355592420E+03 0.  0.
         24    2    5    5    0    0 -0.36918746920E+02 -0.23131584547E+02  0.69391972586E+02  0.11459704762E+03  0.80119744040E+02 0.  0.
          5    1    5    5  501    0  0.25937962735E+02 -0.21251499452E+01  0.23811438436E+03  0.23957847193E+03  0.47000000000E+01 0. -1.
        -13    1    6    6    0    0  0.18508269178E+02 -0.69555239406E+01 -0.50314475333E+01  0.20402225504E+02  0.00000000000E+00 0.  1.
         14    1    6    6    0    0 -0.55427016098E+02 -0.16176060606E+02  0.74423420119E+02  0.94194822111E+02  0.00000000000E+00 0. -1.
         -5    1    3    3    0  503  0.63275307923E+00 -0.20937863913E+02  0.71504261242E+02  0.74657510657E+02  0.47000000000E+01 0.  1.
         11    1    4    4    0    0 -0.11829354248E+02 -0.20060317165E+02 -0.13730900587E+02  0.27034932543E+02  0.00000000000E+00 0. -1.
        -12    1    4    4    0    0  0.22177385354E+02  0.66254915571E+02 -0.26041823488E+02  0.74563575753E+02  0.00000000000E+00 0.  1.
</event>
<event>
12    1  0.8219652E-002  0.2710181E+03  0.7818608E-02  0.1100752E+00
         21   -1    0    0  501  502  0.00000000000E+00  0.00000000000E+00  0.12959668793E+03  0.12959668793E+03  0.00000000000E+00 0.  1.
         21   -1    0    0  502  503 -0.00000000000E+00 -0.00000000000E+00 -0.83587235849E+03  0.83587235849E+03  0.00000000000E+00 0.  1.
         -6    2    1    2    0  503  0.18858988256E+03  0.92201377287E+02 -0.62727790136E+03  0.68317228625E+03  0.17082028388E+03 0.  0.
        -24    2    3    3    0    0  0.15458589869E+03  0.12615887685E+03 -0.56385010194E+03  0.60345680196E+03  0.80126850029E+02 0.  0.
          6    2    1    2  501    0 -0.18858988256E+03 -0.92201377287E+02 -0.78997769197E+02  0.28229676017E+03  0.17141638045E+03 0.  0.
         24    2    5    5    0    0 -0.19505329877E+03 -0.10899530945E+03 -0.94974621431E+02  0.25777816082E+03  0.86623522428E+02 0.  0.
          5    1    5    5  501    0  0.64634162134E+01  0.16793932162E+02  0.15976852234E+02  0.24518599346E+02  0.47000000000E+01 0. -1.
        -13    1    6    6    0    0 -0.89595106477E+02 -0.45134840778E+01 -0.49803640294E+02  0.10260632159E+03  0.00000000000E+00 0.  1.
         14    1    6    6    0    0 -0.10545819229E+03 -0.10448182537E+03 -0.45170981137E+02  0.15517183923E+03  0.00000000000E+00 0. -1.
         -5    1    3    3    0  503  0.34003983868E+02 -0.33957499564E+02 -0.63427799425E+02  0.79715484289E+02  0.47000000000E+01 0.  1.
         11    1    4    4    0    0  0.47961193716E+02  0.24619245820E+02 -0.26349739273E+03  0.26895586876E+03  0.00000000000E+00 0. -1.
        -12    1    4    4    0    0  0.10662470497E+03  0.10153963103E+03 -0.30035270921E+03  0.33450093319E+03  0.00000000000E+00 0.  1.
</event>
<event>
12    1  0.8219652E-002  0.1774248E+03  0.7818608E-02  0.1170788E+00
         21   -1    0    0  503  502  0.00000000000E+00  0.00000000000E+00  0.81608087191E+03  0.81608087191E+03  0.00000000000E+00 0.  1.
         21   -1    0    0  501  503 -0.00000000000E+00 -0.00000000000E+00 -0.40719458651E+02  0.40719458651E+02  0.00000000000E+00 0.  1.
          6    2    1    2  501    0 -0.30067195856E+02  0.20898646299E+02  0.49306273164E+03  0.52337550222E+03  0.17166906918E+03 0.  0.
         24    2    3    3    0    0 -0.76049454972E+02 -0.22212778304E+02  0.32385173421E+03  0.34274489924E+03  0.79480771760E+02 0.  0.
         -6    2    1    2    0  502  0.30067195856E+02 -0.20898646299E+02  0.28229868162E+03  0.33342482834E+03  0.17360524423E+03 0.  0.
        -24    2    5    5    0    0  0.28204927928E+02  0.32759336393E+02  0.25230181326E+03  0.27174379998E+03  0.91212914494E+02 0.  0.
          5    1    3    3  501    0  0.45982259116E+02  0.43111424603E+02  0.16921099743E+03  0.18063060299E+03  0.47000000000E+01 0. -1.
        -11    1    4    4    0    0  0.54962016142E+01 -0.83952924297E+01  0.17398675124E+01  0.10184120292E+02  0.00000000000E+00 0.  1.
         12    1    4    4    0    0 -0.81545656586E+02 -0.13817485875E+02  0.32211186670E+03  0.33256077894E+03  0.00000000000E+00 0. -1.
         -5    1    5    5    0  502  0.18622679281E+01 -0.53657982691E+02  0.29996868356E+02  0.61681028360E+02  0.47000000000E+01 0.  1.
         11    1    6    6    0    0  0.84100156944E+01  0.49677768042E+02  0.63049401476E+02  0.80708339272E+02  0.00000000000E+00 0. -1.
        -12    1    6    6    0    0  0.19794912234E+02 -0.16918431650E+02  0.18925241179E+03  0.19103546070E+03  0.00000000000E+00 0.  1.
</event>
<event>
12    1  0.8219652E-002  0.1987995E+03  0.7818608E-02  0.1151187E+00
         21   -1    0    0  501  502  0.00000000000E+00  0.00000000000E+00  0.17649741636E+02  0.17649741636E+02  0.00000000000E+00 0.  1.
         21   -1    0    0  502  503 -0.00000000000E+00 -0.00000000000E+00 -0.27700790162E+04  0.27700790162E+04  0.00000000000E+00 0. -1.
         -6    2    1    2    0  503  0.22849114638E+02  0.95774482156E+02 -0.20049017064E+04  0.20147337529E+04  0.17270324019E+03 0.  0.
        -24    2    3    3    0    0 -0.54362122056E+02  0.42704119651E+02 -0.11911277085E+04  0.11955706140E+04  0.76321641293E+02 0.  0.
          6    2    1    2  501    0 -0.22849114638E+02 -0.95774482156E+02 -0.74752756813E+03  0.77299500493E+03  0.17037892786E+03 0.  0.
         24    2    5    5    0    0 -0.18888671259E+02 -0.10531595088E+03 -0.74952647648E+03  0.76147066669E+03  0.81236727406E+02 0.  0.
          5    1    5    5  501    0 -0.39604433797E+01  0.95414687257E+01  0.19989083471E+01  0.11524338236E+02  0.47000000000E+01 0. -1.
        -11    1    6    6    0    0 -0.27194800405E+02 -0.82407674637E+02 -0.32942892623E+03  0.34066699201E+03  0.00000000000E+00 0.  1.
         12    1    6    6    0    0  0.83061291461E+01 -0.22908276244E+02 -0.42009755025E+03  0.42080367468E+03  0.00000000000E+00 0. -1.
         -5    1    3    3    0  503  0.77211236694E+02  0.53070362506E+02 -0.81377399790E+03  0.81916313888E+03  0.47000000000E+01 0.  1.
         13    1    4    4    0    0 -0.33484998092E+02 -0.17445369584E+02 -0.54790873841E+03  0.54920813144E+03  0.00000000000E+00 0. -1.
        -14    1    4    4    0    0 -0.20877123964E+02  0.60149489235E+02 -0.64321897011E+03  0.64636248257E+03  0.00000000000E+00 0.  1.
</event>
<event>
12    1  0.8219652E-002  0.2597303E+03  0.7818608E-02  0.1107321E+00
         21   -1    0    0  503  502  0.00000000000E+00  0.00000000000E+00  0.40477760773E+02  0.40477760773E+02  0.00000000000E+00 0.  1.
         21   -1    0    0  501  503 -0.00000000000E+00 -0.00000000000E+00 -0.18491828741E+04  0.18491828741E+04  0.00000000000E+00 0.  1.
          6    2    1    2  501    0 -0.56945980937E+02 -0.18571589455E+03 -0.12019741097E+04  0.12297160699E+04  0.17241407716E+03 0.  0.
         24    2    3    3    0    0 -0.74580715622E+02 -0.20338242192E+03 -0.11304382051E+04  0.11538045049E+04  0.80296994288E+02 0.  0.
         -6    2    1    2    0  502  0.56945980937E+02  0.18571589455E+03 -0.60673100372E+03  0.65994456505E+03  0.17225295302E+03 0.  0.
        -24    2    5    5    0    0 -0.27083075903E+02  0.61373682663E+02 -0.31772649258E+03  0.33426440675E+03  0.79261261697E+02 0.  0.
          5    1    3    3  501    0  0.17634734685E+02  0.17666527367E+02 -0.71535904522E+02  0.75911564945E+02  0.47000000000E+01 0. -1.
        -11    1    4    4    0    0 -0.18703334206E+02 -0.27711805249E+02 -0.36300962554E+03  0.36454594648E+03  0.00000000000E+00 0.  1.
         12    1    4    4    0    0 -0.55877381416E+02 -0.17567061667E+03 -0.76742857959E+03  0.78925855845E+03  0.00000000000E+00 0. -1.
         -5    1    5    5    0  502  0.84029056840E+02  0.12434221189E+03 -0.28900451114E+03  0.32568015830E+03  0.47000000000E+01 0.  1.
         13    1    6    6    0    0 -0.82737950091E+01  0.73566910092E+02 -0.28594757516E+03  0.29537528956E+03  0.00000000000E+00 0. -1.
        -14    1    6    6    0    0 -0.18809280894E+02 -0.12193227429E+02 -0.31778917420E+02  0.38889117183E+02  0.00000000000E+00 0.  1.
</event>
<event>
12    1  0.8219652E-002  0.1806308E+03  0.7818608E-02  0.1167209E+00
         21   -1    0    0  501  502  0.00000000000E+00  0.00000000000E+00  0.18316194002E+03  0.18316194002E+03  0.00000000000E+00 0. -1.
         21   -1    0    0  502  503 -0.00000000000E+00 -0.00000000000E+00 -0.22100183531E+03  0.22100183531E+03  0.00000000000E+00 0. -1.
         -6    2    1    2    0  503 -0.40124615758E+02 -0.41352805513E+02 -0.10798357713E+03  0.21039169641E+03  0.17112619225E+03 0.  0.
        -24    2    3    3    0    0 -0.59488063755E+02 -0.71669245135E+02 -0.11832160807E+03  0.17266909690E+03  0.84494400167E+02 0.  0.
          6    2    1    2  501    0  0.40124615758E+02  0.41352805513E+02  0.70143681835E+02  0.19377207893E+03  0.17119416800E+03 0.  0.
         24    2    5    5    0    0 -0.32959261783E+02  0.61582847912E+02  0.51152251995E+02  0.11545686853E+03  0.76387011414E+02 0.  0.
          5    1    5    5  501    0  0.73083877541E+02 -0.20230042399E+02  0.18991429841E+02  0.78315210395E+02  0.47000000000E+01 0. -1.
        -11    1    6    6    0    0 -0.47120134011E+02  0.12007624377E+02  0.39379395869E+02  0.62571773920E+02  0.00000000000E+00 0.  1.
         12    1    6    6    0    0  0.14160872228E+02  0.49575223534E+02  0.11772856125E+02  0.52885094612E+02  0.00000000000E+00 0. -1.
         -5    1    3    3    0  503  0.19363447998E+02  0.30316439622E+02  0.10338030944E+02  0.37722599506E+02  0.47000000000E+01 0.  1.
         13    1    4    4    0    0 -0.69006394708E+02 -0.19608275827E+02 -0.56699324380E+02  0.91439490247E+02  0.00000000000E+00 0. -1.
        -14    1    4    4    0    0  0.95183309527E+01 -0.52060969307E+02 -0.61622283694E+02  0.81229606653E+02  0.00000000000E+00 0.  1.
</event>
<event>
12    1  0.8219652E-002  0.1781615E+03  0.7818608E-02  0.1169607E+00
         21   -1    0    0  503  502  0.00000000000E+00  0.00000000000E+00  0.46637092263E+03  0.46637092263E+03  0.00000000000E+00 0.  1.
         21   -1    0    0  501  503 -0.00000000000E+00 -0.00000000000E+00 -0.68805166987E+02  0.68805166987E+02  0.00000000000E+00 0.  1.
          6    2    1    2  501    0 -0.38964011108E+02  0.27494574019E+02  0.17062026313E+03  0.24668359624E+03  0.17166064401E+03 0.  0.
         24    2    3    3    0    0  0.49731673930E+01  0.71413621645E+02  0.70338639711E+02  0.12862491424E+03  0.80450025341E+02 0.  0.
         -6    2    1    2    0  502  0.38964011108E+02 -0.27494574019E+02  0.22694549251E+03  0.28849249337E+03  0.17160861401E+03 0.  0.
        -24    2    5    5    0    0 -0.48162152089E+02 -0.25039281960E+02  0.12604158052E+03  0.15507328101E+03  0.72212768463E+02 0.  0.
          5    1    3    3  501    0 -0.43937178501E+02 -0.43919047626E+02  0.10028162342E+03  0.11805868200E+03  0.47000000000E+01 0. -1.
        -11    1    4    4    0    0 -0.21895839524E+02  0.62583040607E+01  0.50516784029E+02  0.55412450107E+02  0.00000000000E+00 0.  1.
         12    1    4    4    0    0  0.26869006917E+02  0.65155317584E+02  0.19821855682E+02  0.73212464136E+02  0.00000000000E+00 0. -1.
         -5    1    5    5    0  502  0.87126163197E+02 -0.24552920587E+01  0.10090391199E+03  0.13341921236E+03  0.47000000000E+01 0.  1.
         13    1    6    6    0    0 -0.49297620550E+02  0.13580411918E+02  0.80291123498E+02  0.95191110364E+02  0.00000000000E+00 0. -1.
        -14    1    6    6    0    0  0.11354684614E+01 -0.38619693878E+02  0.45750457019E+02  0.59882170646E+02  0.00000000000E+00 0.  1.
</event>
<event>
12    1  0.8219652E-002  0.1778692E+03  0.7818608E-02  0.1170048E+00
         21   -1    0    0  501  502  0.00000000000E+00  0.00000000000E+00  0.39672803736E+03  0.39672803736E+03  0.00000000000E+00 0. -1.
         21   -1    0    0  502  503 -0.00000000000E+00 -0.00000000000E+00 -0.92630706052E+02  0.92630706052E+02  0.00000000000E+00 0. -1.
         -6    2    1    2    0  503  0.36979256176E+02 -0.18173209992E+02  0.59480169819E+02  0.18691036483E+03  0.17233648172E+03 0.  0.
        -24    2    3    3    0    0 -0.96833750457E+01 -0.79418367609E+01 -0.26760371295E+02  0.88210805148E+02  0.83115510885E+02 0.  0.
          6    2    1    2  501    0 -0.36979256176E+02  0.18173209992E+02  0.24461716149E+03  0.30244837858E+03  0.17303102341E+03 0.  0.
         24    2    5    5    0    0 -0.66731482660E+02 -0.36298064680E+02  0.11808455247E+03  0.16143452858E+03  0.79664955966E+02 0.  0.
          5    1    5    5  501    0  0.29752226483E+02  0.54471274672E+02  0.12653260902E+03  0.14101385000E+03  0.47000000000E+01 0. -1.
        -11    1    6    6    0    0 -0.42962604947E+02  0.10487835663E+02  0.16697482031E+02  0.47271408134E+02  0.00000000000E+00 0.  1.
         12    1    6    6    0    0 -0.23768877712E+02 -0.46785900343E+02  0.10138707043E+03  0.11416312045E+03  0.00000000000E+00 0. -1.
         -5    1    3    3    0  503  0.46662631222E+02 -0.10231373231E+02  0.86240541113E+02  0.98699559686E+02  0.47000000000E+01 0.  1.
         11    1    4    4    0    0 -0.40200219677E+02  0.95331650192E+01 -0.32517134586E+02  0.52576638720E+02  0.00000000000E+00 0. -1.
        -12    1    4    4    0    0  0.30516844631E+02 -0.17475001780E+02  0.57567632914E+01  0.35634166429E+02  0.00000000000E+00 0.  1.
</event>
<event>
12    1  0.8219652E-002  0.2049417E+03  0.7818608E-02  0.1145636E+00
         21   -1    0    0  503  502  0.00000000000E+00  0.00000000000E+00  0.20430575660E+04  0.20430575660E+04  0.00000000000E+00 0. -1.
         21   -1    0    0  501  503 -0.00000000000E+00 -0.00000000000E+00 -0.26010016728E+02  0.26010016728E+02  0.00000000000E+00 0. -1.
          6    2    1    2  501    0 -0.22914811778E+02  0.10948673846E+03  0.53485168276E+03  0.57277025707E+03  0.17171782182E+03 0.  0.
         24    2    3    3    0    0 -0.52092219885E+02  0.63311518011E+02  0.48598492518E+03  0.49932965438E+03  0.80167378326E+02 0.  0.
         -6    2    1    2    0  502  0.22914811778E+02 -0.10948673846E+03  0.14821958665E+04  0.14962973257E+04  0.17172264144E+03 0.  0.
        -24    2    5    5    0    0  0.72292319654E+02 -0.25666302406E+02  0.79077918698E+03  0.79805444634E+03  0.75327539511E+02 0.  0.
          5    1    3    3  501    0  0.29177408106E+02  0.46175220451E+02  0.48866757581E+02  0.73440602693E+02  0.47000000000E+01 0. -1.
        -11    1    4    4    0    0  0.72468812582E+01 -0.58229145543E+01  0.17568829175E+03  0.17593407708E+03  0.00000000000E+00 0.  1.
         12    1    4    4    0    0 -0.59339101143E+02  0.69134432565E+02  0.31029663343E+03  0.32339557729E+03  0.00000000000E+00 0. -1.
         -5    1    5    5    0  502 -0.49377507875E+02 -0.83820436056E+02  0.69141667955E+03  0.69824287933E+03  0.47000000000E+01 0.  1.
         13    1    6    6    0    0  0.46473359164E+02 -0.49901909506E+02  0.61312358022E+03  0.61690396198E+03  0.00000000000E+00 0. -1.
        -14    1    6    6    0    0  0.25818960490E+02  0.24235607100E+02  0.17765560676E+03  0.18115048437E+03  0.00000000000E+00 0.  1.
</event>
<event>
12    1  0.8219652E-002  0.1865378E+03  0.7818608E-02  0.1161780E+00
         21   -1    0    0  503  502  0.00000000000E+00  0.00000000000E+00  0.86581774605E+02  0.86581774605E+02  0.00000000000E+00 0. -1.
         21   -1    0    0  501  503 -0.00000000000E+00 -0.00000000000E+00 -0.46311218250E+03  0.46311218250E+03  0.00000000000E+00 0.  1.
          6    2    1    2  501    0 -0.71581188353E+02 -0.18994012089E+02 -0.28909357905E+03  0.34368045694E+03  0.17045973134E+03 0.  0.
         24    2    3    3    0    0 -0.10790327671E+03 -0.15011431820E+02 -0.16126762919E+03  0.21065144316E+03  0.80612170729E+02 0.  0.
         -6    2    1    2    0  502  0.71581188353E+02  0.18994012089E+02 -0.87436828841E+02  0.20601350017E+03  0.17120667100E+03 0.  0.
        -24    2    5    5    0    0  0.99989561221E+02  0.46123641318E+02 -0.37598925275E+02  0.14238206876E+03  0.82058952477E+02 0.  0.
          5    1    3    3  501    0  0.36322088357E+02 -0.39825802693E+01 -0.12782594986E+03  0.13302901378E+03  0.47000000000E+01 0. -1.
        -11    1    4    4    0    0 -0.36939252334E+02 -0.40334915977E+02 -0.98153137654E+02  0.11236303770E+03  0.00000000000E+00 0.  1.
         12    1    4    4    0    0 -0.70964024376E+02  0.25323484157E+02 -0.63114491536E+02  0.98288405457E+02  0.00000000000E+00 0. -1.
         -5    1    5    5    0  502 -0.28408372868E+02 -0.27129629229E+02 -0.49837903566E+02  0.63631431407E+02  0.47000000000E+01 0.  1.
         11    1    6    6    0    0  0.41809752685E+02  0.34721908653E+02  0.21709087850E+02  0.58523079681E+02  0.00000000000E+00 0. -1.
        -12    1    6    6    0    0  0.58179808535E+02  0.11401732666E+02 -0.59308013125E+02  0.83858989082E+02  0.00000000000E+00 0.  1.
</event>
<event>
12    1  0.8219652E-002  0.3466325E+03  0.7818608E-02  0.1064235E+00
         21   -1    0    0  503  502  0.00000000000E+00  0.00000000000E+00  0.52298205554E+03  0.52298205554E+03  0.00000000000E+00 0. -1.
         21   -1    0    0  501  503 -0.00000000000E+00 -0.00000000000E+00 -0.76863028305E+03  0.76863028305E+03  0.00000000000E+00 0.  1.
          6    2    1    2  501    0  0.23795814901E+03 -0.18395769338E+03 -0.66417854573E+03  0.74817726074E+03  0.16784385375E+03 0.  0.
         24    2    3    3    0    0  0.13654263781E+03 -0.56636882167E+02 -0.23118079414E+03  0.28557069165E+03  0.79084966893E+02 0.  0.
         -6    2    1    2    0  502 -0.23795814901E+03  0.18395769338E+03  0.41853031822E+03  0.54343507785E+03  0.17230653772E+03 0.  0.
        -24    2    5    5    0    0 -0.17725349967E+03  0.73031385989E+02  0.21410914144E+03  0.30301917231E+03  0.96049507307E+02 0.  0.
          5    1    3    3  501    0  0.10141551119E+03 -0.12732081122E+03 -0.43299775159E+03  0.46260656909E+03  0.47000000000E+01 0. -1.
        -13    1    4    4    0    0  0.10830322525E+03 -0.70202001144E+02 -0.21381940203E+03  0.24975317064E+03  0.00000000000E+00 0.  1.
         14    1    4    4    0    0  0.28239412566E+02  0.13565118977E+02 -0.17361392110E+02  0.35817521005E+02  0.00000000000E+00 0. -1.
         -5    1    5    5    0  502 -0.60704649335E+02  0.11092630740E+03  0.20442117678E+03  0.24041590555E+03  0.47000000000E+01 0.  1.
         11    1    6    6    0    0 -0.30654285352E+02  0.57639959049E+02  0.84155809940E+02  0.10650939131E+03  0.00000000000E+00 0. -1.
        -12    1    6    6    0    0 -0.14659921432E+03  0.15391426940E+02  0.12995333149E+03  0.19650978100E+03  0.00000000000E+00 0.  1.
</event>
<event>
12    1  0.8219652E-002  0.3133509E+03  0.7818608E-02  0.1078862E+00
         21   -1    0    0  503  502  0.00000000000E+00  0.00000000000E+00  0.30734505789E+03  0.30734505789E+03  0.00000000000E+00 0. -1.
         21   -1    0    0  501  503 -0.00000000000E+00 -0.00000000000E+00 -0.31868355568E+03  0.31868355568E+03  0.00000000000E+00 0. -1.
          6    2    1    2  501    0  0.25969979126E+03 -0.24353430798E+02  0.14253827291E+01  0.31335414163E+03  0.17364249247E+03 0.  0.
         24    2    3    3    0    0  0.13614846060E+03 -0.43171591040E+02  0.72858435466E+02  0.16932697237E+03  0.54434202095E+02 0.  0.
         -6    2    1    2    0  502 -0.25969979126E+03  0.24353430798E+02 -0.12763880521E+02  0.31267447194E+03  0.17194574024E+03 0.  0.
        -24    2    5    5    0    0 -0.12631884084E+03  0.73315574156E+02 -0.34108371025E+02  0.16891965744E+03  0.77710016932E+02 0.  0.
          5    1    3    3  501    0  0.12355133066E+03  0.18818160242E+02 -0.71433052737E+02  0.14402716926E+03  0.47000000000E+01 0. -1.
        -11    1    4    4    0    0  0.32434197163E+01 -0.11026193387E+02  0.19323686802E+02  0.22483362375E+02  0.00000000000E+00 0.  1.
         12    1    4    4    0    0  0.13290504088E+03 -0.32145397652E+02  0.53534748664E+02  0.14684361000E+03  0.00000000000E+00 0. -1.
         -5    1    5    5    0  502 -0.13338095042E+03 -0.48962143358E+02  0.21344490504E+02  0.14375481450E+03  0.47000000000E+01 0.  1.
         11    1    6    6    0    0 -0.11089528515E+03  0.57727564768E+02  0.38523819477E+01  0.12508028161E+03  0.00000000000E+00 0. -1.
        -12    1    6    6    0    0 -0.15423555694E+02  0.15588009388E+02 -0.37960752972E+02  0.43839375830E+02  0.00000000000E+00 0.  1.
</event>
<event>
12    1  0.8219652E-002  0.1727144E+03  0.7818608E-02  0.1175693E+00
         21   -1    0    0  503  502  0.00000000000E+00  0.00000000000E+00  0.11199360331E+04  0.11199360331E+04  0.00000000000E+00 0.  1.
         21   -1    0    0  501  503 -0.00000000000E+00 -0.00000000000E+00 -0.16090853880E+03  0.16090853880E+03  0.00000000000E+00 0.  1.
          6    2    1    2  501    0 -0.41794365047E+01  0.11287489377E+02 -0.10691707263E+03  0.20099825553E+03  0.16977680407E+03 0.  0.
         24    2    3    3    0    0 -0.23313712636E+02 -0.30311094613E+02 -0.12475508498E+03  0.15163382098E+03  0.77244370561E+02 0.  0.
         -6    2    1    2    0  502  0.41794365047E+01 -0.11287489377E+02  0.10659445669E+04  0.10798463163E+04  0.17229443434E+03 0.  0.
        -24    2    5    5    0    0  0.21361692773E+02 -0.28380510271E+02  0.39241956667E+03  0.40586900424E+03  0.97338363528E+02 0.  0.
          5    1    3    3  501    0  0.19134276131E+02  0.41598583990E+02  0.17838012359E+02  0.49364434545E+02  0.47000000000E+01 0. -1.
        -13    1    4    4    0    0 -0.17237634778E+01  0.44543381425E+01 -0.10686294806E+03  0.10696963194E+03  0.00000000000E+00 0.  1.
         14    1    4    4    0    0 -0.21589949158E+02 -0.34765432756E+02 -0.17892136922E+02  0.44664189044E+02  0.00000000000E+00 0. -1.
         -5    1    5    5    0  502 -0.17182256268E+02  0.17093020894E+02  0.67352500023E+03  0.67397731210E+03  0.47000000000E+01 0.  1.
         11    1    6    6    0    0 -0.23366587147E+02 -0.16462142933E+01  0.23124945685E+02  0.32916113521E+02  0.00000000000E+00 0. -1.
        -12    1    6    6    0    0  0.44728279920E+02 -0.26734295978E+02  0.36929462098E+03  0.37295289072E+03  0.00000000000E+00 0.  1.
</event>
<event>
12    1  0.8219652E-002  0.2252430E+03  0.7818608E-02  0.1130324E+00
         21   -1    0    0  503  502  0.00000000000E+00  0.00000000000E+00  0.14915424405E+03  0.14915424405E+03  0.00000000000E+00 0. -1.
         21   -1    0    0  501  503 -0.00000000000E+00 -0.00000000000E+00 -0.33851580109E+03  0.33851580109E+03  0.00000000000E+00 0. -1.
          6    2    1    2  501    0  0.11284022529E+03 -0.92365185316E+02 -0.10671741762E+03  0.24924490810E+03  0.17166878892E+03 0.  0.
         24    2    3    3    0    0  0.80464016624E+02 -0.43899413657E+02  0.38786523669E+01  0.12414202802E+03  0.83633621739E+02 0.  0.
         -6    2    1    2    0  502 -0.11284022529E+03  0.92365185316E+02 -0.82644139421E+02  0.23842513703E+03  0.16956487928E+03 0.  0.
        -24    2    5    5    0    0 -0.40599490580E+02  0.11252974200E+03 -0.78201274435E+02  0.16314458080E+03  0.78673079585E+02 0.  0.
          5    1    3    3  501    0  0.32376208668E+02 -0.48465771659E+02 -0.11059606998E+03  0.12510288009E+03  0.47000000000E+01 0. -1.
        -13    1    4    4    0    0 -0.11160593797E+02 -0.92264260064E+01  0.20171250046E+02  0.24830729332E+02  0.00000000000E+00 0.  1.
         14    1    4    4    0    0  0.91624610421E+02 -0.34672987650E+02 -0.16292597679E+02  0.99311298685E+02  0.00000000000E+00 0. -1.
         -5    1    5    5    0  502 -0.72240734712E+02 -0.20164556681E+02 -0.44428649862E+01  0.75280556236E+02  0.47000000000E+01 0.  1.
         11    1    6    6    0    0 -0.63789025866E+02  0.69974846545E+02 -0.50110052916E+02  0.10712859736E+03  0.00000000000E+00 0. -1.
        -12    1    6    6    0    0  0.23189535286E+02  0.42554895452E+02 -0.28091221519E+02  0.56015983434E+02  0.00000000000E+00 0.  1.
</event>
<event>
12    1  0.8219652E-002  0.2615179E+03  0.7818608E-02  0.1107036E+00
         21   -1    0    0  503  502  0.00000000000E+00  0.00000000000E+00  0.66754497020E+02  0.66754497020E+02  0.00000000000E+00 0.  1.
         21   -1    0    0  501  503 -0.00000000000E+00 -0.00000000000E+00 -0.10528688787E+04  0.10528688787E+04  0.00000000000E+00 0.  1.
          6    2    1    2  501    0  0.31037488142E+02 -0.19350179762E+03 -0.60906366755E+03  0.66075642845E+03  0.16502798325E+03 0.  0.
         24    2    3    3    0    0 -0.39165403755E+02 -0.74469870422E+02 -0.31764864242E+03  0.33820123535E+03  0.79998281921E+02 0.  0.
         -6    2    1    2    0  502 -0.31037488142E+02  0.19350179762E+03 -0.37705071413E+03  0.45886694727E+03  0.17316282199E+03 0.  0.
        -24    2    5    5    0    0 -0.81218047465E+02  0.13084430821E+03 -0.20051466307E+03  0.26487953315E+03  0.78983749916E+02 0.  0.
          5    1    3    3  501    0  0.70202891897E+02 -0.11903192720E+03 -0.29141502514E+03  0.32255519310E+03  0.47000000000E+01 0. -1.
        -11    1    4    4    0    0  0.14484842216E+02 -0.35725783021E+02 -0.19562834745E+03  0.19939055281E+03  0.00000000000E+00 0.  1.
         12    1    4    4    0    0 -0.53650245971E+02 -0.38744087401E+02 -0.12202029497E+03  0.13881068253E+03  0.00000000000E+00 0. -1.
         -5    1    5    5    0  502  0.50180559323E+02  0.62657489410E+02 -0.17653605106E+03  0.19398741412E+03  0.47000000000E+01 0.  1.
         11    1    6    6    0    0  0.73899150541E+01  0.42896916911E+02 -0.81499872856E+02  0.92395809431E+02  0.00000000000E+00 0. -1.
        -12    1    6    6    0    0 -0.88607962519E+02  0.87947391300E+02 -0.11901479021E+03  0.17248372372E+03  0.00000000000E+00 0.  1.
</event>
<event>
12    1  0.8219652E-002  0.3154006E+03  0.7818608E-02  0.1078044E+00
         21   -1    0    0  503  502  0.00000000000E+00  0.00000000000E+00  0.43501185225E+02  0.43501185225E+02  0.00000000000E+00 0. -1.
         21   -1    0    0  501  503 -0.00000000000E+00 -0.00000000000E+00 -0.22849741554E+04  0.22849741554E+04  0.00000000000E+00 0.  1.
          6    2    1    2  501    0 -0.23264094133E+02  0.25967814390E+03 -0.12161004149E+04  0.12563350426E+04  0.17749243255E+03 0.  0.
         24    2    3    3    0    0  0.36318755330E+02  0.10573798064E+03 -0.73139409417E+03  0.74427059628E+03  0.80633907033E+02 0.  0.
         -6    2    1    2    0  502  0.23264094133E+02 -0.25967814390E+03 -0.10253725552E+04  0.10721402980E+04  0.17355686407E+03 0.  0.
        -24    2    5    5    0    0  0.71252736561E+02 -0.18347954528E+03 -0.58060091377E+03  0.61831980564E+03  0.80500092992E+02 0.  0.
          5    1    3    3  501    0 -0.59582849464E+02  0.15394016326E+03 -0.48470632078E+03  0.51206444635E+03  0.47000000000E+01 0. -1.
        -11    1    4    4    0    0  0.40116667538E+02  0.11805393470E+03 -0.64799195705E+03  0.65987851527E+03  0.00000000000E+00 0.  1.
         12    1    4    4    0    0 -0.37979122079E+01 -0.12315954056E+02 -0.83402137117E+02  0.84392081009E+02  0.00000000000E+00 0. -1.
         -5    1    5    5    0  502 -0.47988642428E+02 -0.76198598627E+02 -0.44477164144E+03  0.45382049233E+03  0.47000000000E+01 0.  1.
         13    1    6    6    0    0  0.75459208293E+02 -0.19025827252E+03 -0.55910836587E+03  0.59539437952E+03  0.00000000000E+00 0. -1.
        -14    1    6    6    0    0 -0.42064717319E+01  0.67787272429E+01 -0.21492547897E+02  0.22925426115E+02  0.00000000000E+00 0.  1.
</event>
<event>
12    1  0.8219652E-002  0.2622532E+03  0.7818608E-02  0.1105827E+00
         21   -1    0    0  501  502  0.00000000000E+00  0.00000000000E+00  0.51198969202E+03  0.51198969202E+03  0.00000000000E+00 0.  1.
         21   -1    0    0  502  503 -0.00000000000E+00 -0.00000000000E+00 -0.28857865056E+03  0.28857865056E+03  0.00000000000E+00 0. -1.
         -6    2    1    2    0  503  0.71499137029E+02  0.18478233551E+03 -0.18102059813E+03  0.31866157329E+03  0.17181415318E+03 0.  0.
        -24    2    3    3    0    0  0.19750813152E+02  0.17478543143E+03 -0.18177216630E+03  0.26574199307E+03  0.81471742232E+02 0.  0.
          6    2    1    2  501    0 -0.71499137029E+02 -0.18478233551E+03  0.40443163959E+03  0.48190676929E+03  0.17150086027E+03 0.  0.
         24    2    5    5    0    0  0.14240981526E+02 -0.65150436948E+02  0.23455600611E+03  0.25708910999E+03  0.81430371997E+02 0.  0.
          5    1    5    5  501    0 -0.85740118554E+02 -0.11963189856E+03  0.16987563348E+03  0.22481765930E+03  0.47000000000E+01 0. -1.
        -11    1    6    6    0    0  0.27777302472E+02 -0.77357456559E+02  0.21585600019E+03  0.23097525286E+03  0.00000000000E+00 0.  1.
         12    1    6    6    0    0 -0.13536320946E+02  0.12207019611E+02  0.18700005923E+02  0.26113857127E+02  0.00000000000E+00 0. -1.
         -5    1    3    3    0  503  0.51748323877E+02  0.99969040808E+01  0.75156817146E+00  0.52919580214E+02  0.47000000000E+01 0.  1.
         11    1    4    4    0    0  0.51451678921E+01  0.84457604694E+02 -0.32467060501E+02  0.90629298579E+02  0.00000000000E+00 0. -1.
        -12    1    4    4    0    0  0.14605645259E+02  0.90327826731E+02 -0.14930510580E+03  0.17511269449E+03  0.00000000000E+00 0.  1.
</event>
<event>
12    1  0.8219652E-002  0.3000453E+03  0.7818608E-02  0.1085462E+00
         21   -1    0    0  501  502  0.00000000000E+00  0.00000000000E+00  0.44536574596E+03  0.44536574596E+03  0.00000000000E+00 0.  1.
         21   -1    0    0  502  503 -0.00000000000E+00 -0.00000000000E+00 -0.22340672040E+03  0.22340672040E+03  0.00000000000E+00 0.  1.
         -6    2    1    2    0  503 -0.19204746931E+03 -0.15072456480E+03  0.43691944492E+01  0.29813449342E+03  0.17107004824E+03 0.  0.
        -24    2    3    3    0    0 -0.67571534848E+02 -0.12727628330E+03  0.34325900201E+02  0.16789020608E+03  0.79017018804E+02 0.  0.
          6    2    1    2  501    0  0.19204746931E+03  0.15072456480E+03  0.21758983111E+03  0.37063797293E+03  0.17443350444E+03 0.  0.
         24    2    5    5    0    0  0.14808567050E+03  0.16600689403E+03  0.22167748957E+03  0.32368067006E+03  0.78362057867E+02 0.  0.
          5    1    5    5  501    0  0.43961798816E+02 -0.15282329227E+02 -0.40876584618E+01  0.46957302877E+02  0.47000000000E+01 0. -1.
        -11    1    6    6    0    0  0.39344256278E+02  0.98793462805E+02  0.12000811239E+03  0.16034358682E+03  0.00000000000E+00 0.  1.
         12    1    6    6    0    0  0.10874141422E+03  0.67213431225E+02  0.10166937718E+03  0.16333708324E+03  0.00000000000E+00 0. -1.
         -5    1    3    3    0  503 -0.12447593447E+03 -0.23448281506E+02 -0.29956705751E+02  0.13024428735E+03  0.47000000000E+01 0.  1.
         11    1    4    4    0    0  0.43024066192E+01 -0.57748308395E+02  0.35424304600E+02  0.67884160020E+02  0.00000000000E+00 0. -1.
        -12    1    4    4    0    0 -0.71873941467E+02 -0.69527974902E+02 -0.10984043991E+01  0.10000604606E+03  0.00000000000E+00 0.  1.
</event>
<event>
12    1  0.8219652E-002  0.2016089E+03  0.7818608E-02  0.1148992E+00
         21   -1    0    0  501  502  0.00000000000E+00  0.00000000000E+00  0.63772944264E+03  0.63772944264E+03  0.00000000000E+00 0. -1.
         21   -1    0    0  502  503 -0.00000000000E+00 -0.00000000000E+00 -0.83237894895E+02  0.83237894895E+02  0.00000000000E+00 0. -1.
         -6    2    1    2    0  503  0.88450258439E+02 -0.56387359008E+02  0.97261867042E+02  0.22126229796E+03  0.16880210675E+03 0.  0.
        -24    2    3    3    0    0  0.99817540083E+01 -0.69461037780E+02  0.92591082469E+02  0.14143665363E+03  0.80664411321E+02 0.  0.
          6    2    1    2  501    0 -0.88450258439E+02  0.56387359008E+02  0.45722968070E+03  0.49970503958E+03  0.17217190012E+03 0.  0.
         24    2    5    5    0    0 -0.10755109480E+02  0.32093719234E+02  0.99853518642E+02  0.13314463758E+03  0.81308610469E+02 0.  0.
          5    1    5    5  501    0 -0.77695148958E+02  0.24293639774E+02  0.35737616206E+03  0.36656040200E+03  0.47000000000E+01 0. -1.
        -13    1    6    6    0    0 -0.28274012846E+02  0.48139552248E+02  0.39800216027E+02  0.68563062131E+02  0.00000000000E+00 0.  1.
         14    1    6    6    0    0  0.17518903366E+02 -0.16045833013E+02  0.60053302615E+02  0.64581575447E+02  0.00000000000E+00 0. -1.
         -5    1    3    3    0  503  0.78468504430E+02  0.13073678772E+02  0.46707845728E+01  0.79825644330E+02  0.47000000000E+01 0.  1.
         11    1    4    4    0    0  0.32787067911E+02  0.98328362102E+00  0.26067656822E+02  0.41898465379E+02  0.00000000000E+00 0. -1.
        -12    1    4    4    0    0 -0.22805313903E+02 -0.70444321401E+02  0.66523425647E+02  0.99538188247E+02  0.00000000000E+00 0.  1.
</event>
<event>
12    1  0.8219652E-002  0.1861751E+03  0.7818608E-02  0.1162416E+00
         21   -1    0    0  501  502  0.00000000000E+00  0.00000000000E+00  0.13630242617E+03  0.13630242617E+03  0.00000000000E+00 0. -1.
         21   -1    0    0  502  503 -0.00000000000E+00 -0.00000000000E+00 -0.26259634497E+03  0.26259634497E+03  0.00000000000E+00 0. -1.
         -6    2    1    2    0  503  0.69502569567E+02  0.56536787645E+01 -0.10361495226E+03  0.21134745011E+03  0.17049667175E+03 0.  0.
        -24    2    3    3    0    0  0.83455572374E+02 -0.42413080633E+02 -0.10601773595E+03  0.16101889941E+03  0.76965080803E+02 0.  0.
          6    2    1    2  501    0 -0.69502569567E+02 -0.56536787645E+01 -0.22678966548E+02  0.18755132103E+03  0.17262268459E+03 0.  0.
         24    2    5    5    0    0  0.17130166847E+02 -0.35363293516E+02  0.11707659313E+02  0.89610408914E+02  0.79680304685E+02 0.  0.
          5    1    5    5  501    0 -0.86632736415E+02  0.29709614751E+02 -0.34386625861E+02  0.97940912113E+02  0.47000000000E+01 0. -1.
        -13    1    6    6    0    0 -0.10076614976E+02  0.21451515527E+02 -0.54573305774E+01  0.24320529287E+02  0.00000000000E+00 0.  1.
         14    1    6    6    0    0  0.27206781823E+02 -0.56814809043E+02  0.17164989890E+02  0.65289879627E+02  0.00000000000E+00 0. -1.
         -5    1    3    3    0  503 -0.13953002806E+02  0.48066759398E+02  0.24027836952E+01  0.50328550702E+02  0.47000000000E+01 0.  1.
         11    1    4    4    0    0  0.30551012916E+02 -0.52485640633E+02 -0.82028685369E+02  0.10206278502E+03  0.00000000000E+00 0. -1.
        -12    1    4    4    0    0  0.52904559457E+02  0.10072560000E+02 -0.23989050581E+02  0.58956114391E+02  0.00000000000E+00 0.  1.
</event>
<event>
12    1  0.8219652E-002  0.2076309E+03  0.7818608E-02  0.1143926E+00
         21   -1    0    0  503  502  0.00000000000E+00  0.00000000000E+00  0.51910582788E+03  0.51910582788E+03  0.00000000000E+00 0. -1.
         21   -1    0    0  501  503 -0.00000000000E+00 -0.00000000000E+00 -0.87960620949E+03  0.87960620949E+03  0.00000000000E+00 0. -1.
          6    2    1    2  501    0  0.73507415234E+02 -0.93189079977E+02 -0.84606463622E+03  0.87061807373E+03  0.16751990007E+03 0.  0.
         24    2    3    3    0    0 -0.16004674678E+02 -0.12808099804E+02 -0.29078218790E+03  0.30243306546E+03  0.80568487942E+02 0.  0.
         -6    2    1    2    0  502 -0.73507415234E+02  0.93189079977E+02  0.48556425462E+03  0.52809396364E+03  0.17036151075E+03 0.  0.
        -24    2    5    5    0    0 -0.84741676069E+02  0.11562732258E+02  0.20811311910E+03  0.23862843571E+03  0.79483404225E+02 0.  0.
          5    1    3    3  501    0  0.89512089912E+02 -0.80380980173E+02 -0.55528244832E+03  0.56818500827E+03  0.47000000000E+01 0. -1.
        -11    1    4    4    0    0 -0.26241570793E+02  0.78715754198E+01 -0.26997786788E+03  0.27136438765E+03  0.00000000000E+00 0.  1.
         12    1    4    4    0    0  0.10236896115E+02 -0.20679675223E+02 -0.20804320020E+02  0.31068677811E+02  0.00000000000E+00 0. -1.
         -5    1    5    5    0  502  0.11234260835E+02  0.81626347719E+02  0.27745113552E+03  0.28946552793E+03  0.47000000000E+01 0.  1.
         11    1    6    6    0    0  0.23715607143E+01  0.10552485330E+02  0.96187847153E+02  0.96794014210E+02  0.00000000000E+00 0. -1.
        -12    1    6    6    0    0 -0.87113236783E+02  0.10102469275E+01  0.11192527195E+03  0.14183442150E+03  0.00000000000E+00 0.  1.
</event>
<event>
12    1  0.8219652E-002  0.1817265E+03  0.7818608E-02  0.1166298E+00
         21   -1    0    0  503  502  0.00000000000E+00  0.00000000000E+00  0.24386009542E+03  0.24386009542E+03  0.00000000000E+00 0.  1.
         21   -1    0    0  501  503 -0.00000000000E+00 -0.00000000000E+00 -0.14127181642E+03  0.14127181642E+03  0.00000000000E+00 0. -1.
          6    2    1    2  501    0 -0.54291996134E+02 -0.21788199888E+02  0.10435435785E+02  0.18137547749E+03  0.17136457924E+03 0.  0.
         24    2    3    3    0    0 -0.43280349271E+02 -0.25123044414E+02  0.71282837773E+02  0.11927174263E+03  0.81487113314E+02 0.  0.
         -6    2    1    2    0  502  0.54291996134E+02  0.21788199888E+02  0.92152843219E+02  0.20375643435E+03  0.17205287421E+03 0.  0.
        -24    2    5    5    0    0 -0.30739163180E+02 -0.22264695978E+02  0.33003411014E+02  0.91098984443E+02  0.75955164328E+02 0.  0.
          5    1    3    3  501    0 -0.11011646863E+02  0.33348445259E+01 -0.60847401988E+02  0.62103734858E+02  0.47000000000E+01 0. -1.
        -13    1    4    4    0    0 -0.62672511975E+02 -0.35915302520E+02  0.62083553490E+02  0.95247678849E+02  0.00000000000E+00 0.  1.
         14    1    4    4    0    0  0.19392162704E+02  0.10792258106E+02  0.91992842836E+01  0.24024063784E+02  0.00000000000E+00 0. -1.
         -5    1    5    5    0  502  0.85031159313E+02  0.44052895866E+02  0.59149432205E+02  0.11265744990E+03  0.47000000000E+01 0.  1.
         11    1    6    6    0    0  0.29410859632E+01 -0.24509398083E+02 -0.17567075133E+02  0.30297899428E+02  0.00000000000E+00 0. -1.
        -12    1    6    6    0    0 -0.33680249143E+02  0.22447021048E+01  0.50570486147E+02  0.60801085015E+02  0.00000000000E+00 0.  1.
</event>
<event>
12    1  0.8219652E-002  0.2768876E+03  0.7818608E-02  0.1097559E+00
         21   -1    0    0  501  502  0.00000000000E+00  0.00000000000E+00  0.34477179061E+02  0.34477179061E+02  0.00000000000E+00 0. -1.
         21   -1    0    0  502  503 -0.00000000000E+00 -0.00000000000E+00 -0.24014431955E+04  0.24014431955E+04  0.00000000000E+00 0. -1.
         -6    2    1    2    0  503  0.11512903223E+02  0.21592685387E+03 -0.15254886374E+04  0.15504135961E+04  0.17294445048E+03 0.  0.
        -24    2    3    3    0    0 -0.33571350842E+02  0.99825476986E+02 -0.10728108429E+04  0.10808910776E+04  0.79437117766E+02 0.  0.
          6    2    1    2  501    0 -0.11512903223E+02 -0.21592685387E+03 -0.84147737897E+03  0.88550677840E+03  0.17111727589E+03 0.  0.
         24    2    5    5    0    0 -0.47579426252E+02 -0.13040336358E+03 -0.68547400102E+03  0.70391876831E+03  0.79738242222E+02 0.  0.
          5    1    5    5  501    0  0.36066523030E+02 -0.85523490293E+02 -0.15600337795E+03  0.18158801009E+03  0.47000000000E+01 0. -1.
        -13    1    6    6    0    0 -0.40739120504E+01  0.75895271574E+01 -0.11713842794E+03  0.11745471034E+03  0.00000000000E+00 0.  1.
         14    1    6    6    0    0 -0.43505514202E+02 -0.13799289074E+03 -0.56833557308E+03  0.58646405797E+03  0.00000000000E+00 0. -1.
         -5    1    3    3    0  503  0.45084254064E+02  0.11610137689E+03 -0.45267779455E+03  0.46952251848E+03  0.47000000000E+01 0.  1.
         11    1    4    4    0    0  0.12220303559E+02  0.59325301772E+02 -0.74282568011E+03  0.74529109634E+03  0.00000000000E+00 0. -1.
        -12    1    4    4    0    0 -0.45791654401E+02  0.40500175214E+02 -0.32998516277E+03  0.33559998131E+03  0.00000000000E+00 0.  1.
</event>
<event>
12    1  0.8219652E-002  0.1809809E+03  0.7818608E-02  0.1167002E+00
         21   -1    0    0  501  502  0.00000000000E+00  0.00000000000E+00  0.15849516195E+03  0.15849516195E+03  0.00000000000E+00 0. -1.
         21   -1    0    0  502  503 -0.00000000000E+00 -0.00000000000E+00 -0.22570693587E+03  0.22570693587E+03  0.00000000000E+00 0. -1.
         -6    2    1    2    0  503 -0.55380190745E+02 -0.13663409874E+01 -0.90463923294E+02  0.20233093912E+03  0.17229409477E+03 0.  0.
        -24    2    3    3    0    0 -0.95593369365E+02 -0.11204508643E+02 -0.30032431115E+02  0.12892831979E+03  0.80355033725E+02 0.  0.
          6    2    1    2  501    0  0.55380190745E+02  0.13663409874E+01  0.23252149373E+02  0.18187115870E+03  0.17166136287E+03 0.  0.
         24    2    5    5    0    0 -0.33089232903E+02 -0.65969779970E+01  0.16305747848E+02  0.92648987333E+02  0.84732166195E+02 0.  0.
          5    1    5    5  501    0  0.88469423648E+02  0.79633189844E+01  0.69464015248E+01  0.89222171370E+02  0.47000000000E+01 0. -1.
        -13    1    6    6    0    0 -0.57268291222E+01  0.29974919122E+02  0.32127737299E+02  0.44311215873E+02  0.00000000000E+00 0.  1.
         14    1    6    6    0    0 -0.27362403780E+02 -0.36571897119E+02 -0.15821989451E+02  0.48337771460E+02  0.00000000000E+00 0. -1.
         -5    1    3    3    0  503  0.40213178619E+02  0.98381676558E+01 -0.60431492179E+02  0.73402619330E+02  0.47000000000E+01 0.  1.
         11    1    4    4    0    0 -0.60933234380E+02  0.24959483429E+02 -0.41110120560E+02  0.77626521741E+02  0.00000000000E+00 0. -1.
        -12    1    4    4    0    0 -0.34660134984E+02 -0.36163992072E+02  0.11077689445E+02  0.51301798050E+02  0.00000000000E+00 0.  1.
</event>
<event>
12    1  0.8219652E-002  0.2079441E+03  0.7818608E-02  0.1143353E+00
         21   -1    0    0  501  502  0.00000000000E+00  0.00000000000E+00  0.34167315328E+02  0.34167315328E+02  0.00000000000E+00 0.  1.
         21   -1    0    0  502  503 -0.00000000000E+00 -0.00000000000E+00 -0.13336760933E+04  0.13336760933E+04  0.00000000000E+00 0.  1.
         -6    2    1    2    0  503  0.11777195535E+03  0.19687028913E+01 -0.80824266659E+03  0.83438004967E+03  0.17046920523E+03 0.  0.
        -24    2    3    3    0    0  0.71496712082E+02  0.11092370214E+01 -0.75437501967E+03  0.76320456087E+03  0.91030331119E+02 0.  0.
          6    2    1    2  501    0 -0.11777195535E+03 -0.19687028913E+01 -0.49126611136E+03  0.53346335893E+03  0.17136701520E+03 0.  0.
         24    2    5    5    0    0  0.52516179984E+01 -0.11529842728E+02 -0.13496418861E+03  0.15637004801E+03  0.77947052163E+02 0.  0.
          5    1    5    5  501    0 -0.12302357335E+03  0.95611398371E+01 -0.35630192274E+03  0.37709331093E+03  0.47000000000E+01 0. -1.
        -13    1    6    6    0    0 -0.12561016933E+02  0.28950752534E+02 -0.35396393886E+02  0.47421829560E+02  0.00000000000E+00 0.  1.
         14    1    6    6    0    0  0.17812634931E+02 -0.40480595263E+02 -0.99567794727E+02  0.10894821845E+03  0.00000000000E+00 0. -1.
         -5    1    3    3    0  503  0.46275243269E+02  0.85946586989E+00 -0.53867646917E+02  0.71175488798E+02  0.47000000000E+01 0.  1.
         13    1    4    4    0    0 -0.11613727860E+01  0.17582115866E+02 -0.28437374566E+02  0.33453906458E+02  0.00000000000E+00 0. -1.
        -14    1    4    4    0    0  0.72658084868E+02 -0.16472878845E+02 -0.72593764510E+03  0.72975065441E+03  0.00000000000E+00 0.  1.
</event>
<event>
12    1  0.8219652E-002  0.1805170E+03  0.7818608E-02  0.1168005E+00
         21   -1    0    0  503  502  0.00000000000E+00  0.00000000000E+00  0.17741346519E+03  0.17741346519E+03  0.00000000000E+00 0. -1.
         21   -1    0    0  501  503 -0.00000000000E+00 -0.00000000000E+00 -0.21920254878E+03  0.21920254878E+03  0.00000000000E+00 0. -1.
          6    2    1    2  501    0  0.53033400216E+02  0.13885725599E+02  0.62019422495E+02  0.19087374759E+03  0.17199134815E+03 0.  0.
         24    2    3    3    0    0  0.17361650602E+02  0.58896689844E+02  0.81938027108E+02  0.12990407125E+03  0.79943607970E+02 0.  0.
         -6    2    1    2    0  502 -0.53033400216E+02 -0.13885725599E+02 -0.10380850608E+03  0.20574226638E+03  0.16896247905E+03 0.  0.
        -24    2    5    5    0    0 -0.44837549279E+02  0.55988818022E+02 -0.39052773820E+02  0.11000816233E+03  0.73698867473E+02 0.  0.
          5    1    3    3  501    0  0.35671749614E+02 -0.45010964245E+02 -0.19918604613E+02  0.60969676336E+02  0.47000000000E+01 0. -1.
        -13    1    4    4    0    0  0.19312959539E+02  0.57898973431E+02  0.14896384667E+02  0.62826617024E+02  0.00000000000E+00 0.  1.
         14    1    4    4    0    0 -0.19513089367E+01  0.99771641314E+00  0.67041642440E+02  0.67077454228E+02  0.00000000000E+00 0. -1.
         -5    1    5    5    0  502 -0.81958509378E+01 -0.69874543621E+02 -0.64755732262E+02  0.95734104057E+02  0.47000000000E+01 0.  1.
         13    1    6    6    0    0 -0.49674053477E+00  0.88848992651E+01 -0.44224642246E+02  0.45111053722E+02  0.00000000000E+00 0. -1.
        -14    1    6    6    0    0 -0.44340808744E+02  0.47103918757E+02  0.51718684262E+01  0.64897108605E+02  0.00000000000E+00 0.  1.
</event>
<event>
12    1  0.8219652E-002  0.2201128E+03  0.7818608E-02  0.1133964E+00
         21   -1    0    0  503  502  0.00000000000E+00  0.00000000000E+00  0.70448646153E+03  0.70448646153E+03  0.00000000000E+00 0.  1.
         21   -1    0    0  501  503 -0.00000000000E+00 -0.00000000000E+00 -0.73619763474E+02  0.73619763474E+02  0.00000000000E+00 0.  1.
          6    2    1    2  501    0 -0.53395848942E+02 -0.12861357144E+03  0.21339823470E+03  0.30657532747E+03  0.17046130761E+03 0.  0.
         24    2    3    3    0    0  0.73264738317E+01 -0.13589005393E+03  0.16354813929E+03  0.22753565583E+03  0.80651700738E+02 0.  0.
         -6    2    1    2    0  502  0.53395848942E+02  0.12861357144E+03  0.41746846336E+03  0.47153089754E+03  0.16931893572E+03 0.  0.
        -24    2    5    5    0    0 -0.27378058876E+02  0.31834903144E+02  0.21277127367E+03  0.23108638359E+03  0.79788988070E+02 0.  0.
          5    1    3    3  501    0 -0.60722322774E+02  0.72764824833E+01  0.49850095407E+02  0.79039671637E+02  0.47000000000E+01 0. -1.
        -11    1    4    4    0    0 -0.26183249837E+02 -0.10843287320E+03  0.13722095378E+03  0.17684128680E+03  0.00000000000E+00 0.  1.
         12    1    4    4    0    0  0.33509723668E+02 -0.27457180731E+02  0.26327185517E+02  0.50694369029E+02  0.00000000000E+00 0. -1.
         -5    1    5    5    0  502  0.80773907818E+02  0.96778668299E+02  0.20469718969E+03  0.24044451395E+03  0.47000000000E+01 0.  1.
         13    1    6    6    0    0 -0.17396515155E+02  0.62272831262E+01  0.20619956480E+01  0.18592192467E+02  0.00000000000E+00 0. -1.
        -14    1    6    6    0    0 -0.99815437206E+01  0.25607620018E+02  0.21070927802E+03  0.21249419112E+03  0.00000000000E+00 0.  1.
</event>
<event>
12    1  0.8219652E-002  0.1910921E+03  0.7818608E-02  0.1157735E+00
         21   -1    0    0  501  502  0.00000000000E+00  0.00000000000E+00  0.29542138123E+02  0.29542138123E+02  0.00000000000E+00 0. -1.
         21   -1    0    0  502  503 -0.00000000000E+00 -0.00000000000E+00 -0.17280454241E+04  0.17280454241E+04  0.00000000000E+00 0. -1.
         -6    2    1    2    0  503  0.81732586272E+02 -0.81684157246E+01 -0.13198352521E+04  0.13334346639E+04  0.17127746949E+03 0.  0.
        -24    2    3    3    0    0 -0.14754369353E+02 -0.34460973652E+02 -0.68015185963E+03  0.68596422921E+03  0.80840098206E+02 0.  0.
          6    2    1    2  501    0 -0.81732586272E+02  0.81684157246E+01 -0.37866803390E+03  0.42415289834E+03  0.17253771354E+03 0.  0.
         24    2    5    5    0    0 -0.78467883326E+02 -0.57159488040E+02 -0.23777693464E+03  0.26874766951E+03  0.79139266066E+02 0.  0.
          5    1    5    5  501    0 -0.32647029459E+01  0.65327903765E+02 -0.14089109926E+03  0.15540522883E+03  0.47000000000E+01 0. -1.
        -11    1    6    6    0    0 -0.66093957808E+01 -0.47687114714E+02 -0.13213494596E+03  0.14063210504E+03  0.00000000000E+00 0.  1.
         12    1    6    6    0    0 -0.71858487545E+02 -0.94723733262E+01 -0.10564198868E+03  0.12811556448E+03  0.00000000000E+00 0. -1.
         -5    1    3    3    0  503  0.96486955624E+02  0.26292557928E+02 -0.63968339244E+03  0.64747043467E+03  0.47000000000E+01 0.  1.
         11    1    4    4    0    0  0.24944387688E+02 -0.35522597464E+02 -0.22970258493E+03  0.23376773714E+03  0.00000000000E+00 0. -1.
        -12    1    4    4    0    0 -0.39698757041E+02  0.10616238118E+01 -0.45044927470E+03  0.45219649206E+03  0.00000000000E+00 0.  1.
</event>
<event>
12    1  0.8219652E-002  0.1811851E+03  0.7818608E-02  0.1167278E+00
         21   -1    0    0  501  502  0.00000000000E+00  0.00000000000E+00  0.32008075865E+03  0.32008075865E+03  0.00000000000E+00 0. -1.
         21   -1    0    0  502  503 -0.00000000000E+00 -0.00000000000E+00 -0.18155305942E+03  0.18155305942E+03  0.00000000000E+00 0. -1.
         -6    2    1    2    0  503 -0.17452194352E+02  0.52317039054E+02 -0.97950909870E+02  0.20372413257E+03  0.16990435481E+03 0.  0.
        -24    2    3    3    0    0 -0.60762671146E+02 -0.95773034118E+01 -0.44650508741E+02  0.11115129751E+03  0.81099420854E+02 0.  0.
          6    2    1    2  501    0  0.17452194352E+02 -0.52317039054E+02  0.23647860910E+03  0.29790968551E+03  0.17258735902E+03 0.  0.
         24    2    5    5    0    0  0.67973298322E+02 -0.69218480801E+02  0.16222499974E+03  0.20640160289E+03  0.82904184268E+02 0.  0.
          5    1    5    5  501    0 -0.50521103970E+02  0.16901441747E+02  0.74253609366E+02  0.91508082612E+02  0.47000000000E+01 0. -1.
        -11    1    6    6    0    0 -0.13887851799E+02 -0.19715487306E+02  0.89515529909E+01  0.25723591667E+02  0.00000000000E+00 0.  1.
         12    1    6    6    0    0  0.81861150121E+02 -0.49502993495E+02  0.15327344674E+03  0.18067801123E+03  0.00000000000E+00 0. -1.
         -5    1    3    3    0  503  0.43310476795E+02  0.61894342466E+02 -0.53300401129E+02  0.92572835054E+02  0.47000000000E+01 0.  1.
         11    1    4    4    0    0 -0.26089768467E+02  0.28189461985E+02 -0.45920067570E+02  0.59866304306E+02  0.00000000000E+00 0. -1.
        -12    1    4    4    0    0 -0.34672902679E+02 -0.37766765397E+02  0.12695588288E+01  0.51284993208E+02  0.00000000000E+00 0.  1.
</event>
<event>
12    1  0.8219652E-002  0.2563938E+03  0.7818608E-02  0.1109444E+00
         21   -1    0    0  501  502  0.00000000000E+00  0.00000000000E+00  0.27860461457E+03  0.27860461457E+03  0.00000000000E+00 0.  1.
         21   -1    0    0  502  503 -0.00000000000E+00 -0.00000000000E+00 -0.41739673190E+03  0.41739673190E+03  0.00000000000E+00 0. -1.
         -6    2    1    2    0  503 -0.14705810704E+03  0.11909045756E+03 -0.29933011957E+03  0.39412726001E+03  0.17300044125E+03 0.  0.
        -24    2    3    3    0    0 -0.58216356101E+02  0.55326062723E+01 -0.62514874687E+02  0.11683356641E+03  0.79512381639E+02 0.  0.
          6    2    1    2  501    0  0.14705810704E+03 -0.11909045756E+03  0.16053800224E+03  0.30187408646E+03  0.17189208820E+03 0.  0.
         24    2    5    5    0    0  0.29006120786E+02 -0.32674578884E+02  0.11890504246E+03  0.14969206096E+03  0.79751619701E+02 0.  0.
          5    1    5    5  501    0  0.11805198625E+03 -0.86415878671E+02  0.41632959782E+02  0.15218202550E+03  0.47000000000E+01 0. -1.
        -13    1    6    6    0    0  0.45419467182E+02 -0.24944485506E+02  0.31976561677E+02  0.60890523507E+02  0.00000000000E+00 0.  1.
         14    1    6    6    0    0 -0.16413346396E+02 -0.77300933782E+01  0.86928480781E+02  0.88801537456E+02  0.00000000000E+00 0. -1.
         -5    1    3    3    0  503 -0.88841750937E+02  0.11355785128E+03 -0.23681524489E+03  0.27729369360E+03  0.47000000000E+01 0.  1.
         11    1    4    4    0    0  0.37731166596E+01  0.30824902272E+02 -0.26419760899E+02  0.40772720971E+02  0.00000000000E+00 0. -1.
        -12    1    4    4    0    0 -0.61989472760E+02 -0.25292296000E+02 -0.36095113788E+02  0.76060845442E+02  0.00000000000E+00 0.  1.
</event>
<event>
12    1  0.8219652E-002  0.1785855E+03  0.7818608E-02  0.1171073E+00
         21   -1    0    0  501  502  0.00000000000E+00  0.00000000000E+00  0.65207651942E+02  0.65207651942E+02  0.00000000000E+00 0.  1.
         21   -1    0    0  502  503 -0.00000000000E+00 -0.00000000000E+00 -0.47046332533E+03  0.47046332533E+03  0.00000000000E+00 0.  1.
         -6    2    1    2    0  503  0.45597889943E+02 -0.71858595735E+01 -0.21518925419E+03  0.27486833984E+03  0.16466749826E+03 0.  0.
        -24    2    3    3    0    0 -0.18645522828E+02  0.26787527190E+02 -0.16555534747E+03  0.18673763130E+03  0.79982140081E+02 0.  0.
          6    2    1    2  501    0 -0.45597889943E+02  0.71858595735E+01 -0.19006641920E+03  0.26080263743E+03  0.17251657265E+03 0.  0.
         24    2    5    5    0    0 -0.80423561660E+02  0.26417078318E+02 -0.18805104218E+03  0.22069255230E+03  0.78588783406E+02 0.  0.
          5    1    5    5  501    0  0.34825671717E+02 -0.19231218744E+02 -0.20153770211E+01  0.40110085134E+02  0.47000000000E+01 0. -1.
        -11    1    6    6    0    0  0.26486672439E+01  0.30202391180E+02 -0.33449690688E+02  0.45145117990E+02  0.00000000000E+00 0.  1.
         12    1    6    6    0    0 -0.83072228904E+02 -0.37853128627E+01 -0.15460135149E+03  0.17554743431E+03  0.00000000000E+00 0. -1.
         -5    1    3    3    0  503  0.64243412772E+02 -0.33973386764E+02 -0.49633906720E+02  0.88130708547E+02  0.47000000000E+01 0.  1.
         11    1    4    4    0    0 -0.21064895076E+02  0.24248629695E+02 -0.13829311933E+02  0.34971069688E+02  0.00000000000E+00 0. -1.
        -12    1    4    4    0    0  0.24193722475E+01  0.25388974956E+01 -0.15172603554E+03  0.15176656161E+03  0.00000000000E+00 0.  1.
</event>
<event>
12    1  0.8219652E-002  0.1951231E+03  0.7818608E-02  0.1155079E+00
         21   -1    0    0  503  502  0.00000000000E+00  0.00000000000E+00  0.41623952482E+03  0.41623952482E+03  0.00000000000E+00 0. -1.
         21   -1    0    0  501  503 -0.00000000000E+00 -0.00000000000E+00 -0.13387461712E+03  0.13387461712E+03  0.00000000000E+00 0. -1.
          6    2    1    2  501    0 -0.76669553604E+02 -0.36102722613E+02 -0.19286293365E+02  0.19085591738E+03  0.16991878371E+03 0.  0.
         24    2    3    3    0    0  0.22461137865E+00 -0.17423997417E+02  0.40171225116E+02  0.91765585427E+02  0.80644585715E+02 0.  0.
         -6    2    1    2    0  502  0.76669553604E+02  0.36102722613E+02  0.30165120106E+03  0.35925822455E+03  0.17575948843E+03 0.  0.
        -24    2    5    5    0    0  0.70010386825E+02 -0.23891922005E+02  0.26996303089E+03  0.29092132373E+03  0.79264748471E+02 0.  0.
          5    1    3    3  501    0 -0.76894164982E+02 -0.18678725196E+02 -0.59457518481E+02  0.99090331956E+02  0.47000000000E+01 0. -1.
        -13    1    4    4    0    0 -0.23583755783E+02 -0.13129083680E+02  0.56473727657E+02  0.62592717552E+02  0.00000000000E+00 0.  1.
         14    1    4    4    0    0  0.23808367162E+02 -0.42949137373E+01 -0.16302502541E+02  0.29172867874E+02  0.00000000000E+00 0. -1.
         -5    1    5    5    0  502  0.66591667787E+01  0.59994644618E+02  0.31688170172E+02  0.68336900822E+02  0.47000000000E+01 0.  1.
         11    1    6    6    0    0  0.68368677438E+02  0.10087259644E+02  0.13405431298E+03  0.15081971917E+03  0.00000000000E+00 0. -1.
        -12    1    6    6    0    0  0.16417093870E+01 -0.33979181649E+02  0.13590871791E+03  0.14010160456E+03  0.00000000000E+00 0.  1.
</event>
<event>
12    1  0.8219652E-002  0.3156410E+03  0.7818608E-02  0.1078920E+00
         21   -1    0    0  501  502  0.00000000000E+00  0.00000000000E+00  0.98777522273E+02  0.98777522273E+02  0.00000000000E+00 0. -1.
         21   -1    0    0  502  503 -0.00000000000E+00 -0.00000000000E+00 -0.98736223394E+03  0.98736223394E+03  0.00000000000E+00 0.  1.
         -6    2    1    2    0  503 -0.20632240271E+03 -0.14489984233E+03 -0.37731820010E+03  0.48528813373E+03  0.17196118876E+03 0.  0.
        -24    2    3    3    0    0 -0.12708818273E+03 -0.15351540471E+03 -0.21165509068E+03  0.30138966893E+03  0.79495090763E+02 0.  0.
          6    2    1    2  501    0  0.20632240271E+03  0.14489984233E+03 -0.51126651156E+03  0.60085162248E+03  0.18990610372E+03 0.  0.
         24    2    5    5    0    0  0.51622856878E+02  0.30565877407E+02 -0.29200637714E+03  0.30913034873E+03  0.81820877525E+02 0.  0.
          5    1    5    5  501    0  0.15469954583E+03  0.11433396492E+03 -0.21926013442E+03  0.29172127375E+03  0.47000000000E+01 0. -1.
        -11    1    6    6    0    0 -0.17546839565E+01 -0.24131682567E+02 -0.54476140122E+02  0.59607607416E+02  0.00000000000E+00 0.  1.
         12    1    6    6    0    0  0.53377540835E+02  0.54697559974E+02 -0.23753023702E+03  0.24952274131E+03  0.00000000000E+00 0. -1.
         -5    1    3    3    0  503 -0.79234219978E+02  0.86155623755E+01 -0.16566310943E+03  0.18389846480E+03  0.47000000000E+01 0.  1.
         13    1    4    4    0    0 -0.83129302915E+02 -0.11901131771E+03 -0.19495019708E+03  0.24306327178E+03  0.00000000000E+00 0. -1.
        -14    1    4    4    0    0 -0.43958879815E+02 -0.34504087000E+02 -0.16704893592E+02  0.58326397148E+02  0.00000000000E+00 0.  1.
</event>
<event>
12    1  0.8219652E-002  0.1844601E+03  0.7818608E-02  0.1163886E+00
         21   -1    0    0  501  502  0.00000000000E+00  0.00000000000E+00  0.11391228439E+03  0.11391228439E+03  0.00000000000E+00 0. -1.
         21   -1    0    0  502  503 -0.00000000000E+00 -0.00000000000E+00 -0.48048032500E+03  0.48048032500E+03  0.00000000000E+00 0. -1.
         -6    2    1    2    0  503 -0.44099696672E+02  0.39764403459E+02 -0.36679154779E+03  0.40993237098E+03  0.17315460785E+03 0.  0.
        -24    2    3    3    0    0 -0.32800501360E+02 -0.18930104378E+02 -0.32502962476E+03  0.33686483181E+03  0.79996476180E+02 0.  0.
          6    2    1    2  501    0  0.44099696672E+02 -0.39764403459E+02  0.22350718930E+00  0.18446023841E+03  0.17464117089E+03 0.  0.
         24    2    5    5    0    0 -0.11206521408E+02  0.38287150742E+02  0.36579531541E+01  0.88623354638E+02  0.79052048247E+02 0.  0.
          5    1    5    5  501    0  0.55306218080E+02 -0.78051554201E+02 -0.34344459648E+01  0.95836883769E+02  0.47000000000E+01 0. -1.
        -13    1    6    6    0    0 -0.19398227012E+02  0.16209689551E+02 -0.35110103663E+02  0.43263895176E+02  0.00000000000E+00 0.  1.
         14    1    6    6    0    0  0.81917056041E+01  0.22077461190E+02  0.38768056817E+02  0.45359459462E+02  0.00000000000E+00 0. -1.
         -5    1    3    3    0  503 -0.11299195311E+02  0.58694507837E+02 -0.41761923034E+02  0.73067539170E+02  0.47000000000E+01 0.  1.
         11    1    4    4    0    0  0.20445141369E+02 -0.13420153784E+02 -0.40246485442E+02  0.47094414994E+02  0.00000000000E+00 0. -1.
        -12    1    4    4    0    0 -0.53245642729E+02 -0.55099505934E+01 -0.28478313931E+03  0.28977041682E+03  0.00000000000E+00 0.  1.
</event>
<event>
12    1  0.8219652E-002  0.1875802E+03  0.7818608E-02  0.1160754E+00
         21   -1    0    0  501  502  0.00000000000E+00  0.00000000000E+00  0.55005658522E+02  0.55005658522E+02  0.00000000000E+00 0.  1.
         21   -1    0    0  502  503 -0.00000000000E+00 -0.00000000000E+00 -0.82176358548E+03  0.82176358548E+03  0.00000000000E+00 0.  1.
         -6    2    1    2    0  503  0.74875833919E+02  0.29620322725E+01 -0.59018392440E+03  0.61915578194E+03  0.17152741342E+03 0.  0.
        -24    2    3    3    0    0  0.16142447468E+02  0.23797441774E+02 -0.51015651253E+03  0.51761661894E+03  0.82706711224E+02 0.  0.
          6    2    1    2  501    0 -0.74875833919E+02 -0.29620322725E+01 -0.17657400256E+03  0.25761346206E+03  0.17196265093E+03 0.  0.
         24    2    5    5    0    0 -0.11143915223E+03 -0.22398959712E+02 -0.16325953756E+03  0.21386377209E+03  0.78508842567E+02 0.  0.
          5    1    5    5  501    0  0.36563318314E+02  0.19436927439E+02 -0.13314465002E+02  0.43749689973E+02  0.47000000000E+01 0. -1.
        -11    1    6    6    0    0 -0.68929211045E+02 -0.17352292182E+01 -0.14950190516E+03  0.16463616493E+03  0.00000000000E+00 0.  1.
         12    1    6    6    0    0 -0.42509941189E+02 -0.20663730494E+02 -0.13757632404E+02  0.49227607164E+02  0.00000000000E+00 0. -1.
         -5    1    3    3    0  503  0.58733386450E+02 -0.20835409502E+02 -0.80027411871E+02  0.10153916301E+03  0.47000000000E+01 0.  1.
         11    1    4    4    0    0 -0.23420252604E+02  0.16479013739E+02 -0.38692760663E+03  0.38798587461E+03  0.00000000000E+00 0. -1.
        -12    1    4    4    0    0  0.39562700072E+02  0.73184280356E+01 -0.12322890589E+03  0.12963074432E+03  0.00000000000E+00 0.  1.
</event>
<event>
12    1  0.8219652E-002  0.1834286E+03  0.7818608E-02  0.1164623E+00
         21   -1    0    0  501  502  0.00000000000E+00  0.00000000000E+00  0.10604323574E+03  0.10604323574E+03  0.00000000000E+00 0.  1.
         21   -1    0    0  502  503 -0.00000000000E+00 -0.00000000000E+00 -0.37986807907E+03  0.37986807907E+03  0.00000000000E+00 0.  1.
         -6    2    1    2    0  503  0.37829380334E+02 -0.48037560723E+02 -0.23621086617E+03  0.29906790222E+03  0.17293746727E+03 0.  0.
        -24    2    3    3    0    0 -0.40637687497E+02 -0.31846914493E+01 -0.88236610330E+02  0.12561090176E+03  0.79566546581E+02 0.  0.
          6    2    1    2  501    0 -0.37829380334E+02  0.48037560723E+02 -0.37613977167E+02  0.18684341259E+03  0.17250211678E+03 0.  0.
         24    2    5    5    0    0 -0.69973440489E+02  0.78632928136E+02 -0.21727392215E+01  0.12985667327E+03  0.76017202245E+02 0.  0.
          5    1    5    5  501    0  0.32144060155E+02 -0.30595367413E+02 -0.35441237946E+02  0.56986739313E+02  0.47000000000E+01 0. -1.
        -13    1    6    6    0    0 -0.15085589346E+02  0.26165505537E+02 -0.35777909219E+02  0.46821656036E+02  0.00000000000E+00 0.  1.
         14    1    6    6    0    0 -0.54887851143E+02  0.52467422599E+02  0.33605169997E+02  0.83035017239E+02  0.00000000000E+00 0. -1.
         -5    1    3    3    0  503  0.78467067831E+02 -0.44852869273E+02 -0.14797425584E+03  0.17345700046E+03  0.47000000000E+01 0.  1.
         11    1    4    4    0    0 -0.50465920706E+02 -0.17441933410E+02 -0.93361544098E+02  0.10755188567E+03  0.00000000000E+00 0. -1.
        -12    1    4    4    0    0  0.98282332093E+01  0.14257241960E+02  0.51249337686E+01  0.18059016099E+02  0.00000000000E+00 0.  1.
</event>
<event>
12    1  0.8219652E-002  0.1774375E+03  0.7818608E-02  0.1170985E+00
         21   -1    0    0  503  502  0.00000000000E+00  0.00000000000E+00  0.18325399238E+03  0.18325399238E+03  0.00000000000E+00 0. -1.
         21   -1    0    0  501  503 -0.00000000000E+00 -0.00000000000E+00 -0.17433995141E+03  0.17433995141E+03  0.00000000000E+00 0. -1.
          6    2    1    2  501    0 -0.22345693932E+02 -0.13214163916E+02 -0.26292549262E+02  0.17937491136E+03  0.17552810747E+03 0.  0.
         24    2    3    3    0    0  0.13579368013E+02 -0.40276383763E+02  0.41150557575E+02  0.98173701524E+02  0.78346161090E+02 0.  0.
         -6    2    1    2    0  502  0.22345693932E+02  0.13214163916E+02  0.35206590233E+02  0.17821903243E+03  0.17276740248E+03 0.  0.
        -24    2    5    5    0    0  0.45306295358E+02  0.68291025961E+02  0.16787650667E+02  0.11559318086E+03  0.79772386327E+02 0.  0.
          5    1    3    3  501    0 -0.35925061945E+02  0.27062219847E+02 -0.67443106837E+02  0.81201209835E+02  0.47000000000E+01 0. -1.
        -13    1    4    4    0    0 -0.15261545369E+02 -0.46285410304E+02  0.47479988189E+02  0.68041187912E+02  0.00000000000E+00 0.  1.
         14    1    4    4    0    0  0.28840913382E+02  0.60090265407E+01 -0.63294306137E+01  0.30132513612E+02  0.00000000000E+00 0. -1.
         -5    1    5    5    0  502 -0.22960601427E+02 -0.55076862045E+02  0.18418939566E+02  0.62625851574E+02  0.47000000000E+01 0.  1.
         11    1    6    6    0    0 -0.14775605900E+02  0.48297409483E+02  0.18864138055E+01  0.50542228379E+02  0.00000000000E+00 0. -1.
        -12    1    6    6    0    0  0.60081901258E+02  0.19993616478E+02  0.14901236862E+02  0.65050952480E+02  0.00000000000E+00 0.  1.
</event>
<event>
12    1  0.8219652E-002  0.1976500E+03  0.7818608E-02  0.1151739E+00
         21   -1    0    0  503  502  0.00000000000E+00  0.00000000000E+00  0.50159327443E+02  0.50159327443E+02  0.00000000000E+00 0. -1.
         21   -1    0    0  501  503 -0.00000000000E+00 -0.00000000000E+00 -0.83959496090E+03  0.83959496090E+03  0.00000000000E+00 0.  1.
          6    2    1    2  501    0  0.58139429627E+02 -0.78294271703E+02 -0.27498573940E+03  0.33864247066E+03  0.17190514769E+03 0.  0.
         24    2    3    3    0    0  0.46631046743E+00 -0.10685374556E+03 -0.19195700571E+03  0.23348690572E+03  0.79061385728E+02 0.  0.
         -6    2    1    2    0  502 -0.58139429627E+02  0.78294271703E+02 -0.51444989406E+03  0.55111181769E+03  0.17191671192E+03 0.  0.
        -24    2    5    5    0    0 -0.65221271773E+02  0.46862624370E+02 -0.50477732753E+03  0.51714492961E+03  0.78668977249E+02 0.  0.
          5    1    3    3  501    0  0.57673119159E+02  0.28559473859E+02 -0.83028733692E+02  0.10515556495E+03  0.47000000000E+01 0. -1.
        -11    1    4    4    0    0  0.20950068416E+02 -0.10104177368E+03 -0.11911506626E+03  0.15759677790E+03  0.00000000000E+00 0.  1.
         12    1    4    4    0    0 -0.20483757949E+02 -0.58119718840E+01 -0.72841939448E+02  0.75890127813E+02  0.00000000000E+00 0. -1.
         -5    1    5    5    0  502  0.70818421466E+01  0.31431647333E+02 -0.96725665307E+01  0.33966888075E+02  0.47000000000E+01 0.  1.
         13    1    6    6    0    0 -0.33183721461E+02  0.35587557620E+02 -0.10278803256E+03  0.11372340685E+03  0.00000000000E+00 0. -1.
        -14    1    6    6    0    0 -0.32037550313E+02  0.11275066750E+02 -0.40198929497E+03  0.40342152276E+03  0.00000000000E+00 0.  1.
</event>
<event>
12    1  0.8219652E-002  0.2332703E+03  0.7818608E-02  0.1126071E+00
         21   -1    0    0  503  502  0.00000000000E+00  0.00000000000E+00  0.68045566449E+03  0.68045566449E+03  0.00000000000E+00 0.  1.
         21   -1    0    0  501  503 -0.00000000000E+00 -0.00000000000E+00 -0.93066122307E+02  0.93066122307E+02  0.00000000000E+00 0. -1.
          6    2    1    2  501    0  0.15688656688E+03  0.16895739090E+02  0.13658097168E+03  0.27031347805E+03  0.17180265925E+03 0.  0.
         24    2    3    3    0    0  0.78841099983E+02 -0.32986481876E+02  0.15766136135E+02  0.11800574562E+03  0.79829555410E+02 0.  0.
         -6    2    1    2    0  502 -0.15688656688E+03 -0.16895739090E+02  0.45080857051E+03  0.50320830875E+03  0.15840256906E+03 0.  0.
        -24    2    5    5    0    0 -0.10681357371E+03 -0.36517734735E+02  0.41764627788E+03  0.43985094919E+03  0.79358424863E+02 0.  0.
          5    1    3    3  501    0  0.78045466896E+02  0.49882220967E+02  0.12081483554E+03  0.15230773243E+03  0.47000000000E+01 0. -1.
        -13    1    4    4    0    0 -0.17512039721E+01 -0.14093166398E+01  0.30173565105E+02  0.30257179642E+02  0.00000000000E+00 0.  1.
         14    1    4    4    0    0  0.80592303955E+02 -0.31577165237E+02 -0.14407428970E+02  0.87748565975E+02  0.00000000000E+00 0. -1.
         -5    1    5    5    0  502 -0.50072993173E+02  0.19621995645E+02  0.33162292628E+02  0.63357359562E+02  0.47000000000E+01 0.  1.
         11    1    6    6    0    0 -0.30287727186E+02 -0.17519178207E+02  0.36220808260E+02  0.50360847631E+02  0.00000000000E+00 0. -1.
        -12    1    6    6    0    0 -0.76525846520E+02 -0.18998556528E+02  0.38142546962E+03  0.38949010156E+03  0.00000000000E+00 0.  1.
</event>
<event>
12    1  0.8219652E-002  0.1878457E+03  0.7818608E-02  0.1160464E+00
         21   -1    0    0  503  502  0.00000000000E+00  0.00000000000E+00  0.11276260729E+03  0.11276260729E+03  0.00000000000E+00 0.  1.
         21   -1    0    0  501  503 -0.00000000000E+00 -0.00000000000E+00 -0.33251282624E+03  0.33251282624E+03  0.00000000000E+00 0.  1.
          6    2    1    2  501    0  0.21489802040E+02 -0.71907075964E+02 -0.16441734609E+03  0.24963790264E+03  0.17220214742E+03 0.  0.
         24    2    3    3    0    0  0.77430925950E+02 -0.48376339447E+02 -0.79031022267E+02  0.14477599726E+03  0.79864687998E+02 0.  0.
         -6    2    1    2    0  502 -0.21489802040E+02  0.71907075964E+02 -0.55332872862E+02  0.19563753090E+03  0.17198801560E+03 0.  0.
        -24    2    5    5    0    0 -0.45328172558E+02  0.52915281607E+02 -0.99744287861E+02  0.14156887136E+03  0.72375079429E+02 0.  0.
          5    1    3    3  501    0 -0.55941123910E+02 -0.23530736518E+02 -0.85386323819E+02  0.10486190538E+03  0.47000000000E+01 0. -1.
        -13    1    4    4    0    0 -0.28231823055E+01 -0.20791614437E+02 -0.51417457856E+02  0.55533922620E+02  0.00000000000E+00 0.  1.
         14    1    4    4    0    0  0.80254108256E+02 -0.27584725010E+02 -0.27613564411E+02  0.89242074636E+02  0.00000000000E+00 0. -1.
         -5    1    5    5    0  502  0.23838370518E+02  0.18991794358E+02  0.44411414999E+02  0.54068659537E+02  0.47000000000E+01 0.  1.
         11    1    6    6    0    0 -0.19763090170E+02  0.67456038698E+02 -0.62071559333E+02  0.93775131927E+02  0.00000000000E+00 0. -1.
        -12    1    6    6    0    0 -0.25565082388E+02 -0.14540757091E+02 -0.37672728528E+02  0.47793739433E+02  0.00000000000E+00 0.  1.
</event>
<event>
12    1  0.8219652E-002  0.1847173E+03  0.7818608E-02  0.1164648E+00
         21   -1    0    0  501  502  0.00000000000E+00  0.00000000000E+00  0.18954962601E+04  0.18954962601E+04  0.00000000000E+00 0. -1.
         21   -1    0    0  502  503 -0.00000000000E+00 -0.00000000000E+00 -0.17822977757E+02  0.17822977757E+02  0.00000000000E+00 0. -1.
         -6    2    1    2    0  503  0.94626812062E+01  0.67008843933E+02  0.78781564601E+03  0.80791879746E+03  0.16582992400E+03 0.  0.
        -24    2    3    3    0    0  0.43852745615E+02 -0.12273998129E+02  0.39704456746E+03  0.40767815559E+03  0.80519411742E+02 0.  0.
          6    2    1    2  501    0 -0.94626812062E+01 -0.67008843933E+02  0.10898576364E+04  0.11054004404E+04  0.17187419426E+03 0.  0.
         24    2    5    5    0    0  0.54360705591E+01  0.23814906083E+02  0.69415814391E+03  0.69911100579E+03  0.79397538005E+02 0.  0.
          5    1    5    5  501    0 -0.14898751765E+02 -0.90823750016E+02  0.39569949245E+03  0.40628943464E+03  0.47000000000E+01 0. -1.
        -11    1    6    6    0    0 -0.82441821944E+01  0.25977671456E+02  0.67457332838E+03  0.67512367853E+03  0.00000000000E+00 0.  1.
         12    1    6    6    0    0  0.13680252753E+02 -0.21627653738E+01  0.19584815531E+02  0.23987327255E+02  0.00000000000E+00 0. -1.
         -5    1    3    3    0  503 -0.34390064408E+02  0.79282842062E+02  0.39077107855E+03  0.40024064187E+03  0.47000000000E+01 0.  1.
         13    1    4    4    0    0  0.99128332270E+01  0.33249409086E+02  0.12224749236E+03  0.12707571309E+03  0.00000000000E+00 0. -1.
        -14    1    4    4    0    0  0.33939912388E+02 -0.45523407214E+02  0.27479707510E+03  0.28060244250E+03  0.00000000000E+00 0.  1.
</event>
<event>
12    1  0.8219652E-002  0.2333894E+03  0.7818608E-02  0.1124410E+00
         21   -1    0    0  503  502  0.00000000000E+00  0.00000000000E+00  0.18127278725E+04  0.18127278725E+04  0.00000000000E+00 0.  1.
         21   -1    0    0  501  503 -0.00000000000E+00 -0.00000000000E+00 -0.45936041807E+02  0.45936041807E+02  0.00000000000E+00 0. -1.
          6    2    1    2  501    0 -0.15514763404E+03  0.28463008891E+02  0.33611436648E+03  0.40919858625E+03  0.17201652366E+03 0.  0.
         24    2    3    3    0    0 -0.11399660567E+03 -0.23974042650E+02  0.30443660067E+03  0.33524845199E+03  0.78357513427E+02 0.  0.
         -6    2    1    2    0  502  0.15514763404E+03 -0.28463008891E+02  0.14306774642E+04  0.14494653281E+04  0.17097017110E+03 0.  0.
        -24    2    5    5    0    0  0.17761018070E+03 -0.50233840573E+02  0.12194607533E+04  0.12358930356E+04  0.79235419505E+02 0.  0.
          5    1    3    3  501    0 -0.41151028372E+02  0.52437051541E+02  0.31677765813E+02  0.73950134261E+02  0.47000000000E+01 0. -1.
        -13    1    4    4    0    0 -0.10341838562E+03 -0.32738026629E+02  0.18075859536E+03  0.21080989224E+03  0.00000000000E+00 0.  1.
         14    1    4    4    0    0 -0.10578220049E+02  0.87639839790E+01  0.12367800531E+03  0.12443855974E+03  0.00000000000E+00 0. -1.
         -5    1    5    5    0  502 -0.22462546658E+02  0.21770831682E+02  0.21121671097E+03  0.21357229246E+03  0.47000000000E+01 0.  1.
         11    1    6    6    0    0  0.12666044740E+02 -0.11401036453E+02  0.30675860766E+02  0.35091605196E+02  0.00000000000E+00 0. -1.
        -12    1    6    6    0    0  0.16494413596E+03 -0.38832804120E+02  0.11887848925E+04  0.12008014304E+04  0.00000000000E+00 0.  1.
</event>
<event>
12    1  0.8219652E-002  0.1891793E+03  0.7818608E-02  0.1159418E+00
         21   -1    0    0  503  502  0.00000000000E+00  0.00000000000E+00  0.19664728531E+03  0.19664728531E+03  0.00000000000E+00 0. -1.
         21   -1    0    0  501  503 -0.00000000000E+00 -0.00000000000E+00 -0.19032007246E+03  0.19032007246E+03  0.00000000000E+00 0. -1.
          6    2    1    2  501    0 -0.47498485322E+02 -0.62315232741E+02  0.45765540706E+02  0.19372088802E+03  0.17115491053E+03 0.  0.
         24    2    3    3    0    0 -0.10934056933E+02  0.29863425099E+02  0.38886155870E+02  0.94205671493E+02  0.79694401708E+02 0.  0.
         -6    2    1    2    0  502  0.47498485322E+02  0.62315232741E+02 -0.39438327858E+02  0.19324646975E+03  0.17219036567E+03 0.  0.
        -24    2    5    5    0    0  0.57312357631E+02  0.90058334112E+02  0.11584814950E+02  0.13415803717E+03  0.80429852168E+02 0.  0.
          5    1    3    3  501    0 -0.36564428389E+02 -0.92178657840E+02  0.68793848365E+01  0.99515216527E+02  0.47000000000E+01 0. -1.
        -13    1    4    4    0    0  0.34375659874E+02  0.13035004487E+02  0.10861976978E+02  0.38335099812E+02  0.00000000000E+00 0.  1.
         14    1    4    4    0    0 -0.45309716807E+02  0.16828420611E+02  0.28024178892E+02  0.55870571681E+02  0.00000000000E+00 0. -1.
         -5    1    5    5    0  502 -0.98138723086E+01 -0.27743101371E+02 -0.51023142807E+02  0.59088432584E+02  0.47000000000E+01 0.  1.
         13    1    6    6    0    0  0.31270141934E+02 -0.78955456859E+01  0.12474312314E+01  0.32275648761E+02  0.00000000000E+00 0. -1.
        -14    1    6    6    0    0  0.26042215697E+02  0.97953879798E+02  0.10337383718E+02  0.10188238841E+03  0.00000000000E+00 0.  1.
</event>
<event>
12    1  0.8219652E-002  0.1804779E+03  0.7818608E-02  0.1167733E+00
         21   -1    0    0  501  502  0.00000000000E+00  0.00000000000E+00  0.88056490011E+03  0.88056490011E+03  0.00000000000E+00 0.  1.
         21   -1    0    0  502  503 -0.00000000000E+00 -0.00000000000E+00 -0.36818851281E+02  0.36818851281E+02  0.00000000000E+00 0.  1.
         -6    2    1    2    0  503 -0.20335185467E+02 -0.50560997936E+02  0.39361108774E+03  0.43301497148E+03  0.17205331400E+03 0.  0.
        -24    2    3    3    0    0 -0.31021079335E+02  0.16604511232E+02  0.32343191108E+03  0.33517530271E+03  0.80599412441E+02 0.  0.
          6    2    1    2  501    0  0.20335185467E+02  0.50560997936E+02  0.45013496109E+03  0.48436877991E+03  0.17035755772E+03 0.  0.
         24    2    5    5    0    0 -0.46775060253E+02  0.60461897907E+02  0.25719942996E+03  0.27980088879E+03  0.79331224863E+02 0.  0.
          5    1    5    5  501    0  0.67110245721E+02 -0.99008999714E+01  0.19293553113E+03  0.20456789111E+03  0.47000000000E+01 0. -1.
        -11    1    6    6    0    0 -0.40487032493E+01  0.63089107458E+02  0.11418774556E+03  0.13051999354E+03  0.00000000000E+00 0.  1.
         12    1    6    6    0    0 -0.42726357004E+02 -0.26272095505E+01  0.14301168440E+03  0.14928089525E+03  0.00000000000E+00 0. -1.
         -5    1    3    3    0  503  0.10685893867E+02 -0.67165509168E+02  0.70179176661E+02  0.97839668777E+02  0.47000000000E+01 0.  1.
         13    1    4    4    0    0 -0.53700584853E+02  0.17168623577E+00  0.14633038368E+03  0.15587290809E+03  0.00000000000E+00 0. -1.
        -14    1    4    4    0    0  0.22679505518E+02  0.16432824996E+02  0.17710152740E+03  0.17930239461E+03  0.00000000000E+00 0.  1.
</event>
<event>
12    1  0.8219652E-002  0.1925045E+03  0.7818608E-02  0.1156636E+00
         21   -1    0    0  501  502  0.00000000000E+00  0.00000000000E+00  0.24696599303E+03  0.24696599303E+03  0.00000000000E+00 0. -1.
         21   -1    0    0  502  503 -0.00000000000E+00 -0.00000000000E+00 -0.15940942620E+03  0.15940942620E+03  0.00000000000E+00 0. -1.
         -6    2    1    2    0  503 -0.10183247919E+02 -0.86762476761E+02  0.96869235145E+02  0.21550323894E+03  0.17154174816E+03 0.  0.
        -24    2    3    3    0    0 -0.48029235775E+02  0.22826569346E+01  0.26760842072E+02  0.95926354002E+02  0.78572926075E+02 0.  0.
          6    2    1    2  501    0  0.10183247919E+02  0.86762476761E+02 -0.93126683091E+01  0.19087218029E+03  0.16945216879E+03 0.  0.
         24    2    5    5    0    0 -0.44217365081E+02  0.84039909600E+02 -0.36052393896E+02  0.13001216065E+03  0.81151124640E+02 0.  0.
          5    1    5    5  501    0  0.54400613000E+02  0.27225671608E+01  0.26739725587E+02  0.60860019645E+02  0.47000000000E+01 0. -1.
        -13    1    6    6    0    0  0.12770588976E+02  0.25746034925E+02 -0.38990256433E+02  0.48437447847E+02  0.00000000000E+00 0.  1.
         14    1    6    6    0    0 -0.56987954057E+02  0.58293874676E+02  0.29378625373E+01  0.81574712801E+02  0.00000000000E+00 0. -1.
         -5    1    3    3    0  503  0.37845987856E+02 -0.89045133696E+02  0.70108393073E+02  0.11957688494E+03  0.47000000000E+01 0.  1.
         13    1    4    4    0    0  0.14719059253E+02 -0.19325346211E+02 -0.20302994979E+00  0.24293228123E+02  0.00000000000E+00 0. -1.
        -14    1    4    4    0    0 -0.62748295028E+02  0.21608003145E+02  0.26963872022E+02  0.71633125879E+02  0.00000000000E+00 0.  1.
</event>
<event>
12    1  0.8219652E-002  0.1994739E+03  0.7818608E-02  0.1151804E+00
         21   -1    0    0  503  502  0.00000000000E+00  0.00000000000E+00  0.16066867668E+03  0.16066867668E+03  0.00000000000E+00 0. -1.
         21   -1    0    0  501  503 -0.00000000000E+00 -0.00000000000E+00 -0.46038544464E+03  0.46038544464E+03  0.00000000000E+00 0. -1.
          6    2    1    2  501    0 -0.81409451666E+02 -0.12697155999E+02 -0.36396412930E+03  0.41148896172E+03  0.17339135389E+03 0.  0.
         24    2    3    3    0    0 -0.48593209820E+02 -0.53734403993E+02 -0.12309154763E+03  0.16490702390E+03  0.82426398821E+02 0.  0.
         -6    2    1    2    0  502  0.81409451666E+02  0.12697155999E+02  0.64247361349E+02  0.20956515960E+03  0.18166209315E+03 0.  0.
        -24    2    5    5    0    0  0.37171135157E+02  0.76426549708E+02  0.60448901707E+02  0.13175139112E+03  0.80508686209E+02 0.  0.
          5    1    3    3  501    0 -0.32816241846E+02  0.41037247994E+02 -0.24087258167E+03  0.24658193781E+03  0.47000000000E+01 0. -1.
        -13    1    4    4    0    0 -0.38476568377E+02 -0.96551770582E+00 -0.98624363523E+02  0.10586852043E+03  0.00000000000E+00 0.  1.
         14    1    4    4    0    0 -0.10116641443E+02 -0.52768886287E+02 -0.24467184105E+02  0.59038503471E+02  0.00000000000E+00 0. -1.
         -5    1    5    5    0  502  0.44238316508E+02 -0.63729393709E+02  0.37984596413E+01  0.77813768484E+02  0.47000000000E+01 0.  1.
         11    1    6    6    0    0 -0.14773232206E+01  0.45667355675E+02  0.67855013672E+02  0.81804600963E+02  0.00000000000E+00 0. -1.
        -12    1    6    6    0    0  0.38648458378E+02  0.30759194033E+02 -0.74061119645E+01  0.49946790157E+02  0.00000000000E+00 0.  1.
</event>
<event>
12    1  0.8219652E-002  0.2374725E+03  0.7818608E-02  0.1121503E+00
         21   -1    0    0  503  502  0.00000000000E+00  0.00000000000E+00  0.12669003924E+03  0.12669003924E+03  0.00000000000E+00 0.  1.
         21   -1    0    0  501  503 -0.00000000000E+00 -0.00000000000E+00 -0.49988645296E+03  0.49988645296E+03  0.00000000000E+00 0.  1.
          6    2    1    2  501    0  0.14728662147E+03 -0.73089317884E+02 -0.29041022877E+03  0.37508745937E+03  0.17122238155E+03 0.  0.
         24    2    3    3    0    0  0.22536524271E+02  0.87567638953E+01 -0.13438260699E+03  0.15915210650E+03  0.81768772183E+02 0.  0.
         -6    2    1    2    0  502 -0.14728662147E+03  0.73089317884E+02 -0.82786184945E+02  0.25148903284E+03  0.17134113331E+03 0.  0.
        -24    2    5    5    0    0 -0.20065106197E+01  0.16451851229E+02 -0.24447048993E+02  0.84936764696E+02  0.79636086662E+02 0.  0.
          5    1    3    3  501    0  0.12475009720E+03 -0.81846081780E+02 -0.15602762179E+03  0.21593535286E+03  0.47000000000E+01 0. -1.
        -11    1    4    4    0    0  0.90369122678E+01 -0.18156449292E+01  0.10089487248E+02  0.13666020005E+02  0.00000000000E+00 0.  1.
         12    1    4    4    0    0  0.13499612003E+02  0.10572408825E+02 -0.14447209423E+03  0.14548608650E+03  0.00000000000E+00 0. -1.
         -5    1    5    5    0  502 -0.14528011085E+03  0.56637466656E+02 -0.58339135952E+02  0.16655226814E+03  0.47000000000E+01 0.  1.
         11    1    6    6    0    0 -0.43555372212E+01 -0.25998543415E+02  0.11975208571E+02  0.28953420946E+02  0.00000000000E+00 0. -1.
        -12    1    6    6    0    0  0.23490266016E+01  0.42450394644E+02 -0.36422257564E+02  0.55983343750E+02  0.00000000000E+00 0.  1.
</event>
<event>
12    1  0.8219652E-002  0.1808172E+03  0.7818608E-02  0.1167203E+00
         21   -1    0    0  501  502  0.00000000000E+00  0.00000000000E+00  0.11903328895E+03  0.11903328895E+03  0.00000000000E+00 0. -1.
         21   -1    0    0  502  503 -0.00000000000E+00 -0.00000000000E+00 -0.27573866222E+03  0.27573866222E+03  0.00000000000E+00 0. -1.
         -6    2    1    2    0  503 -0.55318362945E+02  0.15694936887E+02 -0.96373139426E+02  0.20489666411E+03  0.17143047756E+03 0.  0.
        -24    2    3    3    0    0 -0.51501032998E+02 -0.26673762597E+02 -0.75486658099E+00  0.10013683018E+03  0.81627010992E+02 0.  0.
          6    2    1    2  501    0  0.55318362945E+02 -0.15694936887E+02 -0.60332233846E+02  0.18987528706E+03  0.17060537469E+03 0.  0.
         24    2    5    5    0    0 -0.31188764588E+02 -0.16954913923E+02 -0.43029907067E+02  0.10152071068E+03  0.84821422128E+02 0.  0.
          5    1    5    5  501    0  0.86507127533E+02  0.12599770356E+01 -0.17302326779E+02  0.88354576384E+02  0.47000000000E+01 0. -1.
        -13    1    6    6    0    0 -0.32313609322E+02 -0.35081680199E+02 -0.60011387189E+02  0.76656768947E+02  0.00000000000E+00 0.  1.
         14    1    6    6    0    0  0.11248447344E+01  0.18126766276E+02  0.16981480122E+02  0.24863941732E+02  0.00000000000E+00 0. -1.
         -5    1    3    3    0  503 -0.38173299467E+01  0.42368699484E+02 -0.95618272845E+02  0.10475983393E+03  0.47000000000E+01 0.  1.
         11    1    4    4    0    0 -0.30128688832E+02  0.27831390542E+02 -0.55742343171E+01  0.41393191209E+02  0.00000000000E+00 0. -1.
        -12    1    4    4    0    0 -0.21372344166E+02 -0.54505153139E+02  0.48193677361E+01  0.58743638968E+02  0.00000000000E+00 0.  1.
</event>
<event>
12    1  0.8219652E-002  0.1760035E+03  0.7818608E-02  0.1174237E+00
         21   -1    0    0  503  502  0.00000000000E+00  0.00000000000E+00  0.10537994678E+03  0.10537994678E+03  0.00000000000E+00 0.  1.
         21   -1    0    0  501  503 -0.00000000000E+00 -0.00000000000E+00 -0.30573692674E+03  0.30573692674E+03  0.00000000000E+00 0.  1.
          6    2    1    2  501    0  0.13592602269E+02  0.34283933527E+02 -0.40741522821E+02  0.18065745235E+03  0.17209618378E+03 0.  0.
         24    2    3    3    0    0  0.46741726389E+02  0.22608931311E+02 -0.82097635834E+02  0.12618187809E+03  0.80535034539E+02 0.  0.
         -6    2    1    2    0  502 -0.13592602269E+02 -0.34283933527E+02 -0.15961545714E+03  0.23045942118E+03  0.16209350301E+03 0.  0.
        -24    2    5    5    0    0  0.14234763051E+02 -0.53352453873E+02 -0.16616250184E+03  0.19577621886E+03  0.87574185911E+02 0.  0.
          5    1    3    3  501    0 -0.33149124120E+02  0.11675002216E+02  0.41356113014E+02  0.54475574254E+02  0.47000000000E+01 0. -1.
        -11    1    4    4    0    0  0.36453842354E+02  0.51436273262E+02 -0.42067855267E+02  0.75791010524E+02  0.00000000000E+00 0.  1.
         12    1    4    4    0    0  0.10287884035E+02 -0.28827341951E+02 -0.40029780568E+02  0.50390867567E+02  0.00000000000E+00 0. -1.
         -5    1    5    5    0  502 -0.27827365320E+02  0.19068520346E+02  0.65470447035E+01  0.34683202320E+02  0.47000000000E+01 0.  1.
         11    1    6    6    0    0 -0.27815377139E+02  0.81290027203E+01 -0.43482963077E+02  0.52254607152E+02  0.00000000000E+00 0. -1.
        -12    1    6    6    0    0  0.42050140190E+02 -0.61481456594E+02 -0.12267953877E+03  0.14352161171E+03  0.00000000000E+00 0.  1.
</event>
<event>
12    1  0.8219652E-002  0.1723955E+03  0.7818608E-02  0.1175806E+00
         21   -1    0    0  501  502  0.00000000000E+00  0.00000000000E+00  0.25970139660E+02  0.25970139660E+02  0.00000000000E+00 0.  1.
         21   -1    0    0  502  503 -0.00000000000E+00 -0.00000000000E+00 -0.11422944698E+04  0.11422944698E+04  0.00000000000E+00 0.  1.
         -6    2    1    2    0  503  0.55544264181E+01 -0.11377297457E+02 -0.50348657477E+03  0.53164043624E+03  0.17024255615E+03 0.  0.
        -24    2    3    3    0    0  0.53533912913E+01 -0.37847801802E+02 -0.13090378013E+03  0.15808889111E+03  0.79969887695E+02 0.  0.
          6    2    1    2  501    0 -0.55544264181E+01  0.11377297457E+02 -0.61283775539E+03  0.63662417324E+03  0.17193001184E+03 0.  0.
         24    2    5    5    0    0  0.34186013951E+02  0.35095976030E+02 -0.56066147820E+03  0.56672186845E+03  0.66573057249E+02 0.  0.
          5    1    5    5  501    0 -0.39740440369E+02 -0.23718678573E+02 -0.52176277184E+02  0.69902304789E+02  0.47000000000E+01 0. -1.
        -11    1    6    6    0    0 -0.16290627945E+02  0.26459381375E+02 -0.18616733930E+03  0.18874258037E+03  0.00000000000E+00 0.  1.
         12    1    6    6    0    0  0.50476641896E+02  0.86365946546E+01 -0.37449413891E+03  0.37797928808E+03  0.00000000000E+00 0. -1.
         -5    1    3    3    0  503  0.20103512684E+00  0.26470504346E+02 -0.37258279463E+03  0.37355154514E+03  0.47000000000E+01 0.  1.
         11    1    4    4    0    0 -0.15335184695E+02 -0.49232256967E+02 -0.12269227346E+03  0.13308785437E+03  0.00000000000E+00 0. -1.
        -12    1    4    4    0    0  0.20688575986E+02  0.11384455165E+02 -0.82115066767E+01  0.25001036731E+02  0.00000000000E+00 0.  1.
</event>
<event>
12    1  0.8219652E-002  0.2187073E+03  0.7818608E-02  0.1135033E+00
         21   -1    0    0  503  502  0.00000000000E+00  0.00000000000E+00  0.66006112142E+02  0.66006112142E+02  0.00000000000E+00 0. -1.
         21   -1    0    0  501  503 -0.00000000000E+00 -0.00000000000E+00 -0.93033084421E+03  0.93033084421E+03  0.00000000000E+00 0. -1.
          6    2    1    2  501    0 -0.27673222064E+01  0.13586503297E+03 -0.66745783004E+03  0.70207605841E+03  0.17012898533E+03 0.  0.
         24    2    3    3    0    0 -0.66751646442E+02  0.96965032674E+02 -0.45349810279E+03  0.47534260552E+03  0.80200146684E+02 0.  0.
         -6    2    1    2    0  502  0.27673222064E+01 -0.13586503297E+03 -0.19686690203E+03  0.29426089794E+03  0.17136491382E+03 0.  0.
        -24    2    5    5    0    0  0.47832570387E+02 -0.31144681690E+02 -0.54296955533E+02  0.11165337288E+03  0.79122501908E+02 0.  0.
          5    1    3    3  501    0  0.63984324236E+02  0.38900000300E+02 -0.21395972725E+03  0.22673345288E+03  0.47000000000E+01 0. -1.
        -13    1    4    4    0    0  0.86049149757E+01  0.41473243404E+02 -0.82683534269E+02  0.92901244983E+02  0.00000000000E+00 0.  1.
         14    1    4    4    0    0 -0.75356561418E+02  0.55491789270E+02 -0.37081456852E+03  0.38244136054E+03  0.00000000000E+00 0. -1.
         -5    1    5    5    0  502 -0.45065248180E+02 -0.10472035128E+03 -0.14256994649E+03  0.18260752506E+03  0.47000000000E+01 0.  1.
         11    1    6    6    0    0  0.11389748320E+02  0.25881213319E+02 -0.25603875461E+02  0.38146061504E+02  0.00000000000E+00 0. -1.
        -12    1    6    6    0    0  0.36442822067E+02 -0.57025895010E+02 -0.28693080072E+02  0.73507311377E+02  0.00000000000E+00 0.  1.
</event>
<event>
12    1  0.8219652E-002  0.1979006E+03  0.7818608E-02  0.1151548E+00
         21   -1    0    0  501  502  0.00000000000E+00  0.00000000000E+00  0.94850824295E+03  0.94850824295E+03  0.00000000000E+00 0. -1.
         21   -1    0    0  502  503 -0.00000000000E+00 -0.00000000000E+00 -0.63045919956E+02  0.63045919956E+02  0.00000000000E+00 0.  1.
         -6    2    1    2    0  503  0.51316502950E+02 -0.85788409967E+02  0.14537028087E+03  0.24545959042E+03  0.17066006332E+03 0.  0.
        -24    2    3    3    0    0  0.57577045967E+01 -0.68337483070E+01  0.72852317712E+01  0.79933116741E+02  0.79097264630E+02 0.  0.
          6    2    1    2  501    0 -0.51316502950E+02  0.85788409967E+02  0.74009204212E+03  0.76609457248E+03  0.17079703864E+03 0.  0.
         24    2    5    5    0    0 -0.58996000009E+02  0.80398966030E+02  0.29287294241E+03  0.31875238362E+03  0.76707235090E+02 0.  0.
          5    1    5    5  501    0  0.76794970589E+01  0.53894439371E+01  0.44721909972E+03  0.44734218886E+03  0.47000000000E+01 0. -1.
        -11    1    6    6    0    0 -0.97229384105E+01 -0.13385369201E+02  0.70756655181E+02  0.72665038997E+02  0.00000000000E+00 0.  1.
         12    1    6    6    0    0 -0.49273061598E+02  0.93784335230E+02  0.22211628723E+03  0.24608734463E+03  0.00000000000E+00 0. -1.
         -5    1    3    3    0  503  0.45558798353E+02 -0.78954661660E+02  0.13808504909E+03  0.16552647368E+03  0.47000000000E+01 0.  1.
         13    1    4    4    0    0 -0.11530162941E+02 -0.38372688428E+02  0.15635504176E+02  0.43010194902E+02  0.00000000000E+00 0. -1.
        -14    1    4    4    0    0  0.17287867538E+02  0.31538940121E+02 -0.83502724049E+01  0.36922921840E+02  0.00000000000E+00 0.  1.
</event>
<event>
12    1  0.8219652E-002  0.2765015E+03  0.7818608E-02  0.1098438E+00
         21   -1    0    0  503  502  0.00000000000E+00  0.00000000000E+00  0.42053688133E+02  0.42053688133E+02  0.00000000000E+00 0. -1.
         21   -1    0    0  501  503 -0.00000000000E+00 -0.00000000000E+00 -0.18769048377E+04  0.18769048377E+04  0.00000000000E+00 0. -1.
          6    2    1    2  501    0 -0.20350329888E+03 -0.52909155569E+02 -0.11265129119E+04  0.11585664224E+04  0.17038733245E+03 0.  0.
         24    2    3    3    0    0 -0.27431721807E+02  0.26598901755E+01 -0.27450599378E+03  0.28677114964E+03  0.78259678433E+02 0.  0.
         -6    2    1    2    0  502  0.20350329888E+03  0.52909155569E+02 -0.70833823769E+03  0.76039210345E+03  0.17955534136E+03 0.  0.
        -24    2    5    5    0    0  0.13652087814E+03  0.80152973604E+02 -0.31985553756E+03  0.36520889453E+03  0.77508208529E+02 0.  0.
          5    1    3    3  501    0 -0.17607157707E+03 -0.55569045745E+02 -0.85200691809E+03  0.87179527274E+03  0.47000000000E+01 0. -1.
        -13    1    4    4    0    0 -0.24191498393E+02  0.37575529226E+02 -0.19182065895E+03  0.19695764568E+03  0.00000000000E+00 0.  1.
         14    1    4    4    0    0 -0.32402234135E+01 -0.34915639051E+02 -0.82685334823E+02  0.89813503956E+02  0.00000000000E+00 0. -1.
         -5    1    5    5    0  502  0.66982420737E+02 -0.27243818035E+02 -0.38848270013E+03  0.39518320892E+03  0.47000000000E+01 0.  1.
         11    1    6    6    0    0  0.75508735539E+02  0.58270875218E+02 -0.26015180680E+03  0.27708487260E+03  0.00000000000E+00 0. -1.
        -12    1    6    6    0    0  0.61012142601E+02  0.21882098385E+02 -0.59703730759E+02  0.88124021929E+02  0.00000000000E+00 0.  1.
</event>
<event>
12    1  0.8219652E-002  0.1765863E+03  0.7818608E-02  0.1172316E+00
         21   -1    0    0  501  502  0.00000000000E+00  0.00000000000E+00  0.33331576265E+03  0.33331576265E+03  0.00000000000E+00 0.  1.
         21   -1    0    0  502  503 -0.00000000000E+00 -0.00000000000E+00 -0.19272618477E+03  0.19272618477E+03  0.00000000000E+00 0.  1.
         -6    2    1    2    0  503  0.13601282590E+02 -0.11855362647E+02 -0.12112584769E+03  0.21032420419E+03  0.17099489868E+03 0.  0.
        -24    2    3    3    0    0  0.70406605962E+02  0.17732815447E+02 -0.65718044873E+02  0.12550427929E+03  0.78491526878E+02 0.  0.
          6    2    1    2  501    0 -0.13601282590E+02  0.11855362647E+02  0.26171542557E+03  0.31571774323E+03  0.17566213280E+03 0.  0.
         24    2    5    5    0    0 -0.19937818521E+02 -0.58585852382E+02  0.18422604028E+03  0.21069959578E+03  0.81395743359E+02 0.  0.
          5    1    5    5  501    0  0.63365359309E+01  0.70441215029E+02  0.77489385288E+02  0.10501814745E+03  0.47000000000E+01 0. -1.
        -11    1    6    6    0    0 -0.32203022200E+02 -0.12065733511E+02  0.14381547903E+03  0.14786990422E+03  0.00000000000E+00 0.  1.
         12    1    6    6    0    0  0.12265203679E+02 -0.46520118871E+02  0.40410561244E+02  0.62829691557E+02  0.00000000000E+00 0. -1.
         -5    1    3    3    0  503 -0.56805323372E+02 -0.29588178093E+02 -0.55407802816E+02  0.84819924895E+02  0.47000000000E+01 0.  1.
         13    1    4    4    0    0 -0.16260355297E+02 -0.54099938110E+01 -0.87674741473E+01  0.19249306230E+02  0.00000000000E+00 0. -1.
        -14    1    4    4    0    0  0.86666961259E+02  0.23142809258E+02 -0.56950570726E+02  0.10625497306E+03  0.00000000000E+00 0.  1.
</event>
<event>
12    1  0.8219652E-002  0.2531410E+03  0.7818608E-02  0.1111378E+00
         21   -1    0    0  503  502  0.00000000000E+00  0.00000000000E+00  0.24921045654E+04  0.24921045654E+04  0.00000000000E+00 0.  1.
         21   -1    0    0  501  503 -0.00000000000E+00 -0.00000000000E+00 -0.26906589564E+02  0.26906589564E+02  0.00000000000E+00 0.  1.
          6    2    1    2  501    0  0.15992764510E+03  0.94169552068E+02  0.96495825355E+03  0.99760955181E+03  0.17215002340E+03 0.  0.
         24    2    3    3    0    0  0.60032701613E+02  0.11709936716E+03  0.49554292377E+03  0.51711229064E+03  0.67276628788E+02 0.  0.
         -6    2    1    2    0  502 -0.15992764510E+03 -0.94169552068E+02  0.15002397223E+04  0.15214016032E+04  0.17175231460E+03 0.  0.
        -24    2    5    5    0    0 -0.88311246028E+02 -0.12302856500E+03  0.89713605124E+03  0.91335729616E+03  0.80209426105E+02 0.  0.
          5    1    3    3  501    0  0.99894943484E+02 -0.22929815092E+02  0.46941532979E+03  0.48049726117E+03  0.47000000000E+01 0. -1.
        -11    1    4    4    0    0  0.20939741294E+02  0.72772999323E+01  0.30648938012E+02  0.37825775088E+02  0.00000000000E+00 0.  1.
         12    1    4    4    0    0  0.39092960319E+02  0.10982206723E+03  0.46489398575E+03  0.47928651555E+03  0.00000000000E+00 0. -1.
         -5    1    5    5    0  502 -0.71616399069E+02  0.28859012937E+02  0.60310367108E+03  0.60804430703E+03  0.47000000000E+01 0.  1.
         13    1    6    6    0    0 -0.32564623918E+01 -0.19957678432E+01 -0.28091245280E+00  0.38296929902E+01  0.00000000000E+00 0. -1.
        -14    1    6    6    0    0 -0.85054783636E+02 -0.12103279716E+03  0.89741696369E+03  0.90952760317E+03  0.00000000000E+00 0.  1.
</event>
<event>
12    1  0.8219652E-002  0.1873362E+03  0.7818608E-02  0.1162205E+00
         21   -1    0    0  501  502  0.00000000000E+00  0.00000000000E+00  0.19291412242E+03  0.19291412242E+03  0.00000000000E+00 0. -1.
         21   -1    0    0  502  503 -0.00000000000E+00 -0.00000000000E+00 -0.27016638676E+03  0.27016638676E+03  0.00000000000E+00 0. -1.
         -6    2    1    2    0  503  0.55353867995E+02 -0.13050982379E+02 -0.17535473236E+03  0.25660109077E+03  0.17849498251E+03 0.  0.
        -24    2    3    3    0    0  0.73169630177E+02 -0.66907237323E+02 -0.14180073152E+03  0.19052644699E+03  0.79765320513E+02 0.  0.
          6    2    1    2  501    0 -0.55353867995E+02  0.13050982379E+02  0.98102468015E+02  0.20647941841E+03  0.17255514235E+03 0.  0.
         24    2    5    5    0    0  0.35534088131E+02 -0.16511008963E+01  0.62817784689E+02  0.10776837192E+03  0.80015938158E+02 0.  0.
          5    1    5    5  501    0 -0.90887956125E+02  0.14702083276E+02  0.35284683326E+02  0.98711046488E+02  0.47000000000E+01 0. -1.
        -13    1    6    6    0    0  0.28379502609E+02 -0.38009518566E+02  0.49057129821E+02  0.68240176262E+02  0.00000000000E+00 0.  1.
         14    1    6    6    0    0  0.71545855219E+01  0.36358417670E+02  0.13760654868E+02  0.39528195657E+02  0.00000000000E+00 0. -1.
         -5    1    3    3    0  503 -0.17815762182E+02  0.53856254943E+02 -0.33554000844E+02  0.66074643785E+02  0.47000000000E+01 0.  1.
         11    1    4    4    0    0  0.21526881335E+02 -0.43936340378E+01 -0.93712265772E+02  0.96253308495E+02  0.00000000000E+00 0. -1.
        -12    1    4    4    0    0  0.51642748842E+02 -0.62513603285E+02 -0.48088465747E+02  0.94273138494E+02  0.00000000000E+00 0.  1.
</event>
<event>
12    1  0.8219652E-002  0.1844797E+03  0.7818608E-02  0.1163549E+00
         21   -1    0    0  501  502  0.00000000000E+00  0.00000000000E+00  0.88552318666E+02  0.88552318666E+02  0.00000000000E+00 0. -1.
         21   -1    0    0  502  503 -0.00000000000E+00 -0.00000000000E+00 -0.10717101270E+04  0.10717101270E+04  0.00000000000E+00 0. -1.
         -6    2    1    2    0  503 -0.18315854894E+02 -0.64928848489E+02 -0.95625229774E+03  0.97388459862E+03  0.17170185958E+03 0.  0.
        -24    2    3    3    0    0 -0.28519754656E+02 -0.10924175821E+03 -0.68744429138E+03  0.70121705778E+03  0.79865951689E+02 0.  0.
          6    2    1    2  501    0  0.18315854894E+02  0.64928848489E+02 -0.26905510592E+02  0.18637784705E+03  0.17164372830E+03 0.  0.
         24    2    5    5    0    0  0.93477992420E+01  0.10879636084E+03 -0.40349798444E+01  0.13588095765E+03  0.80767097923E+02 0.  0.
          5    1    5    5  501    0  0.89680556518E+01 -0.43867512352E+02 -0.22870530748E+02  0.50496889398E+02  0.47000000000E+01 0. -1.
        -11    1    6    6    0    0 -0.98588045844E+01  0.85728711149E+02 -0.34663979288E+02  0.92995695617E+02  0.00000000000E+00 0.  1.
         12    1    6    6    0    0  0.19206603826E+02  0.23067649692E+02  0.30628999444E+02  0.42885262035E+02  0.00000000000E+00 0. -1.
         -5    1    3    3    0  503  0.10203899763E+02  0.44312909719E+02 -0.26880800636E+03  0.27266754083E+03  0.47000000000E+01 0.  1.
         13    1    4    4    0    0  0.24366227649E+02 -0.63448163237E+02 -0.31306694667E+03  0.32035963473E+03  0.00000000000E+00 0. -1.
        -14    1    4    4    0    0 -0.52885982306E+02 -0.45793594971E+02 -0.37437734471E+03  0.38085742305E+03  0.00000000000E+00 0.  1.
</event>
<event>
12    1  0.8219652E-002  0.2380661E+03  0.7818608E-02  0.1122833E+00
         21   -1    0    0  501  502  0.00000000000E+00  0.00000000000E+00  0.64573905611E+03  0.64573905611E+03  0.00000000000E+00 0.  1.
         21   -1    0    0  502  503 -0.00000000000E+00 -0.00000000000E+00 -0.94954247853E+02  0.94954247853E+02  0.00000000000E+00 0. -1.
         -6    2    1    2    0  503  0.25626188786E+02 -0.15628102485E+03  0.40603604709E+03  0.47068115818E+03  0.17774988284E+03 0.  0.
        -24    2    3    3    0    0  0.53109740032E+02 -0.23908730158E+02  0.11671914960E+03  0.15130030846E+03  0.76656060388E+02 0.  0.
          6    2    1    2  501    0 -0.25626188786E+02  0.15628102485E+03  0.14474876117E+03  0.27001214578E+03  0.16393259203E+03 0.  0.
         24    2    5    5    0    0  0.12610111196E+02  0.21677381900E+02  0.77174899621E+02  0.11455002147E+03  0.80850593669E+02 0.  0.
          5    1    5    5  501    0 -0.38236299982E+02  0.13460364295E+03  0.67573861545E+02  0.15546212431E+03  0.47000000000E+01 0. -1.
        -11    1    6    6    0    0 -0.23904733983E+02  0.39680602879E+01  0.69027995368E+02  0.73157678707E+02  0.00000000000E+00 0.  1.
         12    1    6    6    0    0  0.36514845179E+02  0.17709321612E+02  0.81469042532E+01  0.41392342762E+02  0.00000000000E+00 0. -1.
         -5    1    3    3    0  503 -0.27483551246E+02 -0.13237229469E+03  0.28931689749E+03  0.31938084971E+03  0.47000000000E+01 0.  1.
         13    1    4    4    0    0  0.25429009867E+02  0.18872090663E+01 -0.30647787235E+01  0.25682464241E+02  0.00000000000E+00 0. -1.
        -14    1    4    4    0    0  0.27680730165E+02 -0.25795939224E+02  0.11978392832E+03  0.12561784422E+03  0.00000000000E+00 0.  1.
</event>
<event>
12    1  0.8219652E-002  0.2060817E+03  0.7818608E-02  0.1144746E+00
         21   -1    0    0  503  502  0.00000000000E+00  0.00000000000E+00  0.22611915119E+03  0.22611915119E+03  0.00000000000E+00 0. -1.
         21   -1    0    0  501  503 -0.00000000000E+00 -0.00000000000E+00 -0.51152843514E+03  0.51152843514E+03  0.00000000000E+00 0.  1.
          6    2    1    2  501    0 -0.10203104168E+03 -0.46495797265E+02 -0.43616090094E+03  0.48231310427E+03  0.17267717399E+03 0.  0.
         24    2    3    3    0    0 -0.53858230135E+02 -0.83674912061E+02 -0.37441555530E+03  0.39549441932E+03  0.79540101850E+02 0.  0.
         -6    2    1    2    0  502  0.10203104168E+03  0.46495797265E+02  0.15075161698E+03  0.25533448206E+03  0.17290880567E+03 0.  0.
        -24    2    5    5    0    0  0.26933605137E+02 -0.17859879930E+02  0.16970493754E+02  0.88899037837E+02  0.81059526728E+02 0.  0.
          5    1    3    3  501    0 -0.48172811544E+02  0.37179114796E+02 -0.61745345639E+02  0.86818684954E+02  0.47000000000E+01 0. -1.
        -13    1    4    4    0    0 -0.59249387558E+02 -0.47544523101E+02 -0.32661565569E+03  0.33533380108E+03  0.00000000000E+00 0.  1.
         14    1    4    4    0    0  0.53911574236E+01 -0.36130388960E+02 -0.47799899605E+02  0.60160618240E+02  0.00000000000E+00 0. -1.
         -5    1    5    5    0  502  0.75097436542E+02  0.64355677194E+02  0.13378112323E+03  0.16643544422E+03  0.47000000000E+01 0.  1.
         13    1    6    6    0    0  0.27828660918E+02 -0.17523935145E+02  0.47818836944E+02  0.58035884056E+02  0.00000000000E+00 0. -1.
        -14    1    6    6    0    0 -0.89505578047E+00 -0.33594478476E+00 -0.30848343190E+02  0.30863153781E+02  0.00000000000E+00 0.  1.
</event>
<event>
12    1  0.8219652E-002  0.2112251E+03  0.7818608E-02  0.1140827E+00
         21   -1    0    0  503  502  0.00000000000E+00  0.00000000000E+00  0.31362853382E+03  0.31362853382E+03  0.00000000000E+00 0. -1.
         21   -1    0    0  501  503 -0.00000000000E+00 -0.00000000000E+00 -0.40248377822E+03  0.40248377822E+03  0.00000000000E+00 0.  1.
          6    2    1    2  501    0  0.46577235843E+02  0.11136836930E+03 -0.33280720652E+03  0.39417849288E+03  0.17333117133E+03 0.  0.
         24    2    3    3    0    0  0.80146043682E+02  0.44221034804E+02 -0.13095314852E+03  0.17876544749E+03  0.80183975165E+02 0.  0.
         -6    2    1    2    0  502 -0.46577235843E+02 -0.11136836930E+03  0.24395196213E+03  0.32193381916E+03  0.17191995670E+03 0.  0.
        -24    2    5    5    0    0 -0.64733181016E+01 -0.12853889061E+03  0.23247896158E+03  0.27658108207E+03  0.76723380602E+02 0.  0.
          5    1    3    3  501    0 -0.33568807839E+02  0.67147334500E+02 -0.20185405801E+03  0.21541304539E+03  0.47000000000E+01 0. -1.
        -11    1    4    4    0    0  0.68803360083E+02  0.10707386074E+02 -0.12471747644E+03  0.14283906820E+03  0.00000000000E+00 0.  1.
         12    1    4    4    0    0  0.11342683599E+02  0.33513648730E+02 -0.62356720738E+01  0.35926379287E+02  0.00000000000E+00 0. -1.
         -5    1    5    5    0  502 -0.40103917742E+02  0.17170521308E+02  0.11473000546E+02  0.45352737092E+02  0.47000000000E+01 0.  1.
         13    1    6    6    0    0 -0.27584241683E+00 -0.71209587974E+02  0.19553509815E+03  0.20809818865E+03  0.00000000000E+00 0. -1.
        -14    1    6    6    0    0 -0.61974756847E+01 -0.57329302638E+02  0.36943863429E+02  0.68482893418E+02  0.00000000000E+00 0.  1.
</event>
<event>
12    1  0.8219652E-002  0.2177238E+03  0.7818608E-02  0.1135644E+00
         21   -1    0    0  503  502  0.00000000000E+00  0.00000000000E+00  0.10558398167E+03  0.10558398167E+03  0.00000000000E+00 0.  1.
         21   -1    0    0  501  503 -0.00000000000E+00 -0.00000000000E+00 -0.61472335086E+03  0.61472335086E+03  0.00000000000E+00 0.  1.
          6    2    1    2  501    0 -0.10378838743E+03  0.86195532201E+02 -0.44202888568E+03  0.49274047746E+03  0.17088576072E+03 0.  0.
         24    2    3    3    0    0 -0.58036526136E+01  0.41368167335E+02 -0.30680928763E+03  0.31977536365E+03  0.79870749159E+02 0.  0.
         -6    2    1    2    0  502  0.10378838743E+03 -0.86195532201E+02 -0.67110483512E+02  0.22756685506E+03  0.17053198348E+03 0.  0.
        -24    2    5    5    0    0  0.22314921715E+02  0.18150344322E+02 -0.34711193234E+02  0.91193134815E+02  0.79271244291E+02 0.  0.
          5    1    3    3  501    0 -0.97984734819E+02  0.44827364866E+02 -0.13521959805E+03  0.17296511381E+03  0.47000000000E+01 0. -1.
        -11    1    4    4    0    0 -0.37603445448E+02  0.18178941929E+02 -0.87436931002E+02  0.96900515697E+02  0.00000000000E+00 0.  1.
         12    1    4    4    0    0  0.31799792834E+02  0.23189225406E+02 -0.21937235663E+03  0.22287484796E+03  0.00000000000E+00 0. -1.
         -5    1    5    5    0  502  0.81473465718E+02 -0.10434587652E+03 -0.32399290278E+02  0.13637372025E+03  0.47000000000E+01 0.  1.
         11    1    6    6    0    0 -0.19498165559E+02  0.50058477728E+01  0.14861800078E+02  0.25022191624E+02  0.00000000000E+00 0. -1.
        -12    1    6    6    0    0  0.41813087274E+02  0.13144496549E+02 -0.49572993312E+02  0.66170943191E+02  0.00000000000E+00 0.  1.
</event>
<event>
12    1  0.8219652E-002  0.2150065E+03  0.7818608E-02  0.1137715E+00
         21   -1    0    0  503  502  0.00000000000E+00  0.00000000000E+00  0.11993291792E+04  0.11993291792E+04  0.00000000000E+00 0. -1.
         21   -1    0    0  501  503 -0.00000000000E+00 -0.00000000000E+00 -0.87960741039E+02  0.87960741039E+02  0.00000000000E+00 0. -1.
          6    2    1    2  501    0 -0.11148729247E+03  0.64954500916E+02  0.72854820924E+02  0.22675310345E+03  0.17164102488E+03 0.  0.
         24    2    3    3    0    0 -0.13079972327E+03  0.40454547002E+02  0.98690839375E+02  0.18597556583E+03  0.78114603812E+02 0.  0.
         -6    2    1    2    0  502  0.11148729247E+03 -0.64954500916E+02  0.10385136172E+04  0.10605368168E+04  0.17198634539E+03 0.  0.
        -24    2    5    5    0    0  0.39988848836E+02  0.30448739363E+02  0.43137020307E+03  0.44178078969E+03  0.81017160435E+02 0.  0.
          5    1    3    3  501    0  0.19312430800E+02  0.24499953914E+02 -0.25836018452E+02  0.40777537623E+02  0.47000000000E+01 0. -1.
        -13    1    4    4    0    0  0.83683483315E+01  0.33011298193E+01  0.19791976140E+02  0.21740492897E+02  0.00000000000E+00 0.  1.
         14    1    4    4    0    0 -0.13916807160E+03  0.37153417183E+02  0.78898863235E+02  0.16423507293E+03  0.00000000000E+00 0. -1.
         -5    1    5    5    0  502  0.71498443634E+02 -0.95403240279E+02  0.60714341417E+03  0.61875602710E+03  0.47000000000E+01 0.  1.
         11    1    6    6    0    0  0.36198010837E+02  0.39658702573E+02  0.13561493892E+03  0.14585787718E+03  0.00000000000E+00 0. -1.
        -12    1    6    6    0    0  0.37908379993E+01 -0.92099632101E+01  0.29575526416E+03  0.29592291251E+03  0.00000000000E+00 0.  1.
</event>
<event>
12    1  0.8219652E-002  0.2262755E+03  0.7818608E-02  0.1129409E+00
         21   -1    0    0  503  502  0.00000000000E+00  0.00000000000E+00  0.12729389977E+03  0.12729389977E+03  0.00000000000E+00 0. -1.
         21   -1    0    0  501  503 -0.00000000000E+00 -0.00000000000E+00 -0.12596324138E+04  0.12596324138E+04  0.00000000000E+00 0.  1.
          6    2    1    2  501    0  0.37090673784E+02  0.14156687133E+03 -0.11389619026E+04  0.11612212621E+04  0.17257956645E+03 0.  0.
         24    2    3    3    0    0 -0.42538089943E+02  0.60462912719E+02 -0.65200789828E+03  0.66115638184E+03  0.80921004148E+02 0.  0.
         -6    2    1    2    0  502 -0.37090673784E+02 -0.14156687133E+03  0.66233886129E+01  0.22570505146E+03  0.17170324353E+03 0.  0.
        -24    2    5    5    0    0 -0.55391827773E+02 -0.16051970927E+03  0.29764544164E+02  0.19032503755E+03  0.80640313621E+02 0.  0.
          5    1    3    3  501    0  0.79628763727E+02  0.81103958606E+02 -0.48695400435E+03  0.50006488026E+03  0.47000000000E+01 0. -1.
        -13    1    4    4    0    0 -0.40592384869E+02  0.74090944813E+02 -0.62650359997E+03  0.63217400341E+03  0.00000000000E+00 0.  1.
         14    1    4    4    0    0 -0.19457050739E+01 -0.13628032093E+02 -0.25504298319E+02  0.28982378434E+02  0.00000000000E+00 0. -1.
         -5    1    5    5    0  502  0.18301153989E+02  0.18952837949E+02 -0.23141155551E+02  0.35380013905E+02  0.47000000000E+01 0.  1.
         13    1    6    6    0    0 -0.14225098065E+02 -0.14220566897E+03  0.21743336526E+02  0.14455994737E+03  0.00000000000E+00 0. -1.
        -14    1    6    6    0    0 -0.41166729707E+02 -0.18314040307E+02  0.80212076384E+01  0.45765090180E+02  0.00000000000E+00 0.  1.
</event>
<event>
12    1  0.8219652E-002  0.2146249E+03  0.7818608E-02  0.1138396E+00
         21   -1    0    0  501  502  0.00000000000E+00  0.00000000000E+00  0.36684180245E+03  0.36684180245E+03  0.00000000000E+00 0. -1.
         21   -1    0    0  502  503 -0.00000000000E+00 -0.00000000000E+00 -0.12434052872E+03  0.12434052872E+03  0.00000000000E+00 0. -1.
         -6    2    1    2    0  503 -0.21372517688E+02 -0.12220528604E+03  0.12891493692E+03  0.25036556773E+03  0.17513691813E+03 0.  0.
        -24    2    3    3    0    0  0.37569529906E+01 -0.13482948772E+03  0.46281541225E+02  0.16295144502E+03  0.78854847164E+02 0.  0.
          6    2    1    2  501    0  0.21372517688E+02  0.12220528604E+03  0.11358633681E+03  0.24081676345E+03  0.17233670880E+03 0.  0.
         24    2    5    5    0    0 -0.49178225068E+02  0.10115538760E+03  0.86261183770E+02  0.16214491641E+03  0.78734184643E+02 0.  0.
          5    1    5    5  501    0  0.70550742756E+02  0.21049898442E+02  0.27325153036E+02  0.78671847038E+02  0.47000000000E+01 0. -1.
        -11    1    6    6    0    0 -0.65258836098E+01 -0.13472140495E+02  0.85533281862E+01  0.17240798980E+02  0.00000000000E+00 0.  1.
         12    1    6    6    0    0 -0.42652341458E+02  0.11462752809E+03  0.77707855584E+02  0.14490411743E+03  0.00000000000E+00 0. -1.
         -5    1    3    3    0  503 -0.25129470679E+02  0.12624201677E+02  0.82633395699E+02  0.87414122711E+02  0.47000000000E+01 0.  1.
         11    1    4    4    0    0 -0.30336789965E+02 -0.48915340547E+02 -0.40562034309E+01  0.57701682406E+02  0.00000000000E+00 0. -1.
        -12    1    4    4    0    0  0.34093742956E+02 -0.85914147171E+02  0.50337744656E+02  0.10524976261E+03  0.00000000000E+00 0.  1.
</event>
<event>
12    1  0.8219652E-002  0.2354712E+03  0.7818608E-02  0.1123107E+00
         21   -1    0    0  501  502  0.00000000000E+00  0.00000000000E+00  0.23122789203E+03  0.23122789203E+03  0.00000000000E+00 0. -1.
         21   -1    0    0  502  503 -0.00000000000E+00 -0.00000000000E+00 -0.27004119456E+03  0.27004119456E+03  0.00000000000E+00 0. -1.
         -6    2    1    2    0  503  0.80527442808E+02 -0.13820928627E+03 -0.10534465098E+03  0.25657931561E+03  0.17073070565E+03 0.  0.
        -24    2    3    3    0    0  0.11978512186E+03 -0.79950735668E+02 -0.76859975228E+02  0.18062741744E+03  0.77318901877E+02 0.  0.
          6    2    1    2  501    0 -0.80527442808E+02  0.13820928627E+03  0.66531348451E+02  0.24468977098E+03  0.17280100648E+03 0.  0.
         24    2    5    5    0    0 -0.13921511867E+02  0.58511299282E+02  0.95118436711E+02  0.13685920583E+03  0.77881606182E+02 0.  0.
          5    1    5    5  501    0 -0.66605930941E+02  0.79697986984E+02 -0.28587088260E+02  0.10783056515E+03  0.47000000000E+01 0. -1.
        -11    1    6    6    0    0  0.19243336072E+02  0.45660765457E+02  0.87392626848E+02  0.10046234475E+03  0.00000000000E+00 0.  1.
         12    1    6    6    0    0 -0.33164847938E+02  0.12850533825E+02  0.77258098627E+01  0.36396861079E+02  0.00000000000E+00 0. -1.
         -5    1    3    3    0  503 -0.39257679052E+02 -0.58258550597E+02 -0.28484675749E+02  0.75951898164E+02  0.47000000000E+01 0.  1.
         13    1    4    4    0    0  0.11168530536E+03 -0.74727128755E+02 -0.36662555135E+02  0.13929068222E+03  0.00000000000E+00 0. -1.
        -14    1    4    4    0    0  0.80998164995E+01 -0.52236069130E+01 -0.40197420092E+02  0.41336735219E+02  0.00000000000E+00 0.  1.
</event>
<event>
12    1  0.8219652E-002  0.1929221E+03  0.7818608E-02  0.1156064E+00
         21   -1    0    0  503  502  0.00000000000E+00  0.00000000000E+00  0.31386028791E+03  0.31386028791E+03  0.00000000000E+00 0. -1.
         21   -1    0    0  501  503 -0.00000000000E+00 -0.00000000000E+00 -0.12942827645E+03  0.12942827645E+03  0.00000000000E+00 0.  1.
          6    2    1    2  501    0 -0.82814806273E+02 -0.91377629142E+01  0.26136347416E+02  0.19373603907E+03  0.17294147371E+03 0.  0.
         24    2    3    3    0    0  0.48763763585E+01  0.22459594245E+02 -0.24841768407E+02  0.87392281455E+02  0.80573475662E+02 0.  0.
         -6    2    1    2    0  502  0.82814806273E+02  0.91377629142E+01  0.15829566404E+03  0.24955252530E+03  0.17400331830E+03 0.  0.
        -24    2    5    5    0    0  0.79472774401E+02  0.22379581270E+02  0.18566859785E+03  0.21860284944E+03  0.80607754136E+02 0.  0.
          5    1    3    3  501    0 -0.87691182632E+02 -0.31597357159E+02  0.50978115822E+02  0.10634375761E+03  0.47000000000E+01 0. -1.
        -13    1    4    4    0    0  0.40659234707E+02  0.84982673621E+01  0.20320458385E+00  0.41538358264E+02  0.00000000000E+00 0.  1.
         14    1    4    4    0    0 -0.35782858349E+02  0.13961326882E+02 -0.25044972990E+02  0.45853923191E+02  0.00000000000E+00 0. -1.
         -5    1    5    5    0  502  0.33420318726E+01 -0.13241818356E+02 -0.27372933808E+02  0.30949675858E+02  0.47000000000E+01 0.  1.
         13    1    6    6    0    0 -0.45539792698E+01 -0.14155848176E+02  0.67255357418E+02  0.68879676728E+02  0.00000000000E+00 0. -1.
        -14    1    6    6    0    0  0.84026753670E+02  0.36535429446E+02  0.11841324044E+03  0.14972317271E+03  0.00000000000E+00 0.  1.
</event>
<event>
12    1  0.8219652E-002  0.2129007E+03  0.7818608E-02  0.1139503E+00
         21   -1    0    0  503  502  0.00000000000E+00  0.00000000000E+00  0.25760362930E+03  0.25760362930E+03  0.00000000000E+00 0. -1.
         21   -1    0    0  501  503 -0.00000000000E+00 -0.00000000000E+00 -0.38864326277E+03  0.38864326277E+03  0.00000000000E+00 0. -1.
          6    2    1    2  501    0  0.12234409870E+03 -0.29322858755E+02 -0.30514107534E+03  0.37207227083E+03  0.17175211885E+03 0.  0.
         24    2    3    3    0    0  0.64018516840E+02  0.51029453495E+02 -0.13076300739E+03  0.17135314328E+03  0.74569162445E+02 0.  0.
         -6    2    1    2    0  502 -0.12234409870E+03  0.29322858755E+02  0.17410144186E+03  0.27417462124E+03  0.17038926709E+03 0.  0.
        -24    2    5    5    0    0 -0.12428916601E+03  0.11351922781E+02  0.60156933386E+02  0.15870956662E+03  0.77415805644E+02 0.  0.
          5    1    3    3  501    0  0.58325581861E+02 -0.80352312250E+02 -0.17437806795E+03  0.20071912755E+03  0.47000000000E+01 0. -1.
        -13    1    4    4    0    0  0.63726074003E+02  0.69434905128E+01 -0.58955361866E+02  0.87091671595E+02  0.00000000000E+00 0.  1.
         14    1    4    4    0    0  0.29244283624E+00  0.44085962982E+02 -0.71807645521E+02  0.84261471683E+02  0.00000000000E+00 0. -1.
         -5    1    5    5    0  502  0.19450673096E+01  0.17970935974E+02  0.11394450848E+03  0.11546505462E+03  0.47000000000E+01 0.  1.
         11    1    6    6    0    0 -0.40577487209E+02  0.17383433365E+02 -0.14414348021E+02  0.46438019474E+02  0.00000000000E+00 0. -1.
        -12    1    6    6    0    0 -0.83711678801E+02 -0.60315105845E+01  0.74571281407E+02  0.11227154714E+03  0.00000000000E+00 0.  1.
</event>
<event>
12    1  0.8219652E-002  0.1920156E+03  0.7818608E-02  0.1157047E+00
         21   -1    0    0  503  502  0.00000000000E+00  0.00000000000E+00  0.11904977801E+03  0.11904977801E+03  0.00000000000E+00 0.  1.
         21   -1    0    0  501  503 -0.00000000000E+00 -0.00000000000E+00 -0.51777228693E+03  0.51777228693E+03  0.00000000000E+00 0.  1.
          6    2    1    2  501    0 -0.37722003304E+02  0.74728562601E+02 -0.40311102632E+03  0.44650697555E+03  0.17280819446E+03 0.  0.
         24    2    3    3    0    0 -0.62633203938E+01 -0.28136092896E+02 -0.17448730096E+03  0.19379828184E+03  0.79253308701E+02 0.  0.
         -6    2    1    2    0  502  0.37722003304E+02 -0.74728562601E+02  0.43885174002E+01  0.19031508939E+03  0.17086037154E+03 0.  0.
        -24    2    5    5    0    0  0.59480420200E+02 -0.63470369052E+02  0.57825709038E+02  0.13134222209E+03  0.79627624242E+02 0.  0.
          5    1    3    3  501    0 -0.31458682911E+02  0.10286465550E+03 -0.22862372536E+03  0.25270869371E+03  0.47000000000E+01 0. -1.
        -11    1    4    4    0    0 -0.36821300081E+02 -0.37049080716E+02 -0.11575484003E+03  0.12699458851E+03  0.00000000000E+00 0.  1.
         12    1    4    4    0    0  0.30557979687E+02  0.89129878205E+01 -0.58732460937E+02  0.66803693327E+02  0.00000000000E+00 0. -1.
         -5    1    5    5    0  502 -0.21758416896E+02 -0.11258193549E+02 -0.53437191638E+02  0.58972867303E+02  0.47000000000E+01 0.  1.
         13    1    6    6    0    0 -0.89503666567E+01 -0.36581023946E+02 -0.22949205343E+00  0.37660762642E+02  0.00000000000E+00 0. -1.
        -14    1    6    6    0    0  0.68430786857E+02 -0.26889345106E+02  0.58055201092E+02  0.93681459446E+02  0.00000000000E+00 0.  1.
</event>
<event>
12    1  0.8219652E-002  0.1955550E+03  0.7818608E-02  0.1154886E+00
         21   -1    0    0  501  502  0.00000000000E+00  0.00000000000E+00  0.12584089980E+03  0.12584089980E+03  0.00000000000E+00 0. -1.
         21   -1    0    0  502  503 -0.00000000000E+00 -0.00000000000E+00 -0.34257200834E+03  0.34257200834E+03  0.00000000000E+00 0.  1.
         -6    2    1    2    0  503  0.54956679185E+02 -0.54570641042E+02 -0.19753418345E+03  0.27795953878E+03  0.17956491895E+03 0.  0.
        -24    2    3    3    0    0 -0.32407899054E+02 -0.61292309378E+02 -0.10391856048E+03  0.14964849007E+03  0.82392865347E+02 0.  0.
          6    2    1    2  501    0 -0.54956679185E+02  0.54570641042E+02 -0.19196925090E+02  0.19045336935E+03  0.17293285551E+03 0.  0.
         24    2    5    5    0    0 -0.21604527308E+02 -0.36426021864E+02 -0.21846407633E+02  0.93387059787E+02  0.80313552656E+02 0.  0.
          5    1    5    5  501    0 -0.33352151877E+02  0.90996662906E+02  0.26494825427E+01  0.97066309565E+02  0.47000000000E+01 0. -1.
        -11    1    6    6    0    0 -0.51567638826E+02 -0.20588620994E+02 -0.56132706641E+01  0.55808794075E+02  0.00000000000E+00 0.  1.
         12    1    6    6    0    0  0.29963111518E+02 -0.15837400870E+02 -0.16233136969E+02  0.37578265713E+02  0.00000000000E+00 0. -1.
         -5    1    3    3    0  503  0.87364578239E+02  0.67216683360E+01 -0.93615622973E+02  0.12831104871E+03  0.47000000000E+01 0.  1.
         13    1    4    4    0    0 -0.16314855720E+02  0.18385951196E+02 -0.36687311034E+02  0.44160802862E+02  0.00000000000E+00 0. -1.
        -14    1    4    4    0    0 -0.16093043334E+02 -0.79678260573E+02 -0.67231249442E+02  0.10548768721E+03  0.00000000000E+00 0.  1.
</event>
<event>
12    1  0.8219652E-002  0.3931733E+03  0.7818608E-02  0.1046174E+00
         21   -1    0    0  503  502  0.00000000000E+00  0.00000000000E+00  0.63607922229E+03  0.63607922229E+03  0.00000000000E+00 0.  1.
         21   -1    0    0  501  503 -0.00000000000E+00 -0.00000000000E+00 -0.26006655631E+03  0.26006655631E+03  0.00000000000E+00 0.  1.
          6    2    1    2  501    0  0.27833429441E+03 -0.21808790811E+03  0.73232079460E+02  0.39993520863E+03  0.17190962316E+03 0.  0.
         24    2    3    3    0    0  0.27399169311E+03 -0.14607987317E+03  0.65119492622E+02  0.32718962907E+03  0.80010798098E+02 0.  0.
         -6    2    1    2    0  502 -0.27833429441E+03  0.21808790811E+03  0.30278058651E+03  0.49621056997E+03  0.17180375744E+03 0.  0.
        -24    2    5    5    0    0 -0.29283470439E+03  0.20904595651E+03  0.30508463884E+03  0.47833831674E+03  0.79237190589E+02 0.  0.
          5    1    3    3  501    0  0.43426013051E+01 -0.72008034934E+02  0.81125868379E+01  0.72745579566E+02  0.47000000000E+01 0. -1.
        -11    1    4    4    0    0  0.86513012147E+02 -0.38346341691E+02 -0.16521380166E+02  0.96061954979E+02  0.00000000000E+00 0.  1.
         12    1    4    4    0    0  0.18747868096E+03 -0.10773353148E+03  0.81640872788E+02  0.23112767409E+03  0.00000000000E+00 0. -1.
         -5    1    5    5    0  502  0.14500409982E+02  0.90419515921E+01 -0.23040523291E+01  0.17872253226E+02  0.47000000000E+01 0.  1.
         13    1    6    6    0    0 -0.28995884885E+02  0.49466642294E+02  0.70671408444E+02  0.91006362478E+02  0.00000000000E+00 0. -1.
        -14    1    6    6    0    0 -0.26383881951E+03  0.15957931422E+03  0.23441323040E+03  0.38733195426E+03  0.00000000000E+00 0.  1.
</event>
<event>
12    1  0.8219652E-002  0.2173292E+03  0.7818608E-02  0.1136362E+00
         21   -1    0    0  503  502  0.00000000000E+00  0.00000000000E+00  0.26105340624E+03  0.26105340624E+03  0.00000000000E+00 0.  1.
         21   -1    0    0  501  503 -0.00000000000E+00 -0.00000000000E+00 -0.34156162960E+03  0.34156162960E+03  0.00000000000E+00 0.  1.
          6    2    1    2  501    0  0.12631103193E+03  0.25736782190E+02 -0.24832201427E+03  0.32999364042E+03  0.17497177259E+03 0.  0.
         24    2    3    3    0    0  0.13604793028E+03  0.50478351551E+02 -0.13491111141E+03  0.21341287301E+03  0.79290245768E+02 0.  0.
         -6    2    1    2    0  502 -0.12631103193E+03 -0.25736782190E+02  0.16781379092E+03  0.27262139542E+03  0.17188396688E+03 0.  0.
        -24    2    5    5    0    0 -0.30899536719E+01  0.13814115870E+02  0.36436977700E+02  0.88150084052E+02  0.79008900534E+02 0.  0.
          5    1    3    3  501    0 -0.97368983469E+01 -0.24741569361E+02 -0.11341090286E+03  0.11658076742E+03  0.47000000000E+01 0. -1.
        -13    1    4    4    0    0  0.16583165219E+02  0.42505867963E+02 -0.37861576681E+02  0.59289536756E+02  0.00000000000E+00 0.  1.
         14    1    4    4    0    0  0.11946476506E+03  0.79724835876E+01 -0.97049534731E+02  0.15412333625E+03  0.00000000000E+00 0. -1.
         -5    1    5    5    0  502 -0.12322107826E+03 -0.39550898060E+02  0.13137681322E+03  0.18447131136E+03  0.47000000000E+01 0.  1.
         11    1    6    6    0    0 -0.28883570632E+02  0.21937355476E+02 -0.70421203861E+01  0.36947255342E+02  0.00000000000E+00 0. -1.
        -12    1    6    6    0    0  0.25793616960E+02 -0.81232396066E+01  0.43479098086E+02  0.51202828710E+02  0.00000000000E+00 0.  1.
</event>
<event>
12    1  0.8219652E-002  0.2909155E+03  0.7818608E-02  0.1090406E+00
         21   -1    0    0  501  502  0.00000000000E+00  0.00000000000E+00  0.34721483703E+03  0.34721483703E+03  0.00000000000E+00 0.  1.
         21   -1    0    0  502  503 -0.00000000000E+00 -0.00000000000E+00 -0.25059416589E+03  0.25059416589E+03  0.00000000000E+00 0. -1.
         -6    2    1    2    0  503  0.10110670510E+03 -0.21206745134E+03  0.10844558965E+03  0.30665323816E+03  0.16456182068E+03 0.  0.
        -24    2    3    3    0    0  0.13290039658E+02 -0.47858375556E+02  0.69676900647E+02  0.11638635048E+03  0.78891462341E+02 0.  0.
          6    2    1    2  501    0 -0.10110670510E+03  0.21206745134E+03 -0.11824918512E+02  0.29115576476E+03  0.17157121240E+03 0.  0.
         24    2    5    5    0    0  0.15266641410E+01  0.55110592923E+02 -0.20612297940E+02  0.10335701098E+03  0.84960559888E+02 0.  0.
          5    1    5    5  501    0 -0.10263336924E+03  0.15695685842E+03  0.87873794279E+01  0.18779875378E+03  0.47000000000E+01 0. -1.
        -13    1    6    6    0    0 -0.30968179474E+02  0.22192172447E+02  0.18894490219E+02  0.42526725932E+02  0.00000000000E+00 0.  1.
         14    1    6    6    0    0  0.32494843615E+02  0.32918420476E+02 -0.39506788160E+02  0.60830285047E+02  0.00000000000E+00 0. -1.
         -5    1    3    3    0  503  0.87816665438E+02 -0.16420907578E+03  0.38768689001E+02  0.19026688767E+03  0.47000000000E+01 0.  1.
         13    1    4    4    0    0  0.24852536459E+02 -0.27376135380E+02  0.81914581216E+02  0.89872687579E+02  0.00000000000E+00 0. -1.
        -14    1    4    4    0    0 -0.11562496802E+02 -0.20482240176E+02 -0.12237680569E+02  0.26513662905E+02  0.00000000000E+00 0.  1.
</event>
<event>
12    1  0.8219652E-002  0.2135249E+03  0.7818608E-02  0.1138875E+00
         21   -1    0    0  503  502  0.00000000000E+00  0.00000000000E+00  0.35585082879E+02  0.35585082879E+02  0.00000000000E+00 0. -1.
         21   -1    0    0  501  503 -0.00000000000E+00 -0.00000000000E+00 -0.13432397498E+04  0.13432397498E+04  0.00000000000E+00 0. -1.
          6    2    1    2  501    0  0.12600311136E+03  0.14485037951E+02 -0.80399515804E+03  0.83177291860E+03  0.17132242577E+03 0.  0.
         24    2    3    3    0    0  0.15875215661E+03  0.84875807572E+01 -0.65914595443E+03  0.68307237642E+03  0.82705477069E+02 0.  0.
         -6    2    1    2    0  502 -0.12600311136E+03 -0.14485037951E+02 -0.50365950884E+03  0.54705191404E+03  0.17177396604E+03 0.  0.
        -24    2    5    5    0    0 -0.10493571390E+03  0.52667430898E+02 -0.30793391557E+03  0.33900411384E+03  0.79467795415E+02 0.  0.
          5    1    3    3  501    0 -0.32749045251E+02  0.59974571940E+01 -0.14484920361E+03  0.14870054218E+03  0.47000000000E+01 0. -1.
        -13    1    4    4    0    0 -0.54448069840E+01 -0.43587876803E+01 -0.51850540491E+01  0.86907846957E+01  0.00000000000E+00 0.  1.
         14    1    4    4    0    0  0.16419696359E+03  0.12846368438E+02 -0.65396090038E+03  0.67438159173E+03  0.00000000000E+00 0. -1.
         -5    1    5    5    0  502 -0.21067397455E+02 -0.67152468849E+02 -0.19572559327E+03  0.20804780020E+03  0.47000000000E+01 0.  1.
         11    1    6    6    0    0 -0.19405536138E+02  0.17003886359E+02 -0.17539483241E+03  0.17728241374E+03  0.00000000000E+00 0. -1.
        -12    1    6    6    0    0 -0.85530177764E+02  0.35663544539E+02 -0.13253908316E+03  0.16172170010E+03  0.00000000000E+00 0.  1.
</event>
<event>
12    1  0.8219652E-002  0.2087659E+03  0.7818608E-02  0.1142849E+00
         21   -1    0    0  503  502  0.00000000000E+00  0.00000000000E+00  0.99115673558E+02  0.99115673558E+02  0.00000000000E+00 0.  1.
         21   -1    0    0  501  503 -0.00000000000E+00 -0.00000000000E+00 -0.44833803279E+03  0.44833803279E+03  0.00000000000E+00 0.  1.
          6    2    1    2  501    0 -0.38334943418E+02 -0.10962523470E+03 -0.21838139412E+03  0.30107483987E+03  0.17166352535E+03 0.  0.
         24    2    3    3    0    0 -0.24078387759E+02 -0.13813103737E+03 -0.13214851595E+03  0.20902034817E+03  0.81032854061E+02 0.  0.
         -6    2    1    2    0  502  0.38334943418E+02  0.10962523470E+03 -0.13084096511E+03  0.24637886648E+03  0.17348177924E+03 0.  0.
        -24    2    5    5    0    0 -0.25112564984E+02  0.11523084854E+03 -0.10645295468E+03  0.17801312739E+03  0.80297276339E+02 0.  0.
          5    1    3    3  501    0 -0.14256555659E+02  0.28505802674E+02 -0.86232878167E+02  0.92054491701E+02  0.47000000000E+01 0. -1.
        -13    1    4    4    0    0 -0.23204818412E+02  0.75733682900E-01 -0.13353115403E+02  0.26772654409E+02  0.00000000000E+00 0.  1.
         14    1    4    4    0    0 -0.87356934662E+00 -0.13820677105E+03 -0.11879540055E+03  0.18224769376E+03  0.00000000000E+00 0. -1.
         -5    1    5    5    0  502  0.63447508402E+02 -0.56056138396E+01 -0.24388010433E+02  0.68365739094E+02  0.47000000000E+01 0.  1.
         11    1    6    6    0    0 -0.49370910451E+02  0.49491185825E+02 -0.35940418365E+02  0.78603930852E+02  0.00000000000E+00 0. -1.
        -12    1    6    6    0    0  0.24258345467E+02  0.65739662711E+02 -0.70512536316E+02  0.99409196535E+02  0.00000000000E+00 0.  1.
</event>
<event>
12    1  0.8219652E-002  0.1856253E+03  0.7818608E-02  0.1163517E+00
         21   -1    0    0  503  502  0.00000000000E+00  0.00000000000E+00  0.15053989141E+03  0.15053989141E+03  0.00000000000E+00 0.  1.
         21   -1    0    0  501  503 -0.00000000000E+00 -0.00000000000E+00 -0.28134025070E+03  0.28134025070E+03  0.00000000000E+00 0.  1.
          6    2    1    2  501    0 -0.70547761663E+02  0.97208751327E+01 -0.16273856908E+03  0.24352728088E+03  0.16658395055E+03 0.  0.
         24    2    3    3    0    0 -0.84133951850E+02  0.59605802738E+02 -0.11368205438E+03  0.17210093980E+03  0.77870086801E+02 0.  0.
         -6    2    1    2    0  502  0.70547761663E+02 -0.97208751327E+01  0.31938209784E+02  0.18835286123E+03  0.17142132014E+03 0.  0.
        -24    2    5    5    0    0  0.46699774212E+02  0.18317783267E+02 -0.43684266475E+02  0.10411663514E+03  0.80097119049E+02 0.  0.
          5    1    3    3  501    0  0.13586190187E+02 -0.49884927605E+02 -0.49056514702E+02  0.71426341084E+02  0.47000000000E+01 0. -1.
        -11    1    4    4    0    0 -0.46317222549E+02  0.66100889592E+02 -0.10555773593E+03  0.13287982663E+03  0.00000000000E+00 0.  1.
         12    1    4    4    0    0 -0.37816729301E+02 -0.64950868547E+01 -0.81243184470E+01  0.39221113173E+02  0.00000000000E+00 0. -1.
         -5    1    5    5    0  502  0.23847987451E+02 -0.28038658400E+02  0.75622476259E+02  0.84236226090E+02  0.47000000000E+01 0.  1.
         11    1    6    6    0    0  0.61779753678E+02  0.16496713849E+02 -0.68950440785E+01  0.64315015083E+02  0.00000000000E+00 0. -1.
        -12    1    6    6    0    0 -0.15079979466E+02  0.18210694177E+01 -0.36789222397E+02  0.39801620056E+02  0.00000000000E+00 0.  1.
</event>
<event>
12    1  0.8219652E-002  0.1894788E+03  0.7818608E-02  0.1159217E+00
         21   -1    0    0  501  502  0.00000000000E+00  0.00000000000E+00  0.33872334668E+03  0.33872334668E+03  0.00000000000E+00 0.  1.
         21   -1    0    0  502  503 -0.00000000000E+00 -0.00000000000E+00 -0.12756098891E+03  0.12756098891E+03  0.00000000000E+00 0. -1.
         -6    2    1    2    0  503 -0.29823167947E+02 -0.72004026661E+02  0.20328366150E+03  0.27789648283E+03  0.17270844488E+03 0.  0.
        -24    2    3    3    0    0  0.15295595461E+02 -0.99735943229E+02  0.10522043054E+03  0.16634716963E+03  0.80117590009E+02 0.  0.
          6    2    1    2  501    0  0.29823167947E+02  0.72004026661E+02  0.78786962607E+01  0.18838785276E+03  0.17132982230E+03 0.  0.
         24    2    5    5    0    0  0.46624067715E+02  0.10903015074E+03  0.22601783799E+02  0.14488999759E+03  0.80130476801E+02 0.  0.
          5    1    5    5  501    0 -0.16800899768E+02 -0.37026124075E+02 -0.14723087538E+02  0.43497855162E+02  0.47000000000E+01 0. -1.
        -13    1    6    6    0    0  0.16228083033E+02  0.90361462744E+02  0.45538708245E+02  0.10248082053E+03  0.00000000000E+00 0.  1.
         14    1    6    6    0    0  0.30395984682E+02  0.18668687991E+02 -0.22936924446E+02  0.42409177063E+02  0.00000000000E+00 0. -1.
         -5    1    3    3    0  503 -0.45118763408E+02  0.27731916568E+02  0.98063230969E+02  0.11154931320E+03  0.47000000000E+01 0.  1.
         11    1    4    4    0    0  0.23043156265E+02 -0.48770376761E+02  0.56653371425E+01  0.54236820934E+02  0.00000000000E+00 0. -1.
        -12    1    4    4    0    0 -0.77475608039E+01 -0.50965566468E+02  0.99555093394E+02  0.11211034869E+03  0.00000000000E+00 0.  1.
</event>
<event>
12    1  0.8219652E-002  0.3104530E+03  0.7818608E-02  0.1080172E+00
         21   -1    0    0  503  502  0.00000000000E+00  0.00000000000E+00  0.60434237100E+03  0.60434237100E+03  0.00000000000E+00 0.  1.
         21   -1    0    0  501  503 -0.00000000000E+00 -0.00000000000E+00 -0.15929413974E+03  0.15929413974E+03  0.00000000000E+00 0. -1.
          6    2    1    2  501    0  0.18712535935E+03 -0.17831361593E+03  0.22297539141E+03  0.38222909807E+03  0.17195758926E+03 0.  0.
         24    2    3    3    0    0  0.14511737688E+03 -0.13744532133E+03  0.23885353487E+03  0.32132677025E+03  0.79054492160E+02 0.  0.
         -6    2    1    2    0  502 -0.18712535935E+03  0.17831361593E+03  0.22207283985E+03  0.38140741267E+03  0.17129980298E+03 0.  0.
        -24    2    5    5    0    0 -0.15947402224E+03  0.95014322331E+02  0.83214746071E+02  0.21706925835E+03  0.75727694652E+02 0.  0.
          5    1    3    3  501    0  0.42007982471E+02 -0.40868294600E+02 -0.15878143462E+02  0.60902327826E+02  0.47000000000E+01 0. -1.
        -13    1    4    4    0    0  0.84087940031E+02 -0.27399463131E+02  0.86264583002E+02  0.12354388095E+03  0.00000000000E+00 0.  1.
         14    1    4    4    0    0  0.61029436847E+02 -0.11004585820E+03  0.15258895187E+03  0.19778288930E+03  0.00000000000E+00 0. -1.
         -5    1    5    5    0  502 -0.27651337106E+02  0.83299293601E+02  0.13885809378E+03  0.16433815432E+03  0.47000000000E+01 0.  1.
         11    1    6    6    0    0 -0.26277120719E+02  0.50754002149E+02  0.41541921290E+02  0.70655410493E+02  0.00000000000E+00 0. -1.
        -12    1    6    6    0    0 -0.13319690152E+03  0.44260320182E+02  0.41672824781E+02  0.14641384785E+03  0.00000000000E+00 0.  1.
</event>
<event>
12    1  0.8219652E-002  0.2579792E+03  0.7818608E-02  0.1108404E+00
         21   -1    0    0  501  502  0.00000000000E+00  0.00000000000E+00  0.62030280791E+03  0.62030280791E+03  0.00000000000E+00 0.  1.
         21   -1    0    0  502  503 -0.00000000000E+00 -0.00000000000E+00 -0.10730491746E+03  0.10730491746E+03  0.00000000000E+00 0.  1.
         -6    2    1    2    0  503 -0.19069551133E+03 -0.17991050533E+02  0.26901297064E+03  0.37272137588E+03  0.17281432153E+03 0.  0.
        -24    2    3    3    0    0 -0.17451712119E+03  0.16679216547E+02  0.27218534348E+03  0.33404422918E+03  0.82257303597E+02 0.  0.
          6    2    1    2  501    0  0.19069551133E+03  0.17991050533E+02  0.24398491981E+03  0.35488634949E+03  0.17241584619E+03 0.  0.
         24    2    5    5    0    0  0.20097233053E+03  0.81182465902E+01  0.15878424675E+03  0.26837432743E+03  0.79728031705E+02 0.  0.
          5    1    5    5  501    0 -0.10276819200E+02  0.98728039431E+01  0.85200673063E+02  0.86512022060E+02  0.47000000000E+01 0. -1.
        -11    1    6    6    0    0  0.90684283115E+02  0.18868610414E+02  0.11863966129E+03  0.15051588918E+03  0.00000000000E+00 0.  1.
         12    1    6    6    0    0  0.11028804742E+03 -0.10750363824E+02  0.40144585455E+02  0.11785843825E+03  0.00000000000E+00 0. -1.
         -5    1    3    3    0  503 -0.16178390147E+02 -0.34670267080E+02 -0.31723728412E+01  0.38677146697E+02  0.47000000000E+01 0.  1.
         11    1    4    4    0    0  0.15005584068E+01  0.99375324395E+01  0.26209618365E+00  0.10053602386E+02  0.00000000000E+00 0. -1.
        -12    1    4    4    0    0 -0.17601767959E+03  0.67416841072E+01  0.27192324729E+03  0.32399062680E+03  0.00000000000E+00 0.  1.
</event>
<event>
12    1  0.8219652E-002  0.1741944E+03  0.7818608E-02  0.1173630E+00
         21   -1    0    0  503  502  0.00000000000E+00  0.00000000000E+00  0.77154822528E+02  0.77154822528E+02  0.00000000000E+00 0. -1.
         21   -1    0    0  501  503 -0.00000000000E+00 -0.00000000000E+00 -0.87414313091E+03  0.87414313091E+03  0.00000000000E+00 0. -1.
          6    2    1    2  501    0  0.28389566235E+02  0.17947390451E+01 -0.75138273163E+03  0.77123254072E+03  0.17150636698E+03 0.  0.
         24    2    3    3    0    0  0.79364374587E+01 -0.13107990243E+02 -0.15932581768E+03  0.17861639078E+03  0.79273529173E+02 0.  0.
         -6    2    1    2    0  502 -0.28389566235E+02 -0.17947390451E+01 -0.45605576751E+02  0.18006541272E+03  0.17185603180E+03 0.  0.
        -24    2    5    5    0    0  0.18369837205E+02 -0.26316514317E+02  0.20056852031E+02  0.95677002220E+02  0.87873782186E+02 0.  0.
          5    1    3    3  501    0  0.20453128776E+02  0.14902729288E+02 -0.59205691395E+03  0.59261614994E+03  0.47000000000E+01 0. -1.
        -11    1    4    4    0    0 -0.17069554107E+01  0.33291621393E+02 -0.64133165652E+02  0.72279379413E+02  0.00000000000E+00 0.  1.
         12    1    4    4    0    0  0.96433928694E+01 -0.46399611636E+02 -0.95192652031E+02  0.10633701137E+03  0.00000000000E+00 0. -1.
         -5    1    5    5    0  502 -0.46759403440E+02  0.24521775272E+02 -0.65662428782E+02  0.84388410496E+02  0.47000000000E+01 0.  1.
         11    1    6    6    0    0  0.22282620245E+02  0.17576877879E+02 -0.21111217436E+02  0.35371532375E+02  0.00000000000E+00 0. -1.
        -12    1    6    6    0    0 -0.39127830399E+01 -0.43893392196E+02  0.41168069467E+02  0.60305469845E+02  0.00000000000E+00 0.  1.
</event>
<event>
12    1  0.8219652E-002  0.1854964E+03  0.7818608E-02  0.1163140E+00
         21   -1    0    0  503  502  0.00000000000E+00  0.00000000000E+00  0.17610332839E+03  0.17610332839E+03  0.00000000000E+00 0.  1.
         21   -1    0    0  501  503 -0.00000000000E+00 -0.00000000000E+00 -0.23557124667E+03  0.23557124667E+03  0.00000000000E+00 0.  1.
          6    2    1    2  501    0 -0.30793335092E+02  0.58641597940E+02 -0.11748018746E+03  0.21956888151E+03  0.17326809512E+03 0.  0.
         24    2    3    3    0    0  0.17175174996E+02  0.26240560334E+02  0.27842104051E+01  0.86015818678E+02  0.80046334036E+02 0.  0.
         -6    2    1    2    0  502  0.30793335092E+02 -0.58641597940E+02  0.58012269185E+02  0.19210569355E+03  0.17073988293E+03 0.  0.
        -24    2    5    5    0    0 -0.64067785098E+01 -0.39275766387E+02 -0.31909869770E+02  0.92773095888E+02  0.77491773084E+02 0.  0.
          5    1    3    3  501    0 -0.47968510088E+02  0.32401037606E+02 -0.12026439787E+03  0.13355306283E+03  0.47000000000E+01 0. -1.
        -11    1    4    4    0    0 -0.25763185934E+02 -0.60866859678E+01 -0.13687075193E+02  0.29801434913E+02  0.00000000000E+00 0.  1.
         12    1    4    4    0    0  0.42938360930E+02  0.32327246302E+02  0.16471285598E+02  0.56214383765E+02  0.00000000000E+00 0. -1.
         -5    1    5    5    0  502  0.37200113602E+02 -0.19365831552E+02  0.89922138955E+02  0.99332597660E+02  0.47000000000E+01 0.  1.
         13    1    6    6    0    0 -0.38725686927E+02 -0.22821648971E+02 -0.74574237668E+00  0.44956230062E+02  0.00000000000E+00 0. -1.
        -14    1    6    6    0    0  0.32318908417E+02 -0.16454117417E+02 -0.31164127393E+02  0.47816865826E+02  0.00000000000E+00 0.  1.
</event>
<event>
12    1  0.8219652E-002  0.1882801E+03  0.7818608E-02  0.1162342E+00
         21   -1    0    0  501  502  0.00000000000E+00  0.00000000000E+00  0.46334180619E+03  0.46334180619E+03  0.00000000000E+00 0.  1.
         21   -1    0    0  502  503 -0.00000000000E+00 -0.00000000000E+00 -0.72715649382E+02  0.72715649382E+02  0.00000000000E+00 0.  1.
         -6    2    1    2    0  503  0.47247551237E+00 -0.76526384461E+02  0.21348473907E+03  0.28464916295E+03  0.17202587422E+03 0.  0.
        -24    2    3    3    0    0 -0.41093800289E+02  0.10353446649E+02  0.78133012820E+02  0.11846240013E+03  0.78311418539E+02 0.  0.
          6    2    1    2  501    0 -0.47247551237E+00  0.76526384461E+02  0.17714141774E+03  0.25140829262E+03  0.16115376808E+03 0.  0.
         24    2    5    5    0    0 -0.43645006474E+02  0.34925685030E+02  0.60294767280E+02  0.11999400364E+03  0.87398008470E+02 0.  0.
          5    1    5    5  501    0  0.43172530961E+02  0.41600699431E+02  0.11684665046E+03  0.13141428897E+03  0.47000000000E+01 0. -1.
        -13    1    6    6    0    0  0.60832528151E+01  0.28915929204E+02  0.63255107193E+02  0.69816513179E+02  0.00000000000E+00 0.  1.
         14    1    6    6    0    0 -0.49728259289E+02  0.60097558260E+01 -0.29603399136E+01  0.50177490465E+02  0.00000000000E+00 0. -1.
         -5    1    3    3    0  503  0.41566275802E+02 -0.86879831110E+02  0.13535172625E+03  0.16618676282E+03  0.47000000000E+01 0.  1.
         13    1    4    4    0    0  0.64608492441E-01  0.28162540011E+02 -0.24226863836E+00  0.28163656159E+02  0.00000000000E+00 0. -1.
        -14    1    4    4    0    0 -0.41158408782E+02 -0.17809093362E+02  0.78375281458E+02  0.90298743975E+02  0.00000000000E+00 0.  1.
</event>
<event>
12    1  0.8219652E-002  0.1950561E+03  0.7818608E-02  0.1154196E+00
         21   -1    0    0  503  502  0.00000000000E+00  0.00000000000E+00  0.73233830806E+02  0.73233830806E+02  0.00000000000E+00 0.  1.
         21   -1    0    0  501  503 -0.00000000000E+00 -0.00000000000E+00 -0.58888972903E+03  0.58888972903E+03  0.00000000000E+00 0.  1.
          6    2    1    2  501    0 -0.49965769977E+02  0.75507775799E+02 -0.37417619808E+03  0.42196529413E+03  0.17276828373E+03 0.  0.
         24    2    3    3    0    0 -0.44107276266E+02  0.33844490077E+02 -0.84886258644E+02  0.12959410816E+03  0.80610511938E+02 0.  0.
         -6    2    1    2    0  502  0.49965769977E+02 -0.75507775799E+02 -0.14147970014E+03  0.24015826571E+03  0.17164348126E+03 0.  0.
        -24    2    5    5    0    0 -0.39598991617E+02 -0.34967216552E+02 -0.67629277374E+02  0.11710803854E+03  0.79685551772E+02 0.  0.
          5    1    3    3  501    0 -0.58584937114E+01  0.41663285722E+02 -0.28928993944E+03  0.29237118597E+03  0.47000000000E+01 0. -1.
        -13    1    4    4    0    0 -0.23037008411E+02  0.18813179342E+02 -0.96679782360E+02  0.10115146954E+03  0.00000000000E+00 0.  1.
         14    1    4    4    0    0 -0.21070267855E+02  0.15031310735E+02  0.11793523715E+02  0.28442638617E+02  0.00000000000E+00 0. -1.
         -5    1    5    5    0  502  0.89564761594E+02 -0.40540559246E+02 -0.73850422770E+02  0.12305022717E+03  0.47000000000E+01 0.  1.
         13    1    6    6    0    0 -0.37189173607E+02 -0.55379161602E+01  0.57260778631E+01  0.38032763726E+02  0.00000000000E+00 0. -1.
        -14    1    6    6    0    0 -0.24098180107E+01 -0.29429300392E+02 -0.73355355237E+02  0.79075274810E+02  0.00000000000E+00 0.  1.
</event>
<event>
12    1  0.8219652E-002  0.2142925E+03  0.7818608E-02  0.1138246E+00
         21   -1    0    0  503  502  0.00000000000E+00  0.00000000000E+00  0.60071413499E+02  0.60071413499E+02  0.00000000000E+00 0. -1.
         21   -1    0    0  501  503 -0.00000000000E+00 -0.00000000000E+00 -0.76754615662E+03  0.76754615662E+03  0.00000000000E+00 0.  1.
          6    2    1    2  501    0 -0.12648641026E+03 -0.18200244084E+02 -0.32496223797E+03  0.38925794687E+03  0.17202102264E+03 0.  0.
         24    2    3    3    0    0 -0.95121333512E+02 -0.68504116725E+02 -0.28222543284E+03  0.31602699607E+03  0.80504566372E+02 0.  0.
         -6    2    1    2    0  502  0.12648641026E+03  0.18200244084E+02 -0.38251250516E+03  0.43835962325E+03  0.17179430093E+03 0.  0.
        -24    2    5    5    0    0  0.10367695071E+03  0.20524483293E+02 -0.13364772592E+03  0.18839674226E+03  0.80383165686E+02 0.  0.
          5    1    3    3  501    0 -0.31365076750E+02  0.50303872641E+02 -0.42736805133E+02  0.73230950801E+02  0.47000000000E+01 0. -1.
        -13    1    4    4    0    0 -0.18433768234E+02 -0.62411793085E+02 -0.12107650883E+03  0.13745747240E+03  0.00000000000E+00 0.  1.
         14    1    4    4    0    0 -0.76687565278E+02 -0.60923236401E+01 -0.16114892400E+03  0.17856952367E+03  0.00000000000E+00 0. -1.
         -5    1    5    5    0  502  0.22809459551E+02 -0.23242392086E+01 -0.24886477924E+03  0.24996288100E+03  0.47000000000E+01 0.  1.
         13    1    6    6    0    0  0.43335838806E+02  0.49512512451E+02 -0.63869137156E+02  0.91699239339E+02  0.00000000000E+00 0. -1.
        -14    1    6    6    0    0  0.60341111906E+02 -0.28988029158E+02 -0.69778588763E+02  0.96697502916E+02  0.00000000000E+00 0.  1.
</event>
<event>
12    1  0.8219652E-002  0.2183660E+03  0.7818608E-02  0.1135108E+00
         21   -1    0    0  501  502  0.00000000000E+00  0.00000000000E+00  0.24233038013E+03  0.24233038013E+03  0.00000000000E+00 0. -1.
         21   -1    0    0  502  503 -0.00000000000E+00 -0.00000000000E+00 -0.19820670124E+03  0.19820670124E+03  0.00000000000E+00 0. -1.
         -6    2    1    2    0  503  0.84559900804E+02  0.10459164128E+03  0.32949278309E+01  0.21839082254E+03  0.17202879575E+03 0.  0.
        -24    2    3    3    0    0 -0.72925639569E+01  0.94922812241E+02  0.17367848126E+02  0.12484672265E+03  0.78876740775E+02 0.  0.
          6    2    1    2  501    0 -0.84559900804E+02 -0.10459164128E+03  0.40828751056E+02  0.22214625883E+03  0.17202379239E+03 0.  0.
         24    2    5    5    0    0 -0.47484163946E+02  0.12395710878E+02  0.85047795208E+01  0.95151849639E+02  0.81074926711E+02 0.  0.
          5    1    5    5  501    0 -0.37075736858E+02 -0.11698735216E+03  0.32323971535E+02  0.12699440919E+03  0.47000000000E+01 0. -1.
        -13    1    6    6    0    0 -0.12791768340E+02  0.42913905706E+02  0.17502334410E+02  0.48078730744E+02  0.00000000000E+00 0.  1.
         14    1    6    6    0    0 -0.34692395607E+02 -0.30518194828E+02 -0.89975548894E+01  0.47073118894E+02  0.00000000000E+00 0. -1.
         -5    1    3    3    0  503  0.91852464761E+02  0.96688290440E+01 -0.14072920295E+02  0.93544099886E+02  0.47000000000E+01 0.  1.
         11    1    4    4    0    0 -0.14560541405E+02 -0.84349869719E+01  0.12783470423E+02  0.21132332746E+02  0.00000000000E+00 0. -1.
        -12    1    4    4    0    0  0.72679774486E+01  0.10335779921E+03  0.45843777027E+01  0.10371438990E+03  0.00000000000E+00 0.  1.
</event>
<event>
12    1  0.8219652E-002  0.2062082E+03  0.7818608E-02  0.1149460E+00
         21   -1    0    0  503  502  0.00000000000E+00  0.00000000000E+00  0.56256737256E+02  0.56256737256E+02  0.00000000000E+00 0.  1.
         21   -1    0    0  501  503 -0.00000000000E+00 -0.00000000000E+00 -0.67603614537E+03  0.67603614537E+03  0.00000000000E+00 0.  1.
          6    2    1    2  501    0  0.10604445880E+03 -0.12708454368E+02 -0.28228033055E+03  0.33678376657E+03  0.14944627247E+03 0.  0.
         24    2    3    3    0    0  0.76900662173E+01 -0.28247911829E+02 -0.10616671593E+03  0.13441490401E+03  0.77064344597E+02 0.  0.
         -6    2    1    2    0  502 -0.10604445880E+03  0.12708454368E+02 -0.33749907756E+03  0.39550911605E+03  0.17639416507E+03 0.  0.
        -24    2    5    5    0    0  0.71584941522E+01 -0.32025742119E+02 -0.13709468427E+03  0.16098818364E+03  0.77751852822E+02 0.  0.
          5    1    3    3  501    0  0.98354392585E+02  0.15539457461E+02 -0.17611361462E+03  0.20236886256E+03  0.47000000000E+01 0. -1.
        -13    1    4    4    0    0  0.33621020732E+02 -0.40513758859E+02 -0.57812876109E+02  0.78192495394E+02  0.00000000000E+00 0.  1.
         14    1    4    4    0    0 -0.25930954515E+02  0.12265847031E+02 -0.48353839819E+02  0.56222408617E+02  0.00000000000E+00 0. -1.
         -5    1    5    5    0  502 -0.11320295295E+03  0.44734196487E+02 -0.20040439329E+03  0.23452093242E+03  0.47000000000E+01 0.  1.
         11    1    6    6    0    0 -0.15259489737E+02 -0.50745075900E+02 -0.10487312826E+03  0.11750016079E+03  0.00000000000E+00 0. -1.
        -12    1    6    6    0    0  0.22417983889E+02  0.18719333782E+02 -0.32221556015E+02  0.43488022845E+02  0.00000000000E+00 0.  1.
</event>
<event>
12    1  0.8219652E-002  0.2565567E+03  0.7818608E-02  0.1109545E+00
         21   -1    0    0  501  502  0.00000000000E+00  0.00000000000E+00  0.27738041373E+03  0.27738041373E+03  0.00000000000E+00 0.  1.
         21   -1    0    0  502  503 -0.00000000000E+00 -0.00000000000E+00 -0.32382645023E+03  0.32382645023E+03  0.00000000000E+00 0. -1.
         -6    2    1    2    0  503 -0.66699714304E+01 -0.18742733591E+03  0.13392518852E+03  0.28759067227E+03  0.17204343606E+03 0.  0.
        -24    2    3    3    0    0 -0.41976972957E+02 -0.11008765926E+03  0.17095299229E+02  0.14302469089E+03  0.79261932649E+02 0.  0.
          6    2    1    2  501    0  0.66699714304E+01  0.18742733591E+03 -0.18037122502E+03  0.31361619169E+03  0.17506525100E+03 0.  0.
         24    2    5    5    0    0 -0.43947803954E+02  0.13910076367E+03 -0.17721563145E+03  0.24340462184E+03  0.80993814442E+02 0.  0.
          5    1    5    5  501    0  0.50617775384E+02  0.48326572243E+02 -0.31555935705E+01  0.70211569847E+02  0.47000000000E+01 0. -1.
        -11    1    6    6    0    0 -0.29675018616E+01  0.45239346571E+00  0.79402829973E+01  0.84887467404E+01  0.00000000000E+00 0.  1.
         12    1    6    6    0    0 -0.40980302092E+02  0.13864837020E+03 -0.18515591445E+03  0.23491587510E+03  0.00000000000E+00 0. -1.
         -5    1    3    3    0  503  0.35307001527E+02 -0.77339676646E+02  0.11682988930E+03  0.14456598138E+03  0.47000000000E+01 0.  1.
         11    1    4    4    0    0  0.15786766974E+02 -0.68147238834E+01 -0.12247802245E+02  0.21110924492E+02  0.00000000000E+00 0. -1.
        -12    1    4    4    0    0 -0.57763739931E+02 -0.10327293538E+03  0.29343101473E+02  0.12191376640E+03  0.00000000000E+00 0.  1.
</event>
<event>
12    1  0.8219652E-002  0.2746676E+03  0.7818608E-02  0.1098790E+00
         21   -1    0    0  501  502  0.00000000000E+00  0.00000000000E+00  0.44174170023E+03  0.44174170023E+03  0.00000000000E+00 0. -1.
         21   -1    0    0  502  503 -0.00000000000E+00 -0.00000000000E+00 -0.17127249665E+03  0.17127249665E+03  0.00000000000E+00 0.  1.
         -6    2    1    2    0  503  0.18395169479E+01 -0.21400420172E+03  0.10970800024E+03  0.29475890002E+03  0.17042823020E+03 0.  0.
        -24    2    3    3    0    0  0.54075395493E+02 -0.14055528931E+03  0.11278134399E+03  0.20445460786E+03  0.80013232469E+02 0.  0.
          6    2    1    2  501    0 -0.18395169479E+01  0.21400420172E+03  0.16076120335E+03  0.31825529686E+03  0.17216587149E+03 0.  0.
         24    2    5    5    0    0 -0.25425999190E+02  0.13802150189E+03  0.28304157460E+02  0.16366987769E+03  0.79311330300E+02 0.  0.
          5    1    5    5  501    0  0.23586482242E+02  0.75982699830E+02  0.13245704589E+03  0.15458541918E+03  0.47000000000E+01 0. -1.
        -13    1    6    6    0    0 -0.21115073804E+02  0.39026390676E+01 -0.10613013733E+02  0.23952306652E+02  0.00000000000E+00 0.  1.
         14    1    6    6    0    0 -0.43109253853E+01  0.13411886282E+03  0.38917171194E+02  0.13971757103E+03  0.00000000000E+00 0. -1.
         -5    1    3    3    0  503 -0.52235878545E+02 -0.73448912402E+02 -0.30733437537E+01  0.90304292159E+02  0.47000000000E+01 0.  1.
         11    1    4    4    0    0 -0.19702547291E+02 -0.33634365407E+02  0.14615679295E+02  0.41630265281E+02  0.00000000000E+00 0. -1.
        -12    1    4    4    0    0  0.73777942784E+02 -0.10692092391E+03  0.98165664695E+02  0.16282434258E+03  0.00000000000E+00 0.  1.
</event>
<event>
12    1  0.8219652E-002  0.2341230E+03  0.7818608E-02  0.1123882E+00
         21   -1    0    0  501  502  0.00000000000E+00  0.00000000000E+00  0.18621991232E+03  0.18621991232E+03  0.00000000000E+00 0.  1.
         21   -1    0    0  502  503 -0.00000000000E+00 -0.00000000000E+00 -0.82729987185E+03  0.82729987185E+03  0.00000000000E+00 0.  1.
         -6    2    1    2    0  503 -0.24242303321E+00 -0.15766068623E+03 -0.72774396760E+03  0.76447684824E+03  0.17307980349E+03 0.  0.
        -24    2    3    3    0    0 -0.25465668287E+02 -0.10865651736E+03 -0.26297582391E+03  0.29642862631E+03  0.79113257485E+02 0.  0.
          6    2    1    2  501    0  0.24242303321E+00  0.15766068623E+03  0.86664008071E+02  0.24904293593E+03  0.17220564129E+03 0.  0.
         24    2    5    5    0    0 -0.65927563612E+02  0.10852864469E+03  0.66869105789E+02  0.16415269624E+03  0.79685130435E+02 0.  0.
          5    1    5    5  501    0  0.66169986645E+02  0.49132041540E+02  0.19794902283E+02  0.84890239691E+02  0.47000000000E+01 0. -1.
        -11    1    6    6    0    0 -0.23089577613E+02  0.37527227917E+02 -0.16041010098E+02  0.46890675346E+02  0.00000000000E+00 0.  1.
         12    1    6    6    0    0 -0.42837985999E+02  0.71001416769E+02  0.82910115886E+02  0.11726202089E+03  0.00000000000E+00 0. -1.
         -5    1    3    3    0  503  0.25223245254E+02 -0.49004168869E+02 -0.46476814368E+03  0.46804822193E+03  0.47000000000E+01 0.  1.
         13    1    4    4    0    0 -0.31067975044E+02 -0.11045020488E+03 -0.26608983490E+03  0.28977278524E+03  0.00000000000E+00 0. -1.
        -14    1    4    4    0    0  0.56023067569E+01  0.17936875273E+01  0.31140109837E+01  0.66558410701E+01  0.00000000000E+00 0.  1.
</event>
<event>
12    1  0.8219652E-002  0.2467695E+03  0.7818608E-02  0.1115698E+00
         21   -1    0    0  503  502  0.00000000000E+00  0.00000000000E+00  0.50032028631E+02  0.50032028631E+02  0.00000000000E+00 0.  1.
         21   -1    0    0  501  503 -0.00000000000E+00 -0.00000000000E+00 -0.13816774648E+04  0.13816774648E+04  0.00000000000E+00 0. -1.
          6    2    1    2  501    0 -0.11138959150E+03  0.13519210918E+03 -0.92286715833E+03  0.95528999624E+03  0.17381207528E+03 0.  0.
         24    2    3    3    0    0 -0.83385424280E+02  0.16809922906E+03 -0.76452473243E+03  0.79109034411E+03  0.78200935084E+02 0.  0.
         -6    2    1    2    0  502  0.11138959150E+03 -0.13519210918E+03 -0.40877827779E+03  0.47641949715E+03  0.17085464403E+03 0.  0.
        -24    2    5    5    0    0  0.70875503953E+02 -0.38945784045E+02 -0.32419433221E+03  0.34195284611E+03  0.72730136580E+02 0.  0.
          5    1    3    3  501    0 -0.28004167217E+02 -0.32907119883E+02 -0.15834242590E+03  0.16419965213E+03  0.47000000000E+01 0. -1.
        -13    1    4    4    0    0 -0.67690633250E+02  0.64602641082E+02 -0.27451749108E+03  0.29002650909E+03  0.00000000000E+00 0.  1.
         14    1    4    4    0    0 -0.15694791031E+02  0.10349658798E+03 -0.49000724135E+03  0.50106383502E+03  0.00000000000E+00 0. -1.
         -5    1    5    5    0  502  0.40514087544E+02 -0.96246325133E+02 -0.84583945579E+02  0.13446665104E+03  0.47000000000E+01 0.  1.
         13    1    6    6    0    0  0.33514467099E+02 -0.50461527675E+02 -0.25852153853E+03  0.26552395591E+03  0.00000000000E+00 0. -1.
        -14    1    6    6    0    0  0.37361036855E+02  0.11515743631E+02 -0.65672793684E+02  0.76428890195E+02  0.00000000000E+00 0.  1.
</event>
<event>
12    1  0.8219652E-002  0.2037731E+03  0.7818608E-02  0.1147152E+00
         21   -1    0    0  503  502  0.00000000000E+00  0.00000000000E+00  0.11745363258E+04  0.11745363258E+04  0.00000000000E+00 0.  1.
         21   -1    0    0  501  503 -0.00000000000E+00 -0.00000000000E+00 -0.87657308170E+02  0.87657308170E+02  0.00000000000E+00 0.  1.
          6    2    1    2  501    0 -0.78395785259E+01 -0.10365233683E+03  0.52349466045E+02  0.20778628286E+03  0.17213194599E+03 0.  0.
         24    2    3    3    0    0 -0.20185957095E+02  0.11373096727E+02  0.37427703449E+02  0.91047118792E+02  0.79698962740E+02 0.  0.
         -6    2    1    2    0  502  0.78395785259E+01  0.10365233683E+03  0.10345295516E+04  0.10544073511E+04  0.17526609211E+03 0.  0.
        -24    2    5    5    0    0 -0.30601442217E+01  0.56584707886E+02  0.24793605336E+03  0.26631751670E+03  0.79003414448E+02 0.  0.
          5    1    3    3  501    0  0.12346378569E+02 -0.11502543356E+03  0.14921762596E+02  0.11673916407E+03  0.47000000000E+01 0. -1.
        -11    1    4    4    0    0  0.29196377818E+02 -0.64431038751E+00  0.23584781408E+01  0.29298567076E+02  0.00000000000E+00 0.  1.
         12    1    4    4    0    0 -0.49382334913E+02  0.12017407115E+02  0.35069225308E+02  0.61748551715E+02  0.00000000000E+00 0. -1.
         -5    1    5    5    0  502  0.10899722748E+02  0.47067628945E+02  0.78659349824E+03  0.78808983443E+03  0.47000000000E+01 0.  1.
         11    1    6    6    0    0  0.12904549129E+02 -0.11845573577E+02  0.15157826295E+02  0.23164729646E+02  0.00000000000E+00 0. -1.
        -12    1    6    6    0    0 -0.15964693351E+02  0.68430281463E+02  0.23277822707E+03  0.24315278705E+03  0.00000000000E+00 0.  1.
</event>
<event>
12    1  0.8219652E-002  0.1800583E+03  0.7818608E-02  0.1168045E+00
         21   -1    0    0  503  502  0.00000000000E+00  0.00000000000E+00  0.16552095080E+03  0.16552095080E+03  0.00000000000E+00 0.  1.
         21   -1    0    0  501  503 -0.00000000000E+00 -0.00000000000E+00 -0.22075641831E+03  0.22075641831E+03  0.00000000000E+00 0. -1.
          6    2    1    2  501    0 -0.38594117583E+02 -0.33483656211E+02 -0.94259855923E+02  0.20323855746E+03  0.17265668147E+03 0.  0.
         24    2    3    3    0    0  0.29049237770E+02  0.29682069297E+02 -0.39638788847E+02  0.95669587167E+02  0.76528118197E+02 0.  0.
         -6    2    1    2    0  502  0.38594117583E+02  0.33483656211E+02  0.39024388408E+02  0.18303881165E+03  0.17137573496E+03 0.  0.
        -24    2    5    5    0    0  0.50806357028E+02 -0.91996547963E+01  0.80736295817E+02  0.12194071798E+03  0.75400727286E+02 0.  0.
          5    1    3    3  501    0 -0.67643355353E+02 -0.63165725508E+02 -0.54621067076E+02  0.10756897030E+03  0.47000000000E+01 0. -1.
        -11    1    4    4    0    0  0.36335154243E+02 -0.15062559285E+02 -0.73550913496E+01  0.40015265773E+02  0.00000000000E+00 0.  1.
         12    1    4    4    0    0 -0.72859164733E+01  0.44744628582E+02 -0.32283697497E+02  0.55654321394E+02  0.00000000000E+00 0. -1.
         -5    1    5    5    0  502 -0.12212239444E+02  0.42683311007E+02 -0.41711907409E+02  0.61098093673E+02  0.47000000000E+01 0.  1.
         11    1    6    6    0    0  0.23459015966E+02  0.43653037527E+01 -0.10249909890E+02  0.25970020403E+02  0.00000000000E+00 0. -1.
        -12    1    6    6    0    0  0.27347341061E+02 -0.13564958549E+02  0.90986205707E+02  0.95970697573E+02  0.00000000000E+00 0.  1.
</event>
<event>
12    1  0.8219652E-002  0.1799551E+03  0.7818608E-02  0.1168327E+00
         21   -1    0    0  501  502  0.00000000000E+00  0.00000000000E+00  0.10668348569E+03  0.10668348569E+03  0.00000000000E+00 0.  1.
         21   -1    0    0  502  503 -0.00000000000E+00 -0.00000000000E+00 -0.30250641462E+03  0.30250641462E+03  0.00000000000E+00 0.  1.
         -6    2    1    2    0  503  0.30380968936E+02 -0.37333607385E+02 -0.11510975857E+03  0.21196297257E+03  0.17135122909E+03 0.  0.
        -24    2    3    3    0    0  0.40567938690E+02 -0.28944529374E+01  0.28870637619E+01  0.88532142581E+02  0.78584156326E+02 0.  0.
          6    2    1    2  501    0 -0.30380968936E+02  0.37333607385E+02 -0.80713170364E+02  0.19722692773E+03  0.17339851106E+03 0.  0.
         24    2    5    5    0    0  0.27130924982E+02  0.62565377574E+02 -0.15075760758E+02  0.10626199103E+03  0.80086319771E+02 0.  0.
          5    1    5    5  501    0 -0.57511893917E+02 -0.25231770189E+02 -0.65637409606E+02  0.90964936699E+02  0.47000000000E+01 0. -1.
        -13    1    6    6    0    0  0.10744194944E+02 -0.15124792664E+02  0.12318234000E+02  0.22269619821E+02  0.00000000000E+00 0.  1.
         14    1    6    6    0    0  0.16386730038E+02  0.77690170238E+02 -0.27393994758E+02  0.83992371212E+02  0.00000000000E+00 0. -1.
         -5    1    3    3    0  503 -0.10186969754E+02 -0.34439154448E+02 -0.11799682233E+03  0.12343082999E+03  0.47000000000E+01 0.  1.
         13    1    4    4    0    0  0.45903705157E+02 -0.33644326061E+02 -0.19699167324E+01  0.56947092947E+02  0.00000000000E+00 0. -1.
        -14    1    4    4    0    0 -0.53357664670E+01  0.30749873123E+02  0.48569804943E+01  0.31585049634E+02  0.00000000000E+00 0.  1.
</event>
<event>
12    1  0.8219652E-002  0.2791267E+03  0.7818608E-02  0.1096651E+00
         21   -1    0    0  503  502  0.00000000000E+00  0.00000000000E+00  0.25837849303E+03  0.25837849303E+03  0.00000000000E+00 0.  1.
         21   -1    0    0  501  503 -0.00000000000E+00 -0.00000000000E+00 -0.38555244175E+03  0.38555244175E+03  0.00000000000E+00 0. -1.
          6    2    1    2  501    0  0.18646054213E+03  0.11310108097E+03  0.90353762866E+02  0.29005235867E+03  0.16854429689E+03 0.  0.
         24    2    3    3    0    0  0.19926322100E+03  0.97790244463E+02  0.11091877552E+03  0.26101204106E+03  0.80966336584E+02 0.  0.
         -6    2    1    2    0  502 -0.18646054213E+03 -0.11310108097E+03 -0.21752771158E+03  0.35387857611E+03  0.17421926712E+03 0.  0.
        -24    2    5    5    0    0 -0.60173040149E+02 -0.54321504011E+02 -0.17374498865E+03  0.20778754746E+03  0.80104452061E+02 0.  0.
          5    1    3    3  501    0 -0.12802678872E+02  0.15310836512E+02 -0.20565012658E+02  0.29040317605E+02  0.47000000000E+01 0. -1.
        -13    1    4    4    0    0  0.43713865084E+02 -0.97921228849E+01  0.73926427475E+01  0.45403070798E+02  0.00000000000E+00 0.  1.
         14    1    4    4    0    0  0.15554935592E+03  0.10758236735E+03  0.10352613278E+03  0.21560897026E+03  0.00000000000E+00 0. -1.
         -5    1    5    5    0  502 -0.12628750198E+03 -0.58779576964E+02 -0.43782722928E+02  0.14609102865E+03  0.47000000000E+01 0.  1.
         11    1    6    6    0    0 -0.67340817035E+02 -0.61968816346E+02 -0.17474558413E+03  0.19725855878E+03  0.00000000000E+00 0. -1.
        -12    1    6    6    0    0  0.71677768860E+01  0.76473123353E+01  0.10005954762E+01  0.10528988686E+02  0.00000000000E+00 0.  1.
</event>
<event>
12    1  0.8219652E-002  0.2331595E+03  0.7818608E-02  0.1124454E+00
         21   -1    0    0  501  502  0.00000000000E+00  0.00000000000E+00  0.23966627683E+03  0.23966627683E+03  0.00000000000E+00 0.  1.
         21   -1    0    0  502  503 -0.00000000000E+00 -0.00000000000E+00 -0.32338936776E+03  0.32338936776E+03  0.00000000000E+00 0.  1.
         -6    2    1    2    0  503 -0.89703298068E+02 -0.12860692746E+03 -0.19578854436E+03  0.30446100972E+03  0.17255992832E+03 0.  0.
        -24    2    3    3    0    0  0.21384773147E+02 -0.51137492877E+02 -0.73773311842E+02  0.12211002993E+03  0.79975034669E+02 0.  0.
          6    2    1    2  501    0  0.89703298068E+02  0.12860692746E+03  0.11206545344E+03  0.25859463488E+03  0.17241257454E+03 0.  0.
         24    2    5    5    0    0  0.10761017783E+03  0.10870799941E+03  0.32652324961E+02  0.17465919150E+03  0.77732099813E+02 0.  0.
          5    1    5    5  501    0 -0.17906879762E+02  0.19898928045E+02  0.79413128476E+02  0.83935443375E+02  0.47000000000E+01 0. -1.
        -13    1    6    6    0    0  0.19659004871E+02  0.85900373004E+01  0.35370731943E+02  0.41368513286E+02  0.00000000000E+00 0.  1.
         14    1    6    6    0    0  0.87951172959E+02  0.10011796211E+03 -0.27184069812E+01  0.13329067822E+03  0.00000000000E+00 0. -1.
         -5    1    3    3    0  503 -0.11108807122E+03 -0.77469434581E+02 -0.12201523252E+03  0.18235097978E+03  0.47000000000E+01 0.  1.
         11    1    4    4    0    0  0.36328786242E+01 -0.26357631761E+02  0.13378669940E+02  0.29781057209E+02  0.00000000000E+00 0. -1.
        -12    1    4    4    0    0  0.17751894523E+02 -0.24779861116E+02 -0.87151981782E+02  0.92328972726E+02  0.00000000000E+00 0.  1.
</event>
<event>
12    1  0.8219652E-002  0.2497787E+03  0.7818608E-02  0.1113536E+00
         21   -1    0    0  503  502  0.00000000000E+00  0.00000000000E+00  0.12673845492E+04  0.12673845492E+04  0.00000000000E+00 0.  1.
         21   -1    0    0  501  503 -0.00000000000E+00 -0.00000000000E+00 -0.53080048837E+02  0.53080048837E+02  0.00000000000E+00 0. -1.
          6    2    1    2  501    0 -0.11990118750E+03  0.13522147042E+03  0.78699629525E+03  0.82550833231E+03  0.17158000218E+03 0.  0.
         24    2    3    3    0    0 -0.10672422176E+03  0.16442472822E+03  0.72477246051E+03  0.75536306660E+03  0.82780988778E+02 0.  0.
         -6    2    1    2    0  502  0.11990118750E+03 -0.13522147042E+03  0.42730820514E+03  0.49495626575E+03  0.17241885628E+03 0.  0.
        -24    2    5    5    0    0  0.11292873532E+03 -0.29623909567E+02  0.27743734645E+03  0.31142745540E+03  0.79906842573E+02 0.  0.
          5    1    3    3  501    0 -0.13176965742E+02 -0.29203257801E+02  0.62223834738E+02  0.70145265713E+02  0.47000000000E+01 0. -1.
        -11    1    4    4    0    0 -0.17493107873E+02  0.53574379447E+02  0.10194679273E+03  0.11648764528E+03  0.00000000000E+00 0.  1.
         12    1    4    4    0    0 -0.89231113888E+02  0.11085034877E+03  0.62282566779E+03  0.63887542132E+03  0.00000000000E+00 0. -1.
         -5    1    5    5    0  502  0.69724521842E+01 -0.10559756085E+03  0.14987085869E+03  0.18352881035E+03  0.47000000000E+01 0.  1.
         13    1    6    6    0    0  0.22705011548E+02 -0.41435575582E+02  0.12828950766E+03  0.13671365056E+03  0.00000000000E+00 0. -1.
        -14    1    6    6    0    0  0.90223723771E+02  0.11811666015E+02  0.14914783879E+03  0.17471380484E+03  0.00000000000E+00 0.  1.
</event>
<event>
12    1  0.8219652E-002  0.2132444E+03  0.7818608E-02  0.1140550E+00
         21   -1    0    0  501  502  0.00000000000E+00  0.00000000000E+00  0.27885408162E+03  0.27885408162E+03  0.00000000000E+00 0. -1.
         21   -1    0    0  502  503 -0.00000000000E+00 -0.00000000000E+00 -0.15722114056E+03  0.15722114056E+03  0.00000000000E+00 0. -1.
         -6    2    1    2    0  503 -0.35601004193E+02 -0.10616022848E+03  0.61724936656E+02  0.22199802382E+03  0.18148203538E+03 0.  0.
        -24    2    3    3    0    0 -0.32039040009E+02 -0.85878870024E+01  0.87518344360E+02  0.12090183551E+03  0.76534576121E+02 0.  0.
          6    2    1    2  501    0  0.35601004193E+02  0.10616022848E+03  0.59908004402E+02  0.21407719837E+03  0.17234457421E+03 0.  0.
         24    2    5    5    0    0  0.84603212516E+02  0.73592297375E+02  0.12716373636E+02  0.13850586404E+03  0.80303414713E+02 0.  0.
          5    1    5    5  501    0 -0.49002208323E+02  0.32567931105E+02  0.47191630766E+02  0.75571334323E+02  0.47000000000E+01 0. -1.
        -11    1    6    6    0    0  0.54582829670E+02  0.67472506492E+01 -0.19644704141E+02  0.58401413399E+02  0.00000000000E+00 0.  1.
         12    1    6    6    0    0  0.30020382846E+02  0.66845046726E+02  0.32361077777E+02  0.80104450644E+02  0.00000000000E+00 0. -1.
         -5    1    3    3    0  503 -0.35619641841E+01 -0.97572341478E+02 -0.25793407705E+02  0.10109618831E+03  0.47000000000E+01 0.  1.
         11    1    4    4    0    0  0.25464434201E+02 -0.23553528397E+01  0.26804998479E+02  0.37047173167E+02  0.00000000000E+00 0. -1.
        -12    1    4    4    0    0 -0.57503474211E+02 -0.62325341627E+01  0.60713345882E+02  0.83854662342E+02  0.00000000000E+00 0.  1.
</event>
<event>
12    1  0.8219652E-002  0.2713236E+03  0.7818608E-02  0.1100750E+00
         21   -1    0    0  503  502  0.00000000000E+00  0.00000000000E+00  0.10093930597E+04  0.10093930597E+04  0.00000000000E+00 0. -1.
         21   -1    0    0  501  503 -0.00000000000E+00 -0.00000000000E+00 -0.10877841904E+03  0.10877841904E+03  0.00000000000E+00 0. -1.
          6    2    1    2  501    0 -0.20730623105E+03 -0.65571476984E+01  0.12659111542E+03  0.29797094770E+03  0.17246015642E+03 0.  0.
         24    2    3    3    0    0 -0.92025703406E+02  0.48451166492E+02  0.10388204926E+03  0.16815066281E+03  0.81651207113E+02 0.  0.
         -6    2    1    2    0  502  0.20730623105E+03  0.65571476984E+01  0.77402352527E+03  0.82020053107E+03  0.17492176504E+03 0.  0.
        -24    2    5    5    0    0  0.20500660230E+03 -0.51538976959E+01  0.49553429824E+03  0.54141606872E+03  0.74315873763E+02 0.  0.
          5    1    3    3  501    0 -0.11528052764E+03 -0.55008314190E+02  0.22709066162E+02  0.12982028489E+03  0.47000000000E+01 0. -1.
        -13    1    4    4    0    0 -0.74064133221E+02  0.64454205716E+02  0.52320252068E+02  0.11125308643E+03  0.00000000000E+00 0.  1.
         14    1    4    4    0    0 -0.17961570185E+02 -0.16003039224E+02  0.51561797192E+02  0.56897576377E+02  0.00000000000E+00 0. -1.
         -5    1    5    5    0  502  0.22996287506E+01  0.11711045394E+02  0.27848922703E+03  0.27878446235E+03  0.47000000000E+01 0.  1.
         11    1    6    6    0    0  0.17732744270E+03 -0.13292841531E+02  0.47132032408E+03  0.50375050319E+03  0.00000000000E+00 0. -1.
        -12    1    6    6    0    0  0.27679159593E+02  0.81389438347E+01  0.24213974163E+02  0.37665565538E+02  0.00000000000E+00 0.  1.
</event>
<event>
12    1  0.8219652E-002  0.1807319E+03  0.7818608E-02  0.1167300E+00
         21   -1    0    0  501  502  0.00000000000E+00  0.00000000000E+00  0.66476086999E+02  0.66476086999E+02  0.00000000000E+00 0.  1.
         21   -1    0    0  502  503 -0.00000000000E+00 -0.00000000000E+00 -0.49382082191E+03  0.49382082191E+03  0.00000000000E+00 0. -1.
         -6    2    1    2    0  503  0.19441384006E+01 -0.53870721409E+02 -0.18669611000E+03  0.25984508003E+03  0.17250563419E+03 0.  0.
        -24    2    3    3    0    0 -0.44753929558E+02  0.16031894604E+02 -0.77646032260E+02  0.12207318619E+03  0.81320480852E+02 0.  0.
          6    2    1    2  501    0 -0.19441384006E+01  0.53870721409E+02 -0.24064862491E+03  0.30045182888E+03  0.17162082189E+03 0.  0.
         24    2    5    5    0    0  0.14652493533E+02  0.43796021042E+02 -0.25827580476E+03  0.27381059676E+03  0.78313884770E+02 0.  0.
          5    1    5    5  501    0 -0.16596631934E+02  0.10074700367E+02  0.17627179852E+02  0.26641232114E+02  0.47000000000E+01 0. -1.
        -11    1    6    6    0    0 -0.53480385461E+01  0.50256515681E+02 -0.82267912546E+02  0.96552205150E+02  0.00000000000E+00 0.  1.
         12    1    6    6    0    0  0.20000532080E+02 -0.64604946386E+01 -0.17600789222E+03  0.17725839161E+03  0.00000000000E+00 0. -1.
         -5    1    3    3    0  503  0.46698067959E+02 -0.69902616013E+02 -0.10905007774E+03  0.13777189384E+03  0.47000000000E+01 0.  1.
         13    1    4    4    0    0 -0.27822743295E+02 -0.14294869291E+02 -0.81337212135E+02  0.87144652219E+02  0.00000000000E+00 0. -1.
        -14    1    4    4    0    0 -0.16931186263E+02  0.30326763896E+02  0.36911798754E+01  0.34928533973E+02  0.00000000000E+00 0.  1.
</event>
<event>
12    1  0.8219652E-002  0.1947301E+03  0.7818608E-02  0.1154394E+00
         21   -1    0    0  501  502  0.00000000000E+00  0.00000000000E+00  0.28092154175E+03  0.28092154175E+03  0.00000000000E+00 0. -1.
         21   -1    0    0  502  503 -0.00000000000E+00 -0.00000000000E+00 -0.13662649454E+03  0.13662649454E+03  0.00000000000E+00 0.  1.
         -6    2    1    2    0  503  0.18506044053E+02 -0.88483079987E+02  0.46644250082E+02  0.20023859133E+03  0.17247631224E+03 0.  0.
        -24    2    3    3    0    0  0.72242009056E+02 -0.86993492845E+02  0.46849295122E+02  0.14627652273E+03  0.80094874853E+02 0.  0.
          6    2    1    2  501    0 -0.18506044053E+02  0.88483079987E+02  0.97650797130E+02  0.21730944496E+03  0.17180217571E+03 0.  0.
         24    2    5    5    0    0 -0.34506708448E+02  0.49747257359E+02 -0.10860794491E+02  0.10089062890E+03  0.79971617469E+02 0.  0.
          5    1    5    5  501    0  0.16000664395E+02  0.38735822628E+02  0.10851159162E+03  0.11641881606E+03  0.47000000000E+01 0. -1.
        -11    1    6    6    0    0 -0.26108424205E+02  0.24161748795E+02  0.33585801170E+02  0.48922857230E+02  0.00000000000E+00 0.  1.
         12    1    6    6    0    0 -0.83982842426E+01  0.25585508565E+02 -0.44446595661E+02  0.51967771672E+02  0.00000000000E+00 0. -1.
         -5    1    3    3    0  503 -0.53735965003E+02 -0.14895871417E+01 -0.20504504039E+00  0.53962068605E+02  0.47000000000E+01 0.  1.
         13    1    4    4    0    0  0.34117820791E+02 -0.93659157652E+02  0.37145960225E+02  0.10637615273E+03  0.00000000000E+00 0. -1.
        -14    1    4    4    0    0  0.38124188264E+02  0.66656648064E+01  0.97033348968E+01  0.39900370001E+02  0.00000000000E+00 0.  1.
</event>
<event>
12    1  0.8219652E-002  0.2046431E+03  0.7818608E-02  0.1145984E+00
         21   -1    0    0  503  502  0.00000000000E+00  0.00000000000E+00  0.15940598011E+03  0.15940598011E+03  0.00000000000E+00 0.  1.
         21   -1    0    0  501  503 -0.00000000000E+00 -0.00000000000E+00 -0.10646069856E+04  0.10646069856E+04  0.00000000000E+00 0. -1.
          6    2    1    2  501    0 -0.96946730610E+02 -0.50877579606E+02 -0.98410805204E+03  0.10051604156E+04  0.17289189200E+03 0.  0.
         24    2    3    3    0    0 -0.10020663091E+03 -0.77364623722E+02 -0.94958114224E+03  0.96126977928E+03  0.79426626433E+02 0.  0.
         -6    2    1    2    0  502  0.96946730610E+02  0.50877579606E+02  0.78907046512E+02  0.21885255014E+03  0.17228731825E+03 0.  0.
        -24    2    5    5    0    0  0.11987554712E+03  0.52849835318E+02  0.97122994661E+02  0.18912829765E+03  0.95777789654E+02 0.  0.
          5    1    3    3  501    0  0.32599002967E+01  0.26487044116E+02 -0.34526909803E+02  0.43890636319E+02  0.47000000000E+01 0. -1.
        -11    1    4    4    0    0 -0.58536981539E+02 -0.19102781748E+02 -0.22888818939E+03  0.23702594314E+03  0.00000000000E+00 0.  1.
         12    1    4    4    0    0 -0.41669649368E+02 -0.58261841975E+02 -0.72069295285E+03  0.72424383614E+03  0.00000000000E+00 0. -1.
         -5    1    5    5    0  502 -0.22928816507E+02 -0.19722557114E+01 -0.18215948148E+02  0.29724252488E+02  0.47000000000E+01 0.  1.
         13    1    6    6    0    0  0.61521788963E+02  0.19979744404E+02 -0.72763085471E+01  0.65092744371E+02  0.00000000000E+00 0. -1.
        -14    1    6    6    0    0  0.58353758155E+02  0.32870090914E+02  0.10439930321E+03  0.12403555328E+03  0.00000000000E+00 0.  1.
</event>
<event>
12    1  0.8219652E-002  0.1808409E+03  0.7818608E-02  0.1167056E+00
         21   -1    0    0  501  502  0.00000000000E+00  0.00000000000E+00  0.22334402633E+03  0.22334402633E+03  0.00000000000E+00 0.  1.
         21   -1    0    0  502  503 -0.00000000000E+00 -0.00000000000E+00 -0.20531928937E+03  0.20531928937E+03  0.00000000000E+00 0.  1.
         -6    2    1    2    0  503  0.43323461682E+02 -0.34707306826E+02 -0.10599393919E+03  0.20938255727E+03  0.17182788093E+03 0.  0.
        -24    2    3    3    0    0 -0.15030453591E+02  0.96667922768E+01 -0.23024794234E+01  0.82306796691E+02  0.80310310434E+02 0.  0.
          6    2    1    2  501    0 -0.43323461682E+02  0.34707306826E+02  0.12401867614E+03  0.21928075843E+03  0.17211013771E+03 0.  0.
         24    2    5    5    0    0 -0.10968957244E+02  0.21205748604E+02  0.15224533072E+03  0.17402658668E+03  0.80849306429E+02 0.  0.
          5    1    5    5  501    0 -0.32354504438E+02  0.13501558221E+02 -0.28226654573E+02  0.45254171744E+02  0.47000000000E+01 0. -1.
        -13    1    6    6    0    0  0.10949324458E+02  0.48158359900E+02  0.94817129111E+02  0.10690838745E+03  0.00000000000E+00 0.  1.
         14    1    6    6    0    0 -0.21918281702E+02 -0.26952611296E+02  0.57428201605E+02  0.67118199231E+02  0.00000000000E+00 0. -1.
         -5    1    3    3    0  503  0.58353915273E+02 -0.44374099102E+02 -0.10369145977E+03  0.12707576058E+03  0.47000000000E+01 0.  1.
         11    1    4    4    0    0 -0.67346314305E+01 -0.24793113490E+02 -0.28395992532E+02  0.38293421484E+02  0.00000000000E+00 0. -1.
        -12    1    4    4    0    0 -0.82958221606E+01  0.34459905767E+02  0.26093513109E+02  0.44013375207E+02  0.00000000000E+00 0.  1.
</event>
<event>
12    1  0.8219652E-002  0.1995026E+03  0.7818608E-02  0.1150300E+00
         21   -1    0    0  503  502  0.00000000000E+00  0.00000000000E+00  0.11394000059E+04  0.11394000059E+04  0.00000000000E+00 0.  1.
         21   -1    0    0  501  503 -0.00000000000E+00 -0.00000000000E+00 -0.59660505673E+02  0.59660505673E+02  0.00000000000E+00 0. -1.
          6    2    1    2  501    0  0.55271228398E+02 -0.85131592828E+02  0.15350549920E+03  0.25172451035E+03  0.17175271188E+03 0.  0.
         24    2    3    3    0    0  0.34693938453E+02 -0.49214814456E+02  0.67626820475E+01  0.99182764535E+02  0.78522096158E+02 0.  0.
         -6    2    1    2    0  502 -0.55271228398E+02  0.85131592828E+02  0.92623400100E+03  0.94733600120E+03  0.17097888106E+03 0.  0.
        -24    2    5    5    0    0 -0.83201135770E+02  0.97508093722E+02  0.56979449775E+03  0.58955888206E+03  0.80521105402E+02 0.  0.
          5    1    3    3  501    0  0.20577289945E+02 -0.35916778372E+02  0.14674281715E+03  0.15254174581E+03  0.47000000000E+01 0.  1.
        -11    1    4    4    0    0  0.44767446781E+02 -0.14019744370E+02 -0.22771586626E+02  0.52146166503E+02  0.00000000000E+00 0.  1.
         12    1    4    4    0    0 -0.10073508328E+02 -0.35195070086E+02  0.29534268674E+02  0.47036598032E+02  0.00000000000E+00 0. -1.
         -5    1    5    5    0  502  0.27929907372E+02 -0.12376500894E+02  0.35643950325E+03  0.35777711914E+03  0.47000000000E+01 0.  1.
         11    1    6    6    0    0  0.51810000370E+01  0.51419982180E+02  0.19863797100E+03  0.20525082424E+03  0.00000000000E+00 0. -1.
        -12    1    6    6    0    0 -0.88382135807E+02  0.46088111542E+02  0.37115652675E+03  0.38430805782E+03  0.00000000000E+00 0.  1.
</event>
<event>
12    1  0.8219652E-002  0.2294398E+03  0.7818608E-02  0.1127328E+00
         21   -1    0    0  503  502  0.00000000000E+00  0.00000000000E+00  0.35254369292E+03  0.35254369292E+03  0.00000000000E+00 0.  1.
         21   -1    0    0  501  503 -0.00000000000E+00 -0.00000000000E+00 -0.20862471440E+03  0.20862471440E+03  0.00000000000E+00 0. -1.
          6    2    1    2  501    0  0.14682499598E+03 -0.35026102860E+02 -0.79167679571E+02  0.24115232138E+03  0.17059458753E+03 0.  0.
         24    2    3    3    0    0  0.13400574039E+03  0.34074376612E+01 -0.10863282236E+03  0.19083577350E+03  0.81535595081E+02 0.  0.
         -6    2    1    2    0  502 -0.14682499598E+03  0.35026102860E+02  0.22308665809E+03  0.32001608594E+03  0.17279534402E+03 0.  0.
        -24    2    5    5    0    0 -0.33040963409E+02  0.61534482669E+02  0.68304631612E+02  0.12603395792E+03  0.79629379186E+02 0.  0.
          5    1    3    3  501    0  0.12819255590E+02 -0.38433540522E+02  0.29465142793E+02  0.50316547881E+02  0.47000000000E+01 0. -1.
        -11    1    4    4    0    0 -0.96612629937E+01  0.61300838100E+01 -0.16724435078E+02  0.20263875711E+02  0.00000000000E+00 0.  1.
         12    1    4    4    0    0  0.14366700338E+03 -0.27226461488E+01 -0.91908387286E+02  0.17057189779E+03  0.00000000000E+00 0. -1.
         -5    1    5    5    0  502 -0.11378403257E+03 -0.26508379809E+02  0.15478202648E+03  0.19398212801E+03  0.47000000000E+01 0.  1.
         13    1    6    6    0    0 -0.29992249224E+02  0.79808385932E+02  0.45457619611E+02  0.96619401050E+02  0.00000000000E+00 0. -1.
        -14    1    6    6    0    0 -0.30487141848E+01 -0.18273903263E+02  0.22847012001E+02  0.29414556872E+02  0.00000000000E+00 0.  1.
</event>
<event>
12    1  0.8219652E-002  0.2159979E+03  0.7818608E-02  0.1136960E+00
         21   -1    0    0  501  502  0.00000000000E+00  0.00000000000E+00  0.36204966508E+03  0.36204966508E+03  0.00000000000E+00 0. -1.
         21   -1    0    0  502  503 -0.00000000000E+00 -0.00000000000E+00 -0.18210353192E+03  0.18210353192E+03  0.00000000000E+00 0.  1.
         -6    2    1    2    0  503 -0.54028039893E+02 -0.12101485321E+03 -0.57434138263E+02  0.22321007842E+03  0.17017765740E+03 0.  0.
        -24    2    3    3    0    0  0.13320415197E+02  0.16317679015E+00  0.22747938786E+01  0.72189629686E+02  0.70913382795E+02 0.  0.
          6    2    1    2  501    0  0.54028039893E+02  0.12101485321E+03  0.23738027143E+03  0.32094311858E+03  0.17056221243E+03 0.  0.
         24    2    5    5    0    0 -0.25989984082E+02  0.10671242219E+03  0.16784836748E+03  0.21387202369E+03  0.74196682737E+02 0.  0.
          5    1    5    5  501    0  0.80018023975E+02  0.14302431016E+02  0.69531903945E+02  0.10707109489E+03  0.47000000000E+01 0. -1.
        -11    1    6    6    0    0  0.25427611803E+02  0.27357258170E+02  0.38418879125E+02  0.53581650681E+02  0.00000000000E+00 0.  1.
         12    1    6    6    0    0 -0.51417595885E+02  0.79355164023E+02  0.12942948836E+03  0.16029037301E+03  0.00000000000E+00 0. -1.
         -5    1    3    3    0  503 -0.67348455090E+02 -0.12117803000E+03 -0.59708932142E+02  0.15102044873E+03  0.47000000000E+01 0.  1.
         13    1    4    4    0    0 -0.16850022851E+02 -0.26725009879E+02 -0.12872338052E+01  0.31619715273E+02  0.00000000000E+00 0. -1.
        -14    1    4    4    0    0  0.30170438047E+02  0.26888186669E+02  0.35620276838E+01  0.40569914414E+02  0.00000000000E+00 0.  1.
</event>
<event>
12    1  0.8219652E-002  0.2190887E+03  0.7818608E-02  0.1137823E+00
         21   -1    0    0  501  502  0.00000000000E+00  0.00000000000E+00  0.43108629659E+03  0.43108629659E+03  0.00000000000E+00 0. -1.
         21   -1    0    0  502  503 -0.00000000000E+00 -0.00000000000E+00 -0.25251361670E+03  0.25251361670E+03  0.00000000000E+00 0. -1.
         -6    2    1    2    0  503  0.10659788979E+03  0.13579869407E+02 -0.17504876045E+03  0.26760953351E+03  0.17153795770E+03 0.  0.
        -24    2    3    3    0    0  0.42639684522E+02 -0.54497242050E+02 -0.10480289432E+03  0.15064066230E+03  0.83191768777E+02 0.  0.
          6    2    1    2  501    0 -0.10659788979E+03 -0.13579869407E+02  0.35362144033E+03  0.41599037978E+03  0.19092498539E+03 0.  0.
         24    2    5    5    0    0 -0.21802723100E+02  0.59670342295E+02  0.11885953957E+03  0.15581533513E+03  0.78197954136E+02 0.  0.
          5    1    5    5  501    0 -0.84795166693E+02 -0.73250211702E+02  0.23476190076E+03  0.26017504465E+03  0.47000000000E+01 0. -1.
        -13    1    6    6    0    0  0.18250232217E+02 -0.88628494229E+01  0.15718550739E+02  0.25665032889E+02  0.00000000000E+00 0.  1.
         14    1    6    6    0    0 -0.40052955317E+02  0.68533191718E+02  0.10314098883E+03  0.13015030224E+03  0.00000000000E+00 0. -1.
         -5    1    3    3    0  503  0.63958205272E+02  0.68077111457E+02 -0.70245866126E+02  0.11696887122E+03  0.47000000000E+01 0.  1.
         11    1    4    4    0    0  0.25487306208E+02 -0.35960581510E+02 -0.11518860369E+03  0.12333361513E+03  0.00000000000E+00 0. -1.
        -12    1    4    4    0    0  0.17152378314E+02 -0.18536660540E+02  0.10385709373E+02  0.27307047167E+02  0.00000000000E+00 0.  1.
</event>
<event>
12    1  0.8219652E-002  0.2910718E+03  0.7818608E-02  0.1089836E+00
         21   -1    0    0  503  502  0.00000000000E+00  0.00000000000E+00  0.67375665585E+03  0.67375665585E+03  0.00000000000E+00 0. -1.
         21   -1    0    0  501  503 -0.00000000000E+00 -0.00000000000E+00 -0.33863133813E+03  0.33863133813E+03  0.00000000000E+00 0.  1.
          6    2    1    2  501    0 -0.15016564283E+03  0.17924355709E+03 -0.23396600430E+03  0.37317930183E+03  0.17275626502E+03 0.  0.
         24    2    3    3    0    0 -0.13374780794E+03  0.18267374273E+03 -0.13983527046E+03  0.27745053642E+03  0.78528497251E+02 0.  0.
         -6    2    1    2    0  502  0.15016564283E+03 -0.17924355709E+03  0.56909132202E+03  0.63920869215E+03  0.17333449245E+03 0.  0.
        -24    2    5    5    0    0  0.18661546202E+02 -0.12260812822E+03  0.26937133416E+03  0.30701137073E+03  0.79461057624E+02 0.  0.
          5    1    3    3  501    0 -0.16417834882E+02 -0.34301856365E+01 -0.94130733836E+02  0.95728765416E+02  0.47000000000E+01 0. -1.
        -13    1    4    4    0    0 -0.43367979553E+02  0.12319784914E+03 -0.87940740093E+02  0.15745496325E+03  0.00000000000E+00 0.  1.
         14    1    4    4    0    0 -0.90379828391E+02  0.59475893590E+02 -0.51894530371E+02  0.11999557317E+03  0.00000000000E+00 0. -1.
         -5    1    5    5    0  502  0.13150409662E+03 -0.56635428869E+02  0.29971998786E+03  0.33219732141E+03  0.47000000000E+01 0.  1.
         11    1    6    6    0    0  0.43065988793E+02 -0.11196888479E+03  0.20803292919E+03  0.24014456101E+03  0.00000000000E+00 0. -1.
        -12    1    6    6    0    0 -0.24404442591E+02 -0.10639243430E+02  0.61338404966E+02  0.66866809724E+02  0.00000000000E+00 0.  1.
</event>
<event>
12    1  0.8219652E-002  0.1842853E+03  0.7818608E-02  0.1164276E+00
         21   -1    0    0  501  502  0.00000000000E+00  0.00000000000E+00  0.27898459866E+02  0.27898459866E+02  0.00000000000E+00 0. -1.
         21   -1    0    0  502  503 -0.00000000000E+00 -0.00000000000E+00 -0.12461164878E+04  0.12461164878E+04  0.00000000000E+00 0. -1.
         -6    2    1    2    0  503 -0.29583124300E+02 -0.59166038608E+02 -0.48516956505E+03  0.51815708724E+03  0.16947412440E+03 0.  0.
        -24    2    3    3    0    0 -0.22466257684E+02 -0.74509989623E+02 -0.48801096418E+03  0.50037366316E+03  0.78502422436E+02 0.  0.
          6    2    1    2  501    0  0.29583124300E+02  0.59166038608E+02 -0.73304846291E+03  0.75585786045E+03  0.17200370595E+03 0.  0.
         24    2    5    5    0    0 -0.45455265456E+02  0.16004341003E+02 -0.43799875970E+03  0.44833532560E+03  0.82700245408E+02 0.  0.
          5    1    5    5  501    0  0.75038389756E+02  0.43161697605E+02 -0.29504970321E+03  0.30752253485E+03  0.47000000000E+01 0. -1.
        -13    1    6    6    0    0  0.57676022494E+01 -0.23137807818E+01 -0.29908626271E+03  0.29915081708E+03  0.00000000000E+00 0.  1.
         14    1    6    6    0    0 -0.51222867705E+02  0.18318121785E+02 -0.13891249699E+03  0.14918450852E+03  0.00000000000E+00 0. -1.
         -5    1    3    3    0  503 -0.71168666165E+01  0.15343951015E+02  0.28413991355E+01  0.17783424087E+02  0.47000000000E+01 0.  1.
         13    1    4    4    0    0 -0.11252236103E+02 -0.61755661758E+02 -0.15926216921E+03  0.17118648638E+03  0.00000000000E+00 0. -1.
        -14    1    4    4    0    0 -0.11214021580E+02 -0.12754327865E+02 -0.32874879497E+03  0.32918717678E+03  0.00000000000E+00 0.  1.
</event>
<event>
12    1  0.8219652E-002  0.2352500E+03  0.7818608E-02  0.1123362E+00
         21   -1    0    0  501  502  0.00000000000E+00  0.00000000000E+00  0.14825580492E+03  0.14825580492E+03  0.00000000000E+00 0.  1.
         21   -1    0    0  502  503 -0.00000000000E+00 -0.00000000000E+00 -0.37436759678E+03  0.37436759678E+03  0.00000000000E+00 0.  1.
         -6    2    1    2    0  503  0.12653460706E+02  0.16032125413E+03 -0.14096893443E+03  0.27243976792E+03  0.16878439524E+03 0.  0.
        -24    2    3    3    0    0 -0.70325759372E+01  0.47367713587E+02 -0.12549480382E+03  0.15664865825E+03  0.80602102518E+02 0.  0.
          6    2    1    2  501    0 -0.12653460706E+02 -0.16032125413E+03 -0.85142857435E+02  0.25018363378E+03  0.17169603910E+03 0.  0.
         24    2    5    5    0    0  0.12489487193E+02 -0.18126802129E+03 -0.54677024333E+02  0.20522596624E+03  0.78192310344E+02 0.  0.
          5    1    5    5  501    0 -0.25142947898E+02  0.20946767160E+02 -0.30465833102E+02  0.44957667534E+02  0.47000000000E+01 0. -1.
        -13    1    6    6    0    0 -0.12517451499E+02 -0.14124925229E+03 -0.13229230915E+02  0.14241857468E+03  0.00000000000E+00 0.  1.
         14    1    6    6    0    0  0.25006938692E+02 -0.40018769004E+02 -0.41447793419E+02  0.62807391560E+02  0.00000000000E+00 0. -1.
         -5    1    3    3    0  503  0.19686036643E+02  0.11295354055E+03 -0.15474130605E+02  0.11579110967E+03  0.47000000000E+01 0.  1.
         11    1    4    4    0    0  0.13695995900E+02 -0.40906108430E+01  0.47652220831E+01  0.15067207514E+02  0.00000000000E+00 0. -1.
        -12    1    4    4    0    0 -0.20728571837E+02  0.51458324430E+02 -0.13026002591E+03  0.14158145074E+03  0.00000000000E+00 0.  1.
</event>
<event>
12    1  0.8219652E-002  0.2002063E+03  0.7818608E-02  0.1149656E+00
         21   -1    0    0  501  502  0.00000000000E+00  0.00000000000E+00  0.17733282470E+03  0.17733282470E+03  0.00000000000E+00 0.  1.
         21   -1    0    0  502  503 -0.00000000000E+00 -0.00000000000E+00 -0.23633831091E+03  0.23633831091E+03  0.00000000000E+00 0.  1.
         -6    2    1    2    0  503 -0.68549376370E+02 -0.76165127100E+02 -0.73737712447E+02  0.21335368644E+03  0.17199535370E+03 0.  0.
        -24    2    3    3    0    0 -0.45625777160E+02  0.51422015388E+01  0.96438070614E+01  0.94564205059E+02  0.82105006459E+02 0.  0.
          6    2    1    2  501    0  0.68549376370E+02  0.76165127100E+02  0.14732226236E+02  0.20031744918E+03  0.17149314379E+03 0.  0.
         24    2    5    5    0    0 -0.26000321638E+01  0.90147207087E+02  0.36052805428E+02  0.12459166762E+03  0.78038450447E+02 0.  0.
          5    1    5    5  501    0  0.71149408534E+02 -0.13982079988E+02 -0.21320579191E+02  0.75725781558E+02  0.47000000000E+01 0. -1.
        -13    1    6    6    0    0  0.35521331959E+02  0.30638979277E+02  0.24696580051E+02  0.53013518479E+02  0.00000000000E+00 0.  1.
         14    1    6    6    0    0 -0.38121364122E+02  0.59508227810E+02  0.11356225376E+02  0.71578149141E+02  0.00000000000E+00 0. -1.
         -5    1    3    3    0  503 -0.22923599210E+02 -0.81307328639E+02 -0.83381519509E+02  0.11878948138E+03  0.47000000000E+01 0.  1.
         13    1    4    4    0    0  0.18131502643E+02  0.38271005995E+01  0.22870987617E+02  0.29436035087E+02  0.00000000000E+00 0. -1.
        -14    1    4    4    0    0 -0.63757279803E+02  0.13151009393E+01 -0.13227180556E+02  0.65128169971E+02  0.00000000000E+00 0.  1.
</event>
<event>
12    1  0.8219652E-002  0.1748977E+03  0.7818608E-02  0.1173001E+00
         21   -1    0    0  503  502  0.00000000000E+00  0.00000000000E+00  0.76382003890E+02  0.76382003890E+02  0.00000000000E+00 0. -1.
         21   -1    0    0  501  503 -0.00000000000E+00 -0.00000000000E+00 -0.39897497035E+03  0.39897497035E+03  0.00000000000E+00 0. -1.
          6    2    1    2  501    0  0.23347502279E+02 -0.11772879560E+02 -0.16048158516E+03  0.23736797291E+03  0.17293209312E+03 0.  0.
         24    2    3    3    0    0 -0.48548692713E+02 -0.91188058397E+01 -0.12139220687E+03  0.15535470291E+03  0.83419947511E+02 0.  0.
         -6    2    1    2    0  502 -0.23347502279E+02  0.11772879560E+02 -0.16211138130E+03  0.23798900133E+03  0.17226421059E+03 0.  0.
        -24    2    5    5    0    0 -0.59799383970E+02 -0.32276110176E+02 -0.59277778223E+02  0.12023547443E+03  0.79529873062E+02 0.  0.
          5    1    3    3  501    0  0.71896194992E+02 -0.26540737207E+01 -0.39089378296E+02  0.82013270007E+02  0.47000000000E+01 0. -1.
        -11    1    4    4    0    0 -0.56495803008E+01  0.85103164446E+01  0.11037004867E+02  0.15038574400E+02  0.00000000000E+00 0.  1.
         12    1    4    4    0    0 -0.42899112412E+02 -0.17629122284E+02 -0.13242921173E+03  0.14031612851E+03  0.00000000000E+00 0. -1.
         -5    1    5    5    0  502  0.36451881691E+02  0.44048989737E+02 -0.10283360308E+03  0.11775352690E+03  0.47000000000E+01 0.  1.
         11    1    6    6    0    0 -0.20622294403E+02 -0.47314322775E+01  0.19021439895E+02  0.28451373491E+02  0.00000000000E+00 0. -1.
        -12    1    6    6    0    0 -0.39177089567E+02 -0.27544677899E+02 -0.78299218118E+02  0.91784100940E+02  0.00000000000E+00 0.  1.
</event>
<event>
12    1  0.8219652E-002  0.1950169E+03  0.7818608E-02  0.1154373E+00
         21   -1    0    0  501  502  0.00000000000E+00  0.00000000000E+00  0.34942108876E+02  0.34942108876E+02  0.00000000000E+00 0. -1.
         21   -1    0    0  502  503 -0.00000000000E+00 -0.00000000000E+00 -0.10884780604E+04  0.10884780604E+04  0.00000000000E+00 0. -1.
         -6    2    1    2    0  503 -0.46259643444E+02 -0.76943769017E+02 -0.57624111866E+03  0.60782153435E+03  0.17126848099E+03 0.  0.
        -24    2    3    3    0    0 -0.40985292442E+02 -0.11589275221E+03 -0.49401657451E+03  0.51656471142E+03  0.87611648651E+02 0.  0.
          6    2    1    2  501    0  0.46259643444E+02  0.76943769017E+02 -0.47729483283E+03  0.51559863490E+03  0.17312220151E+03 0.  0.
         24    2    5    5    0    0  0.81479963744E+02  0.53418666881E+02 -0.42801650107E+03  0.45044999428E+03  0.10106697630E+03 0.  0.
          5    1    5    5  501    0 -0.35220320300E+02  0.23525102136E+02 -0.49278331759E+02  0.65148640611E+02  0.47000000000E+01 0. -1.
        -11    1    6    6    0    0 -0.13308795211E+02 -0.17444467403E+02 -0.73035532424E+02  0.76260228621E+02  0.00000000000E+00 0.  1.
         12    1    6    6    0    0  0.94788758955E+02  0.70863134284E+02 -0.35498096865E+03  0.37418976566E+03  0.00000000000E+00 0. -1.
         -5    1    3    3    0  503 -0.52743510017E+01  0.38948983196E+02 -0.82224544145E+02  0.91256822925E+02  0.47000000000E+01 0.  1.
         11    1    4    4    0    0 -0.60808879804E+02 -0.40689806556E+02 -0.24300174492E+03  0.25377791128E+03  0.00000000000E+00 0. -1.
        -12    1    4    4    0    0  0.19823587362E+02 -0.75202945657E+02 -0.25101482960E+03  0.26278680014E+03  0.00000000000E+00 0.  1.
</event>
<event>
12    1  0.8219652E-002  0.2072403E+03  0.7818608E-02  0.1145385E+00
         21   -1    0    0  501  502  0.00000000000E+00  0.00000000000E+00  0.43883027688E+02  0.43883027688E+02  0.00000000000E+00 0. -1.
         21   -1    0    0  502  503 -0.00000000000E+00 -0.00000000000E+00 -0.17210010031E+04  0.17210010031E+04  0.00000000000E+00 0.  1.
         -6    2    1    2    0  503  0.10420697603E+03  0.52822898870E+02 -0.14410658243E+04  0.14558912154E+04  0.17116999957E+03 0.  0.
        -24    2    3    3    0    0 -0.28998282774E+01  0.46658691496E+02 -0.84405595012E+03  0.84930013008E+03  0.81821889007E+02 0.  0.
          6    2    1    2  501    0 -0.10420697603E+03 -0.52822898870E+02 -0.23605215116E+03  0.30899281539E+03  0.16157533660E+03 0.  0.
         24    2    5    5    0    0 -0.10507385236E+03 -0.89747439329E+02 -0.21011971425E+03  0.26361931600E+03  0.79055247366E+02 0.  0.
          5    1    5    5  501    0  0.86687632685E+00  0.36924540459E+02 -0.25932436905E+02  0.45373499386E+02  0.47000000000E+01 0. -1.
        -11    1    6    6    0    0 -0.40586860965E+02 -0.52537280455E+02 -0.16172348605E+03  0.17481975020E+03  0.00000000000E+00 0.  1.
         12    1    6    6    0    0 -0.64486991391E+02 -0.37210158874E+02 -0.48396228207E+02  0.88799565803E+02  0.00000000000E+00 0. -1.
         -5    1    3    3    0  503  0.10710680431E+03  0.61642073736E+01 -0.59700987415E+03  0.60659108534E+03  0.47000000000E+01 0.  1.
         11    1    4    4    0    0  0.20708803121E+02  0.58454328824E+01 -0.58524967576E+02  0.62355396255E+02  0.00000000000E+00 0. -1.
        -12    1    4    4    0    0 -0.23608631399E+02  0.40813258614E+02 -0.78553098255E+03  0.78694473382E+03  0.00000000000E+00 0.  1.
</event>
<event>
12    1  0.8219652E-002  0.2659048E+03  0.7818608E-02  0.1103820E+00
         21   -1    0    0  503  502  0.00000000000E+00  0.00000000000E+00  0.61618406215E+02  0.61618406215E+02  0.00000000000E+00 0. -1.
         21   -1    0    0  501  503 -0.00000000000E+00 -0.00000000000E+00 -0.14403845392E+04  0.14403845392E+04  0.00000000000E+00 0. -1.
          6    2    1    2  501    0 -0.67014885443E+02 -0.19045238827E+03 -0.34654859289E+03  0.43608624387E+03  0.17120799571E+03 0.  0.
         24    2    3    3    0    0 -0.10647969601E+03 -0.17920394849E+03 -0.28576463839E+03  0.36259625955E+03  0.79766146142E+02 0.  0.
         -6    2    1    2    0  502  0.67014885443E+02  0.19045238827E+03 -0.10322175401E+04  0.10659167016E+04  0.17303831215E+03 0.  0.
        -24    2    5    5    0    0  0.71499563912E+02  0.13716890323E+03 -0.43982333414E+03  0.47109552895E+03  0.67519896940E+02 0.  0.
          5    1    3    3  501    0  0.39464810571E+02 -0.11248439781E+02 -0.60783954498E+02  0.73489984320E+02  0.47000000000E+01 0. -1.
        -13    1    4    4    0    0 -0.19653409441E+02  0.39834400931E+01 -0.19799894565E+02  0.28180846730E+02  0.00000000000E+00 0.  1.
         14    1    4    4    0    0 -0.86826286574E+02 -0.18318738858E+03 -0.26596474382E+03  0.33441541282E+03  0.00000000000E+00 0. -1.
         -5    1    5    5    0  502 -0.44846784690E+01  0.53283485040E+02 -0.59239420598E+03  0.59482117262E+03  0.47000000000E+01 0.  1.
         11    1    6    6    0    0  0.23763647117E+02  0.11115285607E+03 -0.31759379881E+03  0.33732104793E+03  0.00000000000E+00 0. -1.
        -12    1    6    6    0    0  0.47735916796E+02  0.26016047161E+02 -0.12222953533E+03  0.13377448101E+03  0.00000000000E+00 0.  1.
</event>
<event>
12    1  0.8219652E-002  0.1906947E+03  0.7818608E-02  0.1158080E+00
         21   -1    0    0  503  502  0.00000000000E+00  0.00000000000E+00  0.69270285223E+02  0.69270285223E+02  0.00000000000E+00 0. -1.
         21   -1    0    0  501  503 -0.00000000000E+00 -0.00000000000E+00 -0.87875599115E+03  0.87875599115E+03  0.00000000000E+00 0.  1.
          6    2    1    2  501    0  0.62454917808E+02 -0.50583596201E+02 -0.70745545605E+03  0.73270573946E+03  0.17293108854E+03 0.  0.
         24    2    3    3    0    0  0.40523007510E+02 -0.85948886516E+02 -0.64925271736E+03  0.66100245335E+03  0.79786133527E+02 0.  0.
         -6    2    1    2    0  502 -0.62454917808E+02  0.50583596201E+02 -0.10203024988E+03  0.21532053692E+03  0.17173655628E+03 0.  0.
        -24    2    5    5    0    0 -0.56945785636E+02 -0.24443275131E+02 -0.18189136194E+02  0.10257833406E+03  0.79694251631E+02 0.  0.
          5    1    3    3  501    0  0.21931910298E+02  0.35365290315E+02 -0.58202738681E+02  0.71703286106E+02  0.47000000000E+01 0. -1.
        -13    1    4    4    0    0  0.54206318893E+02 -0.58528264195E+02 -0.57743956182E+03  0.58292394896E+03  0.00000000000E+00 0.  1.
         14    1    4    4    0    0 -0.13683311384E+02 -0.27420622321E+02 -0.71813155545E+02  0.78078504393E+02  0.00000000000E+00 0. -1.
         -5    1    5    5    0  502 -0.55091321717E+01  0.75026871332E+02 -0.83841113690E+02  0.11274220285E+03  0.47000000000E+01 0.  1.
         13    1    6    6    0    0 -0.45813607773E+02 -0.22877210420E+02  0.25683839014E+02  0.57287983036E+02  0.00000000000E+00 0. -1.
        -14    1    6    6    0    0 -0.11132177863E+02 -0.15660647110E+01 -0.43872975208E+02  0.45290351028E+02  0.00000000000E+00 0.  1.
</event>
<event>
12    1  0.8219652E-002  0.1760730E+03  0.7818608E-02  0.1173218E+00
         21   -1    0    0  501  502  0.00000000000E+00  0.00000000000E+00  0.23807183752E+03  0.23807183752E+03  0.00000000000E+00 0.  1.
         21   -1    0    0  502  503 -0.00000000000E+00 -0.00000000000E+00 -0.20320811188E+03  0.20320811188E+03  0.00000000000E+00 0.  1.
         -6    2    1    2    0  503  0.27361254589E+02  0.20136917294E+02 -0.11899960317E+03  0.20745177258E+03  0.16649684292E+03 0.  0.
        -24    2    3    3    0    0  0.41664981909E+02 -0.41892961461E+02 -0.42801146982E+02  0.10805057944E+03  0.79699426575E+02 0.  0.
          6    2    1    2  501    0 -0.27361254589E+02 -0.20136917294E+02  0.15386332881E+03  0.23382817681E+03  0.17276445997E+03 0.  0.
         24    2    5    5    0    0 -0.79629975655E+02 -0.31547439173E+02  0.81184372798E+02  0.14345926701E+03  0.81568897035E+02 0.  0.
          5    1    5    5  501    0  0.52268721065E+02  0.11410521879E+02  0.72678956015E+02  0.90368909802E+02  0.47000000000E+01 0. -1.
        -13    1    6    6    0    0 -0.18485445376E+02 -0.26524184125E+02  0.75154094641E+02  0.81813091712E+02  0.00000000000E+00 0.  1.
         14    1    6    6    0    0 -0.61144530279E+02 -0.50232550487E+01  0.60302781572E+01  0.61646175299E+02  0.00000000000E+00 0. -1.
         -5    1    3    3    0  503 -0.14303727320E+02  0.62029878755E+02 -0.76198456186E+02  0.99401193145E+02  0.47000000000E+01 0.  1.
         11    1    4    4    0    0 -0.14219885369E+02  0.75510587239E+01  0.78031494863E+01  0.17891695550E+02  0.00000000000E+00 0. -1.
        -12    1    4    4    0    0  0.55884867278E+02 -0.49444020185E+02 -0.50604296468E+02  0.90158883887E+02  0.00000000000E+00 0.  1.
</event>
<event>
12    1  0.8219652E-002  0.1935463E+03  0.7818608E-02  0.1155503E+00
         21   -1    0    0  501  502  0.00000000000E+00  0.00000000000E+00  0.25404749833E+03  0.25404749833E+03  0.00000000000E+00 0. -1.
         21   -1    0    0  502  503 -0.00000000000E+00 -0.00000000000E+00 -0.14875129103E+03  0.14875129103E+03  0.00000000000E+00 0. -1.
         -6    2    1    2    0  503 -0.71671774065E+02  0.48626480291E+02  0.76087451369E+02  0.20796511176E+03  0.17308613368E+03 0.  0.
        -24    2    3    3    0    0 -0.11435454184E+03  0.30820438020E+02  0.36800396601E+02  0.14710102975E+03  0.79104886857E+02 0.  0.
          6    2    1    2  501    0  0.71671774065E+02 -0.48626480291E+02  0.29208755933E+02  0.19483367760E+03  0.17206287432E+03 0.  0.
         24    2    5    5    0    0  0.74816139342E+02 -0.62634206993E+02 -0.33450239299E+02  0.13037948360E+03  0.79745800163E+02 0.  0.
          5    1    5    5  501    0 -0.31443652769E+01  0.14007726702E+02  0.62658995232E+02  0.64454193997E+02  0.47000000000E+01 0. -1.
        -11    1    6    6    0    0  0.43845827057E+02  0.27716012807E+01  0.11209497248E+02  0.45340833170E+02  0.00000000000E+00 0.  1.
         12    1    6    6    0    0  0.30970312285E+02 -0.65405808273E+02 -0.44659736548E+02  0.85038650433E+02  0.00000000000E+00 0. -1.
         -5    1    3    3    0  503  0.42682767779E+02  0.17806042270E+02  0.39287054768E+02  0.60864082010E+02  0.47000000000E+01 0.  1.
         13    1    4    4    0    0 -0.47059656571E+02  0.46075776883E+02  0.41655650963E+02  0.77928054955E+02  0.00000000000E+00 0. -1.
        -14    1    4    4    0    0 -0.67294885273E+02 -0.15255338862E+02 -0.48552543612E+01  0.69172974799E+02  0.00000000000E+00 0.  1.
</event>
<event>
12    1  0.8219652E-002  0.1936404E+03  0.7818608E-02  0.1156375E+00
         21   -1    0    0  503  502  0.00000000000E+00  0.00000000000E+00  0.90124750963E+02  0.90124750963E+02  0.00000000000E+00 0. -1.
         21   -1    0    0  501  503 -0.00000000000E+00 -0.00000000000E+00 -0.61000216012E+03  0.61000216012E+03  0.00000000000E+00 0.  1.
          6    2    1    2  501    0  0.87562664936E+02 -0.22221366198E+02 -0.59351252843E+02  0.20253188589E+03  0.17127633865E+03 0.  0.
         24    2    3    3    0    0  0.63600708560E+02  0.52825923611E+02 -0.28395420884E+02  0.11775792412E+03  0.78898671923E+02 0.  0.
         -6    2    1    2    0  502 -0.87562664936E+02  0.22221366198E+02 -0.46052615632E+03  0.49759502520E+03  0.16539485798E+03 0.  0.
        -24    2    5    5    0    0 -0.57555156958E+02  0.75749280516E+02 -0.31250471225E+03  0.33728867458E+03  0.83987530201E+02 0.  0.
          5    1    3    3  501    0  0.23961956376E+02 -0.75047289809E+02 -0.30955831959E+02  0.84773961765E+02  0.47000000000E+01 0. -1.
        -11    1    4    4    0    0  0.35778747797E+02  0.68790630301E+02 -0.43346927032E+01  0.77659894231E+02  0.00000000000E+00 0.  1.
         12    1    4    4    0    0  0.27821960763E+02 -0.15964706690E+02 -0.24060728181E+02  0.40098029889E+02  0.00000000000E+00 0. -1.
         -5    1    5    5    0  502 -0.30007507978E+02 -0.53527914318E+02 -0.14802144407E+03  0.16030635062E+03  0.47000000000E+01 0.  1.
         13    1    6    6    0    0 -0.18009683923E+02  0.21241468016E+02 -0.13787464001E+02  0.31074794321E+02  0.00000000000E+00 0. -1.
        -14    1    6    6    0    0 -0.39545473034E+02  0.54507812500E+02 -0.29871724825E+03  0.30621388026E+03  0.00000000000E+00 0.  1.
</event>
<event>
12    1  0.8219652E-002  0.2128178E+03  0.7818608E-02  0.1139386E+00
         21   -1    0    0  501  502  0.00000000000E+00  0.00000000000E+00  0.56198866546E+03  0.56198866546E+03  0.00000000000E+00 0. -1.
         21   -1    0    0  502  503 -0.00000000000E+00 -0.00000000000E+00 -0.21925844837E+03  0.21925844837E+03  0.00000000000E+00 0.  1.
         -6    2    1    2    0  503  0.12539315154E+03  0.89119751745E+01 -0.13937619020E+03  0.25425753760E+03  0.17151765880E+03 0.  0.
        -24    2    3    3    0    0  0.37813131232E+01  0.31881175018E+02 -0.66543272362E+02  0.11057821653E+03  0.82272882678E+02 0.  0.
          6    2    1    2  501    0 -0.12539315154E+03 -0.89119751745E+01  0.48210640729E+03  0.52698957623E+03  0.17172233329E+03 0.  0.
         24    2    5    5    0    0 -0.57482020775E+02 -0.64205476959E+02  0.21101059020E+03  0.24206094470E+03  0.81495434157E+02 0.  0.
          5    1    5    5  501    0 -0.67911130765E+02  0.55293501784E+02  0.27109581709E+03  0.28492863153E+03  0.47000000000E+01 0. -1.
        -11    1    6    6    0    0 -0.36354478826E+02 -0.27020573127E+02  0.18823173154E+03  0.19360512458E+03  0.00000000000E+00 0.  1.
         12    1    6    6    0    0 -0.21127541949E+02 -0.37184903832E+02  0.22778858652E+02  0.48455820118E+02  0.00000000000E+00 0. -1.
         -5    1    3    3    0  503  0.12161183842E+03 -0.22969199843E+02 -0.72832917839E+02  0.14367932108E+03  0.47000000000E+01 0.  1.
         13    1    4    4    0    0 -0.27154781115E+02 -0.98677802927E+01 -0.46784188767E+02  0.54986503289E+02  0.00000000000E+00 0. -1.
        -14    1    4    4    0    0  0.30936094239E+02  0.41748955311E+02 -0.19759083595E+02  0.55591713238E+02  0.00000000000E+00 0.  1.
</event>
<event>
12    1  0.8219652E-002  0.1942013E+03  0.7818608E-02  0.1155070E+00
         21   -1    0    0  501  502  0.00000000000E+00  0.00000000000E+00  0.23178730233E+03  0.23178730233E+03  0.00000000000E+00 0.  1.
         21   -1    0    0  502  503 -0.00000000000E+00 -0.00000000000E+00 -0.20137493325E+03  0.20137493325E+03  0.00000000000E+00 0.  1.
         -6    2    1    2    0  503  0.73385000766E+01 -0.92745981746E+02 -0.81238738227E+02  0.21050864612E+03  0.17046550029E+03 0.  0.
        -24    2    3    3    0    0 -0.15880119448E+02 -0.37999411958E+02  0.17855826778E+02  0.94844848801E+02  0.83549873078E+02 0.  0.
          6    2    1    2  501    0 -0.73385000766E+01  0.92745981746E+02  0.11165110731E+03  0.22265358946E+03  0.16868011271E+03 0.  0.
         24    2    5    5    0    0 -0.58233900406E+02  0.18462968934E+02  0.68456412064E+02  0.12267269396E+03  0.81426292516E+02 0.  0.
          5    1    5    5  501    0  0.50895400329E+02  0.74283012812E+02  0.43194695244E+02  0.99980895497E+02  0.47000000000E+01 0. -1.
        -11    1    6    6    0    0  0.11481949914E+02  0.29071252256E+02  0.22165789173E+02  0.38318338838E+02  0.00000000000E+00 0.  1.
         12    1    6    6    0    0 -0.69715850320E+02 -0.10608283323E+02  0.46290622891E+02  0.84354355125E+02  0.00000000000E+00 0. -1.
         -5    1    3    3    0  503  0.23218619525E+02 -0.54746569788E+02 -0.99094565004E+02  0.11566379732E+03  0.47000000000E+01 0.  1.
         11    1    4    4    0    0 -0.78578366900E+01  0.10628317814E+02 -0.25810674704E+02  0.28998235562E+02  0.00000000000E+00 0. -1.
        -12    1    4    4    0    0 -0.80222827582E+01 -0.48627729772E+02  0.43666501482E+02  0.65846613239E+02  0.00000000000E+00 0.  1.
</event>
<event>
12    1  0.8219652E-002  0.1800602E+03  0.7818608E-02  0.1167761E+00
         21   -1    0    0  503  502  0.00000000000E+00  0.00000000000E+00  0.34537880799E+03  0.34537880799E+03  0.00000000000E+00 0.  1.
         21   -1    0    0  501  503 -0.00000000000E+00 -0.00000000000E+00 -0.10734005265E+03  0.10734005265E+03  0.00000000000E+00 0.  1.
          6    2    1    2  501    0 -0.89076014694E+01 -0.51235608769E+02  0.38717498564E+02  0.18411014145E+03  0.17231676216E+03 0.  0.
         24    2    3    3    0    0  0.70926429490E+00 -0.80772011086E+02  0.73019863397E+02  0.13759535453E+03  0.84118727450E+02 0.  0.
         -6    2    1    2    0  502  0.89076014694E+01  0.51235608769E+02  0.19932125678E+03  0.26860871918E+03  0.17238691263E+03 0.  0.
        -24    2    5    5    0    0  0.60203577004E+02  0.59649451413E+02  0.18103364041E+03  0.21330413740E+03  0.74450979386E+02 0.  0.
          5    1    3    3  501    0 -0.96168657643E+01  0.29536402317E+02 -0.34302364833E+02  0.46514786919E+02  0.47000000000E+01 0. -1.
        -13    1    4    4    0    0  0.61863321868E+01 -0.64073268957E+02  0.19668667593E+01  0.64401266024E+02  0.00000000000E+00 0.  1.
         14    1    4    4    0    0 -0.54770678919E+01 -0.16698742129E+02  0.71052996638E+02  0.73194088509E+02  0.00000000000E+00 0. -1.
         -5    1    5    5    0  502 -0.51295975535E+02 -0.84138426444E+01  0.18287616364E+02  0.55304581785E+02  0.47000000000E+01 0.  1.
         13    1    6    6    0    0  0.32753577045E+02  0.14707419877E+02  0.14637091218E+02  0.38773050538E+02  0.00000000000E+00 0. -1.
        -14    1    6    6    0    0  0.27449999959E+02  0.44942031537E+02  0.16639654919E+03  0.17453108686E+03  0.00000000000E+00 0.  1.
</event>
<event>
12    1  0.8219652E-002  0.2017456E+03  0.7818608E-02  0.1148702E+00
         21   -1    0    0  501  502  0.00000000000E+00  0.00000000000E+00  0.70825584363E+03  0.70825584363E+03  0.00000000000E+00 0.  1.
         21   -1    0    0  502  503 -0.00000000000E+00 -0.00000000000E+00 -0.64064214081E+02  0.64064214081E+02  0.00000000000E+00 0.  1.
         -6    2    1    2    0  503  0.77751267711E+02 -0.65087365805E+02  0.44988481444E+03  0.49221931817E+03  0.17205198661E+03 0.  0.
        -24    2    3    3    0    0 -0.18432205390E+02 -0.68517561087E+02  0.21617127601E+03  0.23942071298E+03  0.74551021864E+02 0.  0.
          6    2    1    2  501    0 -0.77751267711E+02  0.65087365805E+02  0.19430681510E+03  0.28010073954E+03  0.17441233063E+03 0.  0.
         24    2    5    5    0    0  0.22181501872E+02  0.47057210713E+02  0.64464849296E+02  0.11519873526E+03  0.80053929985E+02 0.  0.
          5    1    5    5  501    0 -0.99932769584E+02  0.18030155093E+02  0.12984196581E+03  0.16490200428E+03  0.47000000000E+01 0. -1.
        -11    1    6    6    0    0  0.12049374769E+02 -0.22224204714E+02  0.20224988333E+02  0.32375188966E+02  0.00000000000E+00 0.  1.
         12    1    6    6    0    0  0.10132127103E+02  0.69281415427E+02  0.44239860963E+02  0.82823546297E+02  0.00000000000E+00 0. -1.
         -5    1    3    3    0  503  0.96183473101E+02  0.34301952815E+01  0.23371353843E+03  0.25279860519E+03  0.47000000000E+01 0.  1.
         13    1    4    4    0    0 -0.45863553336E+02 -0.40058777318E+02  0.15561996042E+03  0.16710997351E+03  0.00000000000E+00 0. -1.
        -14    1    4    4    0    0  0.27431347947E+02 -0.28458783768E+02  0.60551315590E+02  0.72310739475E+02  0.00000000000E+00 0.  1.
</event>
<event>
12    1  0.8219652E-002  0.2035037E+03  0.7818608E-02  0.1147512E+00
         21   -1    0    0  503  502  0.00000000000E+00  0.00000000000E+00  0.11991372605E+04  0.11991372605E+04  0.00000000000E+00 0. -1.
         21   -1    0    0  501  503 -0.00000000000E+00 -0.00000000000E+00 -0.93714834189E+02  0.93714834189E+02  0.00000000000E+00 0.  1.
          6    2    1    2  501    0  0.74556121711E+02  0.70729694893E+02  0.34922771995E+02  0.20318091937E+03  0.17176024269E+03 0.  0.
         24    2    3    3    0    0  0.13651362125E+02  0.97168844785E+02 -0.13249741883E+01  0.12738904982E+03  0.81228507142E+02 0.  0.
         -6    2    1    2    0  502 -0.74556121711E+02 -0.70729694893E+02  0.10704996543E+04  0.10896711753E+04  0.17564867036E+03 0.  0.
        -24    2    5    5    0    0 -0.44608743893E+02 -0.96572464577E+02  0.99893587198E+03  0.10077678230E+04  0.80043286713E+02 0.  0.
          5    1    3    3  501    0  0.60904759585E+02 -0.26439149892E+02  0.36247746183E+02  0.75791869554E+02  0.47000000000E+01 0. -1.
        -11    1    4    4    0    0  0.47700512113E+02  0.50655226562E+02 -0.38870491691E+01  0.69687875453E+02  0.00000000000E+00 0.  1.
         12    1    4    4    0    0 -0.34049149988E+02  0.46513618223E+02  0.25620749808E+01  0.57701174367E+02  0.00000000000E+00 0. -1.
         -5    1    5    5    0  502 -0.29947377817E+02  0.25842769684E+02  0.71563782369E+02  0.81903352374E+02  0.47000000000E+01 0.  1.
         13    1    6    6    0    0 -0.46113456115E+02 -0.68157696172E+02  0.92324420063E+03  0.92690440520E+03  0.00000000000E+00 0. -1.
        -14    1    6    6    0    0  0.15047122218E+01 -0.28414768404E+02  0.75691671346E+02  0.80863417771E+02  0.00000000000E+00 0.  1.
</event>
<event>
12    1  0.8219652E-002  0.1776226E+03  0.7818608E-02  0.1171440E+00
         21   -1    0    0  503  502  0.00000000000E+00  0.00000000000E+00  0.11835783233E+04  0.11835783233E+04  0.00000000000E+00 0. -1.
         21   -1    0    0  501  503 -0.00000000000E+00 -0.00000000000E+00 -0.39408083267E+02  0.39408083267E+02  0.00000000000E+00 0. -1.
          6    2    1    2  501    0 -0.88269025027E+01 -0.29207719813E+01  0.20808981172E+03  0.27020293241E+03  0.17210987718E+03 0.  0.
         24    2    3    3    0    0  0.44909297269E+02 -0.16675602583E+02  0.19119035158E+03  0.21202685241E+03  0.78145472691E+02 0.  0.
         -6    2    1    2    0  502  0.88269025027E+01  0.29207719813E+01  0.93608042834E+03  0.95278347418E+03  0.17737907216E+03 0.  0.
        -24    2    5    5    0    0  0.12481679414E+02  0.23787636759E+02  0.92435029258E+03  0.92811629914E+03  0.79087023872E+02 0.  0.
          5    1    3    3  501    0 -0.53736199772E+02  0.13754830601E+02  0.16899460132E+02  0.58176079995E+02  0.47000000000E+01 0. -1.
        -13    1    4    4    0    0  0.22579680970E+02  0.25524261262E+02  0.35624027382E+02  0.49299099713E+02  0.00000000000E+00 0.  1.
         14    1    4    4    0    0  0.22329616300E+02 -0.42199863844E+02  0.15556632420E+03  0.16272775270E+03  0.00000000000E+00 0. -1.
         -5    1    5    5    0  502 -0.36547769112E+01 -0.20866864778E+02  0.11730135760E+02  0.24667175049E+02  0.47000000000E+01 0.  1.
         13    1    6    6    0    0 -0.76313533371E+01 -0.26789961195E+02  0.24181048791E+03  0.24340963752E+03  0.00000000000E+00 0. -1.
        -14    1    6    6    0    0  0.20113032751E+02  0.50577597954E+02  0.68253980467E+03  0.68470666161E+03  0.00000000000E+00 0.  1.
</event>
<event>
12    1  0.8219652E-002  0.2100048E+03  0.7818608E-02  0.1142067E+00
         21   -1    0    0  501  502  0.00000000000E+00  0.00000000000E+00  0.19295370911E+03  0.19295370911E+03  0.00000000000E+00 0. -1.
         21   -1    0    0  502  503 -0.00000000000E+00 -0.00000000000E+00 -0.24759053529E+03  0.24759053529E+03  0.00000000000E+00 0. -1.
         -6    2    1    2    0  503  0.10985229703E+03  0.43035408165E+02 -0.92491090720E+02  0.22715497170E+03  0.17066108457E+03 0.  0.
        -24    2    3    3    0    0  0.11639914293E+03  0.39908181830E+02 -0.13281093740E+02  0.14747464566E+03  0.80193267867E+02 0.  0.
          6    2    1    2  501    0 -0.10985229703E+03 -0.43035408165E+02  0.37854264539E+02  0.21338927270E+03  0.17373100714E+03 0.  0.
         24    2    5    5    0    0 -0.36611177432E+01 -0.27154082760E+02  0.60252256751E+02  0.10360519776E+03  0.79705423695E+02 0.  0.
          5    1    5    5  501    0 -0.10619117929E+03 -0.15881325405E+02 -0.22397992212E+02  0.10978407494E+03  0.47000000000E+01 0. -1.
        -13    1    6    6    0    0 -0.11383687496E+02 -0.25662941092E+02  0.78696345923E+02  0.83554112694E+02  0.00000000000E+00 0.  1.
         14    1    6    6    0    0  0.77225697523E+01 -0.14911416687E+01 -0.18444089173E+02  0.20051085069E+02  0.00000000000E+00 0. -1.
         -5    1    3    3    0  503 -0.65468458981E+01  0.31272263357E+01 -0.79209996980E+02  0.79680326037E+02  0.47000000000E+01 0.  1.
         13    1    4    4    0    0  0.12655738155E+03  0.34208648520E+02 -0.21990348136E+02  0.13293072583E+03  0.00000000000E+00 0. -1.
        -14    1    4    4    0    0 -0.10158238625E+02  0.56995333095E+01  0.87092543960E+01  0.14543919831E+02  0.00000000000E+00 0.  1.
</event>
<event>
12    1  0.8219652E-002  0.1863917E+03  0.7818608E-02  0.1162072E+00
         21   -1    0    0  503  502  0.00000000000E+00  0.00000000000E+00  0.23394554207E+03  0.23394554207E+03  0.00000000000E+00 0. -1.
         21   -1    0    0  501  503 -0.00000000000E+00 -0.00000000000E+00 -0.16460947060E+03  0.16460947060E+03  0.00000000000E+00 0. -1.
          6    2    1    2  501    0 -0.55054019247E+02 -0.40088611547E+02  0.99168563722E+02  0.21113096851E+03  0.17350458214E+03 0.  0.
         24    2    3    3    0    0 -0.96398573614E+02 -0.38244811833E+02  0.34473969663E+02  0.13418779290E+03  0.77862433503E+02 0.  0.
         -6    2    1    2    0  502  0.55054019247E+02  0.40088611547E+02 -0.29832492253E+02  0.18742404416E+03  0.17204578729E+03 0.  0.
        -24    2    5    5    0    0  0.42648728701E+02  0.20939409149E+02 -0.86554792776E+02  0.12610445053E+03  0.78442510008E+02 0.  0.
          5    1    3    3  501    0  0.41344554367E+02 -0.18437997141E+01  0.64694594059E+02  0.76943175615E+02  0.47000000000E+01 0. -1.
        -13    1    4    4    0    0 -0.31234717818E+02  0.16683230204E+02 -0.11654193626E+02  0.37279458101E+02  0.00000000000E+00 0.  1.
         14    1    4    4    0    0 -0.65163855796E+02 -0.54928042038E+02  0.46128163289E+02  0.96908334795E+02  0.00000000000E+00 0. -1.
         -5    1    5    5    0  502  0.12405290546E+02  0.19149202398E+02  0.56722300522E+02  0.61319593627E+02  0.47000000000E+01 0.  1.
         11    1    6    6    0    0  0.10894590006E+02  0.38384725610E+02 -0.95882256898E+01  0.41036731393E+02  0.00000000000E+00 0. -1.
        -12    1    6    6    0    0  0.31754138695E+02 -0.17445316460E+02 -0.76966567086E+02  0.85067719140E+02  0.00000000000E+00 0.  1.
</event>
<event>
12    1  0.8219652E-002  0.1836887E+03  0.7818608E-02  0.1165945E+00
         21   -1    0    0  503  502  0.00000000000E+00  0.00000000000E+00  0.22803414460E+02  0.22803414460E+02  0.00000000000E+00 0. -1.
         21   -1    0    0  501  503 -0.00000000000E+00 -0.00000000000E+00 -0.24452043787E+04  0.24452043787E+04  0.00000000000E+00 0. -1.
          6    2    1    2  501    0  0.37679687770E+02 -0.15073499042E+02 -0.20219570596E+04  0.20302837004E+04  0.17914961350E+03 0.  0.
         24    2    3    3    0    0  0.26554973752E+02  0.62267688822E+02 -0.12760905613E+04  0.12803208067E+04  0.78941850773E+02 0.  0.
         -6    2    1    2    0  502 -0.37679687770E+02  0.15073499042E+02 -0.40044390464E+03  0.43772409276E+03  0.17204677089E+03 0.  0.
        -24    2    5    5    0    0 -0.35208136412E+02 -0.53085074042E+02 -0.29316045573E+03  0.31050959648E+03  0.80096933473E+02 0.  0.
          5    1    3    3  501    0  0.11124714018E+02 -0.77341187864E+02 -0.74586649833E+03  0.74996289370E+03  0.47000000000E+01 0. -1.
        -11    1    4    4    0    0 -0.11502452771E+02 -0.10448095310E+02 -0.85200000034E+02  0.86605479741E+02  0.00000000000E+00 0.  1.
         12    1    4    4    0    0  0.38057426523E+02  0.72715784132E+02 -0.11908905612E+04  0.11937153270E+04  0.00000000000E+00 0. -1.
         -5    1    5    5    0  502 -0.24715513583E+01  0.68158573083E+02 -0.10728344891E+03  0.12721449627E+03  0.47000000000E+01 0.  1.
         13    1    6    6    0    0 -0.34019730180E+02 -0.45347163642E+02 -0.84809179063E+02  0.10201129420E+03  0.00000000000E+00 0. -1.
        -14    1    6    6    0    0 -0.11884062317E+01 -0.77379104001E+01 -0.20835127666E+03  0.20849830228E+03  0.00000000000E+00 0.  1.
</event>
<event>
12    1  0.8219652E-002  0.1867948E+03  0.7818608E-02  0.1161736E+00
         21   -1    0    0  501  502  0.00000000000E+00  0.00000000000E+00  0.22496714491E+03  0.22496714491E+03  0.00000000000E+00 0.  1.
         21   -1    0    0  502  503 -0.00000000000E+00 -0.00000000000E+00 -0.22570010283E+03  0.22570010283E+03  0.00000000000E+00 0.  1.
         -6    2    1    2    0  503 -0.51142105622E+02  0.47087278835E+02 -0.12751141950E+03  0.22491281979E+03  0.17173784559E+03 0.  0.
        -24    2    3    3    0    0 -0.50740500148E+02 -0.35438997836E+02 -0.55618062709E+02  0.11536149676E+03  0.79902347346E+02 0.  0.
          6    2    1    2  501    0  0.51142105622E+02 -0.47087278835E+02  0.12677846158E+03  0.22575442795E+03  0.17337692068E+03 0.  0.
         24    2    5    5    0    0 -0.15398509737E+02  0.28830269517E+02  0.76662316847E+02  0.11294997058E+03  0.76238353126E+02 0.  0.
          5    1    5    5  501    0  0.66540615360E+02 -0.75917548352E+02  0.50116144728E+02  0.11280445737E+03  0.47000000000E+01 0. -1.
        -11    1    6    6    0    0  0.11975236216E+02  0.14192355155E+02  0.79630135771E+02  0.81766666498E+02  0.00000000000E+00 0.  1.
         12    1    6    6    0    0 -0.27373745954E+02  0.14637914362E+02 -0.29678189233E+01  0.31183304083E+02  0.00000000000E+00 0. -1.
         -5    1    3    3    0  503 -0.40160547437E+00  0.82526276671E+02 -0.71893356790E+02  0.10955132303E+03  0.47000000000E+01 0.  1.
         11    1    4    4    0    0  0.27626774767E+01 -0.40371574242E+02 -0.36814498141E+01  0.40633108007E+02  0.00000000000E+00 0. -1.
        -12    1    4    4    0    0 -0.53503177625E+02  0.49325764061E+01 -0.51936612895E+02  0.74728388748E+02  0.00000000000E+00 0.  1.
</event>
<event>
12    1  0.8219652E-002  0.2867430E+03  0.7818608E-02  0.1092298E+00
         21   -1    0    0  503  502  0.00000000000E+00  0.00000000000E+00  0.55154300059E+03  0.55154300059E+03  0.00000000000E+00 0.  1.
         21   -1    0    0  501  503 -0.00000000000E+00 -0.00000000000E+00 -0.15541788641E+03  0.15541788641E+03  0.00000000000E+00 0. -1.
          6    2    1    2  501    0  0.78169516647E+01  0.22760907198E+03  0.12222474502E+03  0.31170573218E+03  0.17422566056E+03 0.  0.
         24    2    3    3    0    0 -0.33004034804E+02  0.13241535266E+03  0.80284086624E+01  0.15746212495E+03  0.78145847713E+02 0.  0.
         -6    2    1    2    0  502 -0.78169516647E+01 -0.22760907198E+03  0.27390036916E+03  0.39525515483E+03  0.17128406468E+03 0.  0.
        -24    2    5    5    0    0  0.33294752556E+01 -0.22747020304E+03  0.17644135980E+03  0.29704817634E+03  0.73159325755E+02 0.  0.
          5    1    3    3  501    0  0.40820986469E+02  0.95193719319E+02  0.11419633636E+03  0.15424360723E+03  0.47000000000E+01 0. -1.
        -13    1    4    4    0    0 -0.14410246810E+02  0.30176842394E+01  0.21484056485E+02  0.26044698393E+02  0.00000000000E+00 0.  1.
         14    1    4    4    0    0 -0.18593787993E+02  0.12939766842E+03 -0.13455647823E+02  0.13141742656E+03  0.00000000000E+00 0. -1.
         -5    1    5    5    0  502 -0.11146426920E+02 -0.13886893973E+00  0.97459009362E+02  0.98206978487E+02  0.47000000000E+01 0.  1.
         11    1    6    6    0    0 -0.12238636879E+02 -0.20843082577E+01  0.47629541164E+01  0.13297154037E+02  0.00000000000E+00 0. -1.
        -12    1    6    6    0    0  0.15568112135E+02 -0.22538589478E+03  0.17167840568E+03  0.28375102230E+03  0.00000000000E+00 0.  1.
</event>
<event>
12    1  0.8219652E-002  0.1992470E+03  0.7818608E-02  0.1150555E+00
         21   -1    0    0  501  502  0.00000000000E+00  0.00000000000E+00  0.17370461654E+03  0.17370461654E+03  0.00000000000E+00 0. -1.
         21   -1    0    0  502  503 -0.00000000000E+00 -0.00000000000E+00 -0.23746169702E+03  0.23746169702E+03  0.00000000000E+00 0. -1.
         -6    2    1    2    0  503  0.96245132513E+02 -0.26992475543E+02  0.10130758410E+02  0.19866036205E+03  0.17138141065E+03 0.  0.
        -24    2    3    3    0    0  0.81900362825E+02 -0.53159185664E+01  0.56991795729E+02  0.14486731084E+03  0.10489301478E+03 0.  0.
          6    2    1    2  501    0 -0.96245132513E+02  0.26992475543E+02 -0.73887838886E+02  0.21250595151E+03  0.17235906539E+03 0.  0.
         24    2    5    5    0    0 -0.10651692692E+02 -0.20167246178E+02 -0.77663984164E+02  0.11459463671E+03  0.81117568688E+02 0.  0.
          5    1    5    5  501    0 -0.85593439821E+02  0.47159721721E+02  0.37761452776E+01  0.97911314802E+02  0.47000000000E+01 0. -1.
        -13    1    6    6    0    0 -0.92793654490E+01  0.31096226321E+02 -0.36461682420E+02  0.48811230259E+02  0.00000000000E+00 0.  1.
         14    1    6    6    0    0 -0.13723272432E+01 -0.51263472499E+02 -0.41202301744E+02  0.65783406446E+02  0.00000000000E+00 0. -1.
         -5    1    3    3    0  503  0.14344769688E+02 -0.21676556977E+02 -0.46861037318E+02  0.53793051208E+02  0.47000000000E+01 0.  1.
         13    1    4    4    0    0  0.95329835785E+02  0.61470572424E+01  0.11682760656E+02  0.96239549043E+02  0.00000000000E+00 0. -1.
        -14    1    4    4    0    0 -0.13429472960E+02 -0.11462975809E+02  0.45309035073E+02  0.48627761799E+02  0.00000000000E+00 0.  1.
</event>
<event>
12    1  0.8219652E-002  0.2294806E+03  0.7818608E-02  0.1127236E+00
         21   -1    0    0  501  502  0.00000000000E+00  0.00000000000E+00  0.43872387711E+02  0.43872387711E+02  0.00000000000E+00 0.  1.
         21   -1    0    0  502  503 -0.00000000000E+00 -0.00000000000E+00 -0.12078151773E+04  0.12078151773E+04  0.00000000000E+00 0. -1.
         -6    2    1    2    0  503 -0.16690739765E+02  0.14883646497E+03 -0.51555323843E+03  0.56431947701E+03  0.17386907827E+03 0.  0.
        -24    2    3    3    0    0  0.20097240641E+02  0.14825747700E+03 -0.49060041190E+03  0.51961573800E+03  0.83232039850E+02 0.  0.
          6    2    1    2  501    0  0.16690739765E+02 -0.14883646497E+03 -0.64838955120E+03  0.68736808804E+03  0.17214820434E+03 0.  0.
         24    2    5    5    0    0 -0.89737679440E+01 -0.14229550984E+03 -0.33179111539E+03  0.36962902748E+03  0.78814548613E+02 0.  0.
          5    1    5    5  501    0  0.25664507709E+02 -0.65409551309E+01 -0.31659843581E+03  0.31773906056E+03  0.47000000000E+01 0. -1.
        -11    1    6    6    0    0  0.34410646989E+02 -0.71496001151E+02 -0.14724317289E+03  0.16726124109E+03  0.00000000000E+00 0.  1.
         12    1    6    6    0    0 -0.43384414933E+02 -0.70799508687E+02 -0.18454794249E+03  0.20236778639E+03  0.00000000000E+00 0. -1.
         -5    1    3    3    0  503 -0.36787980406E+02  0.57898796858E+00 -0.24952826538E+02  0.44703739012E+02  0.47000000000E+01 0.  1.
         13    1    4    4    0    0 -0.63755963423E+01  0.49094072946E+02 -0.29091674981E+03  0.29509901990E+03  0.00000000000E+00 0. -1.
        -14    1    4    4    0    0  0.26472836983E+02  0.99163404055E+02 -0.19968366208E+03  0.22451671810E+03  0.00000000000E+00 0.  1.
</event>
<event>
12    1  0.8219652E-002  0.2116766E+03  0.7818608E-02  0.1140497E+00
         21   -1    0    0  501  502  0.00000000000E+00  0.00000000000E+00  0.31606556677E+03  0.31606556677E+03  0.00000000000E+00 0.  1.
         21   -1    0    0  502  503 -0.00000000000E+00 -0.00000000000E+00 -0.30869474831E+03  0.30869474831E+03  0.00000000000E+00 0. -1.
         -6    2    1    2    0  503  0.95549883840E+02 -0.77724600238E+02 -0.22662160517E+03  0.30922993845E+03  0.17057229881E+03 0.  0.
        -24    2    3    3    0    0 -0.15672933169E+02 -0.51558154712E+02 -0.10495581615E+03  0.14225732958E+03  0.79482956188E+02 0.  0.
          6    2    1    2  501    0 -0.95549883840E+02  0.77724600238E+02  0.23399242363E+03  0.31553037662E+03  0.17215130111E+03 0.  0.
         24    2    5    5    0    0  0.59255443025E+01  0.10990803815E+02  0.14106896130E+03  0.16253520692E+03  0.79757957617E+02 0.  0.
          5    1    5    5  501    0 -0.10147542814E+03  0.66733796423E+02  0.92923462328E+02  0.15299516970E+03  0.47000000000E+01 0. -1.
        -13    1    6    6    0    0 -0.36230590176E+02  0.38689238679E+01  0.80866671688E+02  0.88696351821E+02  0.00000000000E+00 0.  1.
         14    1    6    6    0    0  0.42156134478E+02  0.71218799471E+01  0.60202289610E+02  0.73838855099E+02  0.00000000000E+00 0. -1.
         -5    1    3    3    0  503  0.11122281701E+03 -0.26166445526E+02 -0.12166578902E+03  0.16697260887E+03  0.47000000000E+01 0.  1.
         11    1    4    4    0    0 -0.21120291896E+02  0.12821069249E+02 -0.55958862403E+02  0.61170587931E+02  0.00000000000E+00 0. -1.
        -12    1    4    4    0    0  0.54473587270E+01 -0.64379223960E+02 -0.48996953749E+02  0.81086741651E+02  0.00000000000E+00 0.  1.
</event>
<event>
12    1  0.8219652E-002  0.1867044E+03  0.7818608E-02  0.1161570E+00
         21   -1    0    0  501  502  0.00000000000E+00  0.00000000000E+00  0.13756124478E+03  0.13756124478E+03  0.00000000000E+00 0.  1.
         21   -1    0    0  502  503 -0.00000000000E+00 -0.00000000000E+00 -0.25575555692E+03  0.25575555692E+03  0.00000000000E+00 0.  1.
         -6    2    1    2    0  503  0.62632421082E+02 -0.35376098306E+02 -0.38038613895E+02  0.19053991516E+03  0.17229113331E+03 0.  0.
        -24    2    3    3    0    0  0.17491343012E+02 -0.53938191696E+02  0.43332404325E+02  0.95536752859E+02  0.63516126130E+02 0.  0.
          6    2    1    2  501    0 -0.62632421082E+02  0.35376098306E+02 -0.80155698245E+02  0.20277688655E+03  0.17181164470E+03 0.  0.
         24    2    5    5    0    0 -0.29790102761E+01 -0.39980357829E+02 -0.47730143816E+02  0.10123560685E+03  0.79769530223E+02 0.  0.
          5    1    5    5  501    0 -0.59653410806E+02  0.75356456136E+02 -0.32425554429E+02  0.10154127970E+03  0.47000000000E+01 0. -1.
        -13    1    6    6    0    0 -0.21308021672E+02  0.81067004561E+01  0.91184259195E+01  0.24553942069E+02  0.00000000000E+00 0.  1.
         14    1    6    6    0    0  0.18329011396E+02 -0.48087058286E+02 -0.56848569736E+02  0.76681664786E+02  0.00000000000E+00 0. -1.
         -5    1    3    3    0  503  0.45141078070E+02  0.18562093389E+02 -0.81371018220E+02  0.95003162297E+02  0.47000000000E+01 0.  1.
         13    1    4    4    0    0 -0.18280713666E+02 -0.36607044759E+02  0.66629809765E+01  0.41456670556E+02  0.00000000000E+00 0. -1.
        -14    1    4    4    0    0  0.35772056678E+02 -0.17331146937E+02  0.36669423348E+02  0.54080082303E+02  0.00000000000E+00 0.  1.
</event>
<event>
12    1  0.8219652E-002  0.1916247E+03  0.7818608E-02  0.1157728E+00
         21   -1    0    0  503  502  0.00000000000E+00  0.00000000000E+00  0.23104619330E+03  0.23104619330E+03  0.00000000000E+00 0. -1.
         21   -1    0    0  501  503 -0.00000000000E+00 -0.00000000000E+00 -0.17109570385E+03  0.17109570385E+03  0.00000000000E+00 0.  1.
          6    2    1    2  501    0 -0.74547282347E+02  0.38361094907E+02 -0.28977004082E+02  0.19380324232E+03  0.17231122732E+03 0.  0.
         24    2    3    3    0    0 -0.10608399236E+03 -0.68720041271E+01 -0.35403989967E+02  0.13808974778E+03  0.80711201576E+02 0.  0.
         -6    2    1    2    0  502  0.74547282347E+02 -0.38361094907E+02  0.88927493529E+02  0.20833865483E+03  0.16872470206E+03 0.  0.
        -24    2    5    5    0    0  0.92138789460E+02 -0.17768377261E+02  0.11476518860E+03  0.17061336319E+03  0.84454718225E+02 0.  0.
          5    1    3    3  501    0  0.31536710014E+02  0.45233099034E+02  0.64269858850E+01  0.55713494544E+02  0.47000000000E+01 0. -1.
        -11    1    4    4    0    0 -0.83923695320E+02  0.10385368983E+02 -0.57577778999E+02  0.10230465854E+03  0.00000000000E+00 0.  1.
         12    1    4    4    0    0 -0.22160297041E+02 -0.17257373110E+02  0.22173789031E+02  0.35785089236E+02  0.00000000000E+00 0. -1.
         -5    1    5    5    0  502 -0.17591507112E+02 -0.20592717646E+02 -0.25837695075E+02  0.37725291640E+02  0.47000000000E+01 0.  1.
         11    1    6    6    0    0  0.93818075248E+02  0.13629153029E+02  0.86190729784E+02  0.12812660518E+03  0.00000000000E+00 0. -1.
        -12    1    6    6    0    0 -0.16792857880E+01 -0.31397530290E+02  0.28574458821E+02  0.42486758007E+02  0.00000000000E+00 0.  1.
</event>
<event>
12    1  0.8219652E-002  0.2045207E+03  0.7818608E-02  0.1146742E+00
         21   -1    0    0  501  502  0.00000000000E+00  0.00000000000E+00  0.10992040167E+04  0.10992040167E+04  0.00000000000E+00 0. -1.
         21   -1    0    0  502  503 -0.00000000000E+00 -0.00000000000E+00 -0.21943499965E+03  0.21943499965E+03  0.00000000000E+00 0. -1.
         -6    2    1    2    0  503 -0.98610627573E+02 -0.32089708000E+02 -0.15998821337E+03  0.25966311864E+03  0.17628074635E+03 0.  0.
        -24    2    3    3    0    0 -0.72351437528E+02 -0.90569001880E+02 -0.10944517487E+03  0.17789477748E+03  0.78935612614E+02 0.  0.
          6    2    1    2  501    0  0.98610627573E+02  0.32089708000E+02  0.10397572304E+04  0.10589758977E+04  0.17199141981E+03 0.  0.
         24    2    5    5    0    0  0.75373177990E+02 -0.40695687608E+02  0.49485351372E+03  0.50872155347E+03  0.81119442654E+02 0.  0.
          5    1    5    5  501    0  0.23237449583E+02  0.72785395608E+02  0.54490371669E+03  0.55025434422E+03  0.47000000000E+01 0. -1.
        -11    1    6    6    0    0  0.39005800049E+02 -0.62091345066E+02  0.36112572441E+03  0.36849501543E+03  0.00000000000E+00 0.  1.
         12    1    6    6    0    0  0.36367377941E+02  0.21395657459E+02  0.13372778931E+03  0.14022653804E+03  0.00000000000E+00 0. -1.
         -5    1    3    3    0  503 -0.26259190045E+02  0.58479293880E+02 -0.50543038496E+02  0.81768341154E+02  0.47000000000E+01 0.  1.
         13    1    4    4    0    0 -0.72516800982E+02 -0.91105203974E+02 -0.64824604950E+02  0.13327067953E+03  0.00000000000E+00 0. -1.
        -14    1    4    4    0    0  0.16536345401E+00  0.53620209390E+00 -0.44620569922E+02  0.44624097951E+02  0.00000000000E+00 0.  1.
</event>
<event>
12    1  0.8219652E-002  0.2134381E+03  0.7818608E-02  0.1139058E+00
         21   -1    0    0  501  502  0.00000000000E+00  0.00000000000E+00  0.24266248853E+03  0.24266248853E+03  0.00000000000E+00 0. -1.
         21   -1    0    0  502  503 -0.00000000000E+00 -0.00000000000E+00 -0.33513754742E+03  0.33513754742E+03  0.00000000000E+00 0. -1.
         -6    2    1    2    0  503 -0.14356323139E+02 -0.12460419701E+03  0.14584925009E+03  0.25851076976E+03  0.17269483027E+03 0.  0.
        -24    2    3    3    0    0 -0.43522556427E+01 -0.45201858622E+02  0.42375987458E+01  0.95781662018E+02  0.84226001827E+02 0.  0.
          6    2    1    2  501    0  0.14356323139E+02  0.12460419701E+03 -0.23832430899E+03  0.31928926618E+03  0.17150757802E+03 0.  0.
         24    2    5    5    0    0  0.68649988123E+02  0.68996906077E+02 -0.10145226951E+03  0.16182175191E+03  0.80126914850E+02 0.  0.
          5    1    5    5  501    0 -0.54293664983E+02  0.55607290938E+02 -0.13687203947E+03  0.15746751427E+03  0.47000000000E+01 0. -1.
        -13    1    6    6    0    0 -0.45594793166E+01  0.49193889733E+02 -0.31123007712E+02  0.58390660621E+02  0.00000000000E+00 0.  1.
         14    1    6    6    0    0  0.73209467439E+02  0.19803016344E+02 -0.70329261802E+02  0.10343109129E+03  0.00000000000E+00 0. -1.
         -5    1    3    3    0  503 -0.10004067497E+02 -0.79402338393E+02  0.14161165135E+03  0.16272910774E+03  0.47000000000E+01 0.  1.
         13    1    4    4    0    0 -0.82147055441E+01  0.61890821329E+01  0.34511575169E+02  0.36011594598E+02  0.00000000000E+00 0. -1.
        -14    1    4    4    0    0  0.38624499014E+01 -0.51390940755E+02 -0.30273976424E+02  0.59770067420E+02  0.00000000000E+00 0.  1.
</event>
<event>
12    1  0.8219652E-002  0.2014428E+03  0.7818608E-02  0.1148899E+00
         21   -1    0    0  501  502  0.00000000000E+00  0.00000000000E+00  0.33056597288E+03  0.33056597288E+03  0.00000000000E+00 0.  1.
         21   -1    0    0  502  503 -0.00000000000E+00 -0.00000000000E+00 -0.20150407057E+03  0.20150407057E+03  0.00000000000E+00 0.  1.
         -6    2    1    2    0  503 -0.96228688427E+02 -0.35633846490E+02 -0.10308248866E+03  0.22470998880E+03  0.17128586663E+03 0.  0.
        -24    2    3    3    0    0 -0.11639553805E+03 -0.65620090705E+02 -0.10591797922E+03  0.18815856376E+03  0.79568267600E+02 0.  0.
          6    2    1    2  501    0  0.96228688427E+02  0.35633846490E+02  0.23214439098E+03  0.30736005465E+03  0.17334778176E+03 0.  0.
         24    2    5    5    0    0  0.49901855778E+02 -0.43597380830E+02  0.16301234582E+03  0.19235965259E+03  0.77706397614E+02 0.  0.
          5    1    5    5  501    0  0.46326832649E+02  0.79231227320E+02  0.69132045159E+02  0.11500040206E+03  0.47000000000E+01 0. -1.
        -11    1    6    6    0    0  0.18891821864E+02 -0.58243690428E+02  0.68809993838E+02  0.92108868520E+02  0.00000000000E+00 0.  1.
         12    1    6    6    0    0  0.31010033913E+02  0.14646309598E+02  0.94202351982E+02  0.10025078407E+03  0.00000000000E+00 0. -1.
         -5    1    3    3    0  503  0.20166849628E+02  0.29986244216E+02  0.28354905588E+01  0.36551425045E+02  0.47000000000E+01 0.  1.
         11    1    4    4    0    0 -0.53735765092E+02  0.69423341309E+01 -0.15453910489E+02  0.56343161098E+02  0.00000000000E+00 0. -1.
        -12    1    4    4    0    0 -0.62659772963E+02 -0.72562424836E+02 -0.90464068734E+02  0.13181540266E+03  0.00000000000E+00 0.  1.
</event>
<event>
12    1  0.8219652E-002  0.1843975E+03  0.7818608E-02  0.1163950E+00
         21   -1    0    0  503  502  0.00000000000E+00  0.00000000000E+00  0.50636259078E+02  0.50636259078E+02  0.00000000000E+00 0.  1.
         21   -1    0    0  501  503 -0.00000000000E+00 -0.00000000000E+00 -0.67776704289E+03  0.67776704289E+03  0.00000000000E+00 0.  1.
          6    2    1    2  501    0  0.57111822514E+02 -0.36667513450E+02 -0.35970974179E+03  0.40357032940E+03  0.16991658430E+03 0.  0.
         24    2    3    3    0    0  0.46672147345E+02 -0.54591857470E+02 -0.11033120291E+03  0.15328646140E+03  0.78518817321E+02 0.  0.
         -6    2    1    2    0  502 -0.57111822514E+02  0.36667513450E+02 -0.26742104202E+03  0.32483297256E+03  0.17145314094E+03 0.  0.
        -24    2    5    5    0    0 -0.67297912108E+02  0.69480012648E+02 -0.26114766462E+03  0.28959291313E+03  0.79432181559E+02 0.  0.
          5    1    3    3  501    0  0.10439675169E+02  0.17924344020E+02 -0.24937853888E+03  0.25028386800E+03  0.47000000000E+01 0. -1.
        -11    1    4    4    0    0  0.20825950531E+02 -0.59469972324E+02 -0.11024741659E+03  0.12698382058E+03  0.00000000000E+00 0.  1.
         12    1    4    4    0    0  0.25846196814E+02  0.48781148549E+01 -0.83786324355E-01  0.26302640826E+02  0.00000000000E+00 0. -1.
         -5    1    5    5    0  502  0.10186089595E+02 -0.32812499198E+02 -0.62733773952E+01  0.35240059432E+02  0.47000000000E+01 0.  1.
         11    1    6    6    0    0 -0.28312307313E+02  0.37032354876E+01 -0.16142242993E+03  0.16392834283E+03  0.00000000000E+00 0. -1.
        -12    1    6    6    0    0 -0.38985604795E+02  0.65776777160E+02 -0.99725234689E+02  0.12566457030E+03  0.00000000000E+00 0.  1.
</event>
<event>
12    1  0.8219652E-002  0.2166230E+03  0.7818608E-02  0.1136459E+00
         21   -1    0    0  501  502  0.00000000000E+00  0.00000000000E+00  0.12732842117E+03  0.12732842117E+03  0.00000000000E+00 0.  1.
         21   -1    0    0  502  503 -0.00000000000E+00 -0.00000000000E+00 -0.37981336499E+03  0.37981336499E+03  0.00000000000E+00 0.  1.
         -6    2    1    2    0  503  0.12547236812E+03 -0.44119152172E+02 -0.81935815933E+02  0.23143809004E+03  0.17076386281E+03 0.  0.
        -24    2    3    3    0    0  0.10324674721E+03 -0.15477233967E+02  0.23010270962E+02  0.12030704641E+03  0.55180406549E+02 0.  0.
          6    2    1    2  501    0 -0.12547236812E+03  0.44119152172E+02 -0.17054912789E+03  0.27570369612E+03  0.17098452644E+03 0.  0.
         24    2    5    5    0    0 -0.57269237004E+02 -0.39857859435E+02 -0.11683516762E+03  0.15482737462E+03  0.73842027823E+02 0.  0.
          5    1    5    5  501    0 -0.68203131112E+02  0.83977011607E+02 -0.53713960273E+02  0.12087632150E+03  0.47000000000E+01 0. -1.
        -11    1    6    6    0    0 -0.50245293946E+02  0.95072831091E+01 -0.67500528488E+02  0.84683524620E+02  0.00000000000E+00 0.  1.
         12    1    6    6    0    0 -0.70239430584E+01 -0.49365142544E+02 -0.49334639127E+02  0.70143849996E+02  0.00000000000E+00 0. -1.
         -5    1    3    3    0  503  0.22225620910E+02 -0.28641918205E+02 -0.10494608689E+03  0.11113104363E+03  0.47000000000E+01 0.  1.
         11    1    4    4    0    0  0.67324762853E+01 -0.72046983408E+01  0.21246057380E+02  0.23422827953E+02  0.00000000000E+00 0. -1.
        -12    1    4    4    0    0  0.96514270921E+02 -0.82725356258E+01  0.17642135824E+01  0.96884218460E+02  0.00000000000E+00 0.  1.
</event>
<event>
12    1  0.8219652E-002  0.1968826E+03  0.7818608E-02  0.1152426E+00
         21   -1    0    0  501  502  0.00000000000E+00  0.00000000000E+00  0.15484809620E+03  0.15484809620E+03  0.00000000000E+00 0.  1.
         21   -1    0    0  502  503 -0.00000000000E+00 -0.00000000000E+00 -0.30299533193E+03  0.30299533193E+03  0.00000000000E+00 0. -1.
         -6    2    1    2    0  503  0.79083329210E+02  0.54003989477E+02 -0.16965261894E+03  0.25978976118E+03  0.17186653270E+03 0.  0.
        -24    2    3    3    0    0  0.49873032866E+01  0.19685413274E+02 -0.15669554084E+03  0.17697695056E+03  0.79718001849E+02 0.  0.
          6    2    1    2  501    0 -0.79083329210E+02 -0.54003989477E+02  0.21505383205E+02  0.19805366695E+03  0.17202374734E+03 0.  0.
         24    2    5    5    0    0 -0.53663673895E+02 -0.85066476498E+02 -0.30852449768E+02  0.13191389336E+03  0.79582072644E+02 0.  0.
          5    1    5    5  501    0 -0.25419655315E+02  0.31062487021E+02  0.52357832973E+02  0.66139773585E+02  0.47000000000E+01 0. -1.
        -13    1    6    6    0    0 -0.36849845606E+02 -0.99185426882E+02 -0.21114862076E+02  0.10789577113E+03  0.00000000000E+00 0.  1.
         14    1    6    6    0    0 -0.16813828289E+02  0.14118950384E+02 -0.97375876921E+01  0.24018122236E+02  0.00000000000E+00 0. -1.
         -5    1    3    3    0  503  0.74096025923E+02  0.34318576203E+02 -0.12957078101E+02  0.82812810622E+02  0.47000000000E+01 0.  1.
         13    1    4    4    0    0  0.30089958768E+02  0.39412645865E+02 -0.10666731996E+03  0.11762941563E+03  0.00000000000E+00 0. -1.
        -14    1    4    4    0    0 -0.25102655481E+02 -0.19727232591E+02 -0.50028220878E+02  0.59347534929E+02  0.00000000000E+00 0.  1.
</event>
<event>
12    1  0.8219652E-002  0.2004501E+03  0.7818608E-02  0.1149362E+00
         21   -1    0    0  503  502  0.00000000000E+00  0.00000000000E+00  0.62376223584E+02  0.62376223584E+02  0.00000000000E+00 0.  1.
         21   -1    0    0  501  503 -0.00000000000E+00 -0.00000000000E+00 -0.10551360227E+04  0.10551360227E+04  0.00000000000E+00 0. -1.
          6    2    1    2  501    0 -0.53803294422E+02 -0.88100656480E+02 -0.84510486610E+03  0.86854996598E+03  0.17181469247E+03 0.  0.
         24    2    3    3    0    0 -0.51161390517E+02  0.79889558524E+01 -0.28890031383E+03  0.30408049186E+03  0.79499955371E+02 0.  0.
         -6    2    1    2    0  502  0.53803294422E+02  0.88100656480E+02 -0.14765493298E+03  0.24896228026E+03  0.17182467110E+03 0.  0.
        -24    2    5    5    0    0 -0.14826891631E+02  0.76663615522E+02 -0.92672668517E+02  0.16015885832E+03  0.10471623440E+03 0.  0.
          5    1    3    3  501    0 -0.26419039056E+01 -0.96089612333E+02 -0.55620455227E+03  0.56446947412E+03  0.47000000000E+01 0. -1.
        -13    1    4    4    0    0 -0.62429655266E+02 -0.18645621955E+02 -0.21738043263E+03  0.22693473415E+03  0.00000000000E+00 0.  1.
         14    1    4    4    0    0  0.11268264749E+02  0.26634577807E+02 -0.71519881200E+02  0.77145757708E+02  0.00000000000E+00 0. -1.
         -5    1    5    5    0  502  0.68630186053E+02  0.11437040958E+02 -0.54982264466E+02  0.88803421946E+02  0.47000000000E+01 0.  1.
         13    1    6    6    0    0 -0.44323619526E+02  0.23761467338E+01 -0.10681178650E+02  0.45654319604E+02  0.00000000000E+00 0. -1.
        -14    1    6    6    0    0  0.29496727895E+02  0.74287468788E+02 -0.81991489867E+02  0.11450453871E+03  0.00000000000E+00 0.  1.
</event>
<event>
12    1  0.8219652E-002  0.1927109E+03  0.7818608E-02  0.1157441E+00
         21   -1    0    0  501  502  0.00000000000E+00  0.00000000000E+00  0.10206877525E+03  0.10206877525E+03  0.00000000000E+00 0. -1.
         21   -1    0    0  502  503 -0.00000000000E+00 -0.00000000000E+00 -0.40619265395E+03  0.40619265395E+03  0.00000000000E+00 0. -1.
         -6    2    1    2    0  503  0.22714332273E+00  0.77993580507E+02 -0.24254520682E+03  0.30595116622E+03  0.16939565686E+03 0.  0.
        -24    2    3    3    0    0  0.20961634485E+02  0.87074595208E+02 -0.25235798546E+03  0.28083613931E+03  0.84634561877E+02 0.  0.
          6    2    1    2  501    0 -0.22714332273E+00 -0.77993580507E+02 -0.61578671882E+02  0.20231026298E+03  0.17622275529E+03 0.  0.
         24    2    5    5    0    0 -0.31290297929E+00  0.22821810502E+02 -0.59138617815E+02  0.10135584612E+03  0.79086651741E+02 0.  0.
          5    1    5    5  501    0  0.85759656558E-01 -0.10081539101E+03 -0.24400540671E+01  0.10095441686E+03  0.47000000000E+01 0. -1.
        -13    1    6    6    0    0 -0.97005173007E+01  0.86980292492E+01 -0.76196353032E+02  0.77302263641E+02  0.00000000000E+00 0.  1.
         14    1    6    6    0    0  0.93876143215E+01  0.14123781253E+02  0.17057735217E+02  0.24053582483E+02  0.00000000000E+00 0. -1.
         -5    1    3    3    0  503 -0.20734491162E+02 -0.90810147010E+01  0.98127786423E+01  0.25115026905E+02  0.47000000000E+01 0.  1.
         11    1    4    4    0    0  0.13159712204E+01  0.72579935634E+02 -0.24471330410E+03  0.25525316852E+03  0.00000000000E+00 0. -1.
        -12    1    4    4    0    0  0.19645663264E+02  0.14494659574E+02 -0.76446813661E+01  0.25582970790E+02  0.00000000000E+00 0.  1.
</event>
<event>
12    1  0.8219652E-002  0.2623136E+03  0.7818608E-02  0.1109331E+00
         21   -1    0    0  503  502  0.00000000000E+00  0.00000000000E+00  0.51969471646E+02  0.51969471646E+02  0.00000000000E+00 0.  1.
         21   -1    0    0  501  503 -0.00000000000E+00 -0.00000000000E+00 -0.12792008338E+04  0.12792008338E+04  0.00000000000E+00 0. -1.
          6    2    1    2  501    0 -0.11080049164E+03 -0.14278286489E+03 -0.48655703139E+03  0.55276231241E+03  0.19011768399E+03 0.  0.
         24    2    3    3    0    0 -0.56897002905E+01 -0.95647290462E+02 -0.13957796077E+03  0.18713052182E+03  0.79718556200E+02 0.  0.
         -6    2    1    2    0  502  0.11080049164E+03  0.14278286489E+03 -0.74067433080E+03  0.77840799308E+03  0.15702497867E+03 0.  0.
        -24    2    5    5    0    0  0.31016529921E+02  0.11727104265E+03 -0.57054399671E+03  0.58871678559E+03  0.79702439593E+02 0.  0.
          5    1    3    3  501    0 -0.10511079135E+03 -0.47135574425E+02 -0.34697907062E+03  0.36563179059E+03  0.47000000000E+01 0. -1.
        -13    1    4    4    0    0 -0.19240086341E+02 -0.89943478708E+02 -0.14478776273E+03  0.17153281471E+03  0.00000000000E+00 0.  1.
         14    1    4    4    0    0  0.13550386050E+02 -0.57038117540E+01  0.52098019653E+01  0.15597707112E+02  0.00000000000E+00 0. -1.
         -5    1    5    5    0  502  0.79783961723E+02  0.25511822240E+02 -0.17013033409E+03  0.18969120749E+03  0.47000000000E+01 0.  1.
         11    1    6    6    0    0  0.25354945942E+02  0.10745623205E+03 -0.33145797823E+03  0.34936242847E+03  0.00000000000E+00 0. -1.
        -12    1    6    6    0    0  0.56615839783E+01  0.98148105939E+01 -0.23908601848E+03  0.23935435712E+03  0.00000000000E+00 0.  1.
</event>
<event>
12    1  0.8219652E-002  0.2260349E+03  0.7818608E-02  0.1129545E+00
         21   -1    0    0  503  502  0.00000000000E+00  0.00000000000E+00  0.10269093036E+04  0.10269093036E+04  0.00000000000E+00 0. -1.
         21   -1    0    0  501  503 -0.00000000000E+00 -0.00000000000E+00 -0.56811934033E+02  0.56811934033E+02  0.00000000000E+00 0. -1.
          6    2    1    2  501    0 -0.23605704259E+02 -0.14435821638E+03  0.29225850460E+03  0.36918831276E+03  0.17172202205E+03 0.  0.
         24    2    3    3    0    0  0.35930229443E+01 -0.84407654294E+02  0.64964846675E+02  0.13250637938E+03  0.78739744448E+02 0.  0.
         -6    2    1    2    0  502  0.23605704259E+02  0.14435821638E+03  0.67783886494E+03  0.71453292485E+03  0.17232309757E+03 0.  0.
        -24    2    5    5    0    0  0.20727533082E+02  0.11769480887E+02  0.36768796679E+03  0.37718484604E+03  0.80658637819E+02 0.  0.
          5    1    3    3  501    0 -0.27198727204E+02 -0.59950562085E+02  0.22729365792E+03  0.23668193338E+03  0.47000000000E+01 0. -1.
        -11    1    4    4    0    0  0.27001140442E+02 -0.22904939271E+02 -0.57917114502E+01  0.35878151426E+02  0.00000000000E+00 0.  1.
         12    1    4    4    0    0 -0.23408117498E+02 -0.61502715023E+02  0.70756558125E+02  0.96628227955E+02  0.00000000000E+00 0. -1.
         -5    1    5    5    0  502  0.28781711776E+01  0.13258873549E+03  0.31015089816E+03  0.33734807881E+03  0.47000000000E+01 0.  1.
         11    1    6    6    0    0  0.18975049219E+02  0.40308370413E+01  0.15296096435E+02  0.24703657751E+02  0.00000000000E+00 0. -1.
        -12    1    6    6    0    0  0.17524838628E+01  0.77386438462E+01  0.35239187035E+03  0.35248118829E+03  0.00000000000E+00 0.  1.
</event>
<event>
12    1  0.8219652E-002  0.2656747E+03  0.7818608E-02  0.1103838E+00
         21   -1    0    0  503  502  0.00000000000E+00  0.00000000000E+00  0.21055960288E+03  0.21055960288E+03  0.00000000000E+00 0.  1.
         21   -1    0    0  501  503 -0.00000000000E+00 -0.00000000000E+00 -0.25558453638E+04  0.25558453638E+04  0.00000000000E+00 0. -1.
          6    2    1    2  501    0 -0.13307375596E+03  0.15137093021E+03 -0.24619800580E+04  0.24762315870E+04  0.17249719823E+03 0.  0.
         24    2    3    3    0    0 -0.32239884818E+02  0.59303865711E+02 -0.58289838068E+03  0.59218969416E+03  0.79760598051E+02 0.  0.
         -6    2    1    2    0  502  0.13307375596E+03 -0.15137093021E+03  0.11669429704E+03  0.29017337972E+03  0.17309317809E+03 0.  0.
        -24    2    5    5    0    0  0.85701529623E+02 -0.64228916148E+02 -0.46905214025E+01  0.13334792710E+03  0.79306764028E+02 0.  0.
          5    1    3    3  501    0 -0.10083387114E+03  0.92067064494E+02 -0.18790816773E+04  0.18840418928E+04  0.47000000000E+01 0. -1.
        -13    1    4    4    0    0 -0.15058088057E+01 -0.18522576183E+02 -0.66161277055E+02  0.68721669583E+02  0.00000000000E+00 0.  1.
         14    1    4    4    0    0 -0.30734076012E+02  0.77826441895E+02 -0.51673710363E+03  0.52346802458E+03  0.00000000000E+00 0. -1.
         -5    1    5    5    0  502  0.47372226336E+02 -0.87142014057E+02  0.12138481845E+03  0.15682545263E+03  0.47000000000E+01 0.  1.
         11    1    6    6    0    0  0.73330714541E+02 -0.65141173804E+02  0.24956370043E+02  0.10121060530E+03  0.00000000000E+00 0. -1.
        -12    1    6    6    0    0  0.12370815082E+02  0.91225765556E+00 -0.29646891445E+02  0.32137321796E+02  0.00000000000E+00 0.  1.
</event>
<event>
12    1  0.8219652E-002  0.2196194E+03  0.7818608E-02  0.1134249E+00
         21   -1    0    0  501  502  0.00000000000E+00  0.00000000000E+00  0.58896310618E+03  0.58896310618E+03  0.00000000000E+00 0. -1.
         21   -1    0    0  502  503 -0.00000000000E+00 -0.00000000000E+00 -0.14329382455E+03  0.14329382455E+03  0.00000000000E+00 0. -1.
         -6    2    1    2    0  503  0.95628989706E+02  0.96011823599E+02 -0.17275574266E+02  0.21986000111E+03  0.17226955819E+03 0.  0.
        -24    2    3    3    0    0  0.10986692735E+03  0.20134499822E+02 -0.32208701852E+02  0.14108706520E+03  0.79950107468E+02 0.  0.
          6    2    1    2  501    0 -0.95628989706E+02 -0.96011823599E+02  0.46294485590E+03  0.51239692961E+03  0.17282794893E+03 0.  0.
         24    2    5    5    0    0  0.34517425724E+01 -0.25437731961E+02  0.28099149494E+03  0.29347500407E+03  0.80699225835E+02 0.  0.
          5    1    5    5  501    0 -0.99080732278E+02 -0.70574091638E+02  0.18195336096E+03  0.21892192554E+03  0.47000000000E+01 0. -1.
        -13    1    6    6    0    0 -0.14831364412E+02  0.21442304834E+02  0.16488586878E+03  0.16693439290E+03  0.00000000000E+00 0.  1.
         14    1    6    6    0    0  0.18283106985E+02 -0.46880036795E+02  0.11610562616E+03  0.12654061118E+03  0.00000000000E+00 0. -1.
         -5    1    3    3    0  503 -0.14237937647E+02  0.75877323777E+02  0.14933127587E+02  0.78772935907E+02  0.47000000000E+01 0.  1.
         13    1    4    4    0    0  0.32077143918E+02  0.43499059540E+02 -0.24987030275E+02  0.59543790816E+02  0.00000000000E+00 0. -1.
        -14    1    4    4    0    0  0.77789783434E+02 -0.23364559718E+02 -0.72216715776E+01  0.81543274388E+02  0.00000000000E+00 0.  1.
</event>
<event>
12    1  0.8219652E-002  0.1959476E+03  0.7818608E-02  0.1153323E+00
         21   -1    0    0  501  502  0.00000000000E+00  0.00000000000E+00  0.18555434380E+04  0.18555434380E+04  0.00000000000E+00 0. -1.
         21   -1    0    0  502  503 -0.00000000000E+00 -0.00000000000E+00 -0.22029069107E+02  0.22029069107E+02  0.00000000000E+00 0. -1.
         -6    2    1    2    0  503 -0.88197716275E+02 -0.30075477148E+02  0.68174843758E+03  0.70934928297E+03  0.17237198622E+03 0.  0.
        -24    2    3    3    0    0 -0.40632062978E+02 -0.82053646296E+02  0.36340631275E+03  0.38326950764E+03  0.80296960891E+02 0.  0.
          6    2    1    2  501    0  0.88197716275E+02  0.30075477148E+02  0.11517659314E+04  0.11682232242E+04  0.17174798219E+03 0.  0.
         24    2    5    5    0    0  0.84368660339E+02  0.34312820925E+02  0.11540878887E+04  0.11604709189E+04  0.80488869106E+02 0.  0.
          5    1    5    5  501    0  0.38290559359E+01 -0.42373437772E+01 -0.23219573836E+01  0.77523053176E+01  0.47000000000E+01 0. -1.
        -13    1    6    6    0    0  0.38589651113E+02 -0.25479721506E+02  0.44004857194E+03  0.44247160705E+03  0.00000000000E+00 0.  1.
         14    1    6    6    0    0  0.45779009226E+02  0.59792542432E+02  0.71403931680E+03  0.71799931181E+03  0.00000000000E+00 0. -1.
         -5    1    3    3    0  503 -0.47565653297E+02  0.51978169148E+02  0.31834212482E+03  0.32607977533E+03  0.47000000000E+01 0.  1.
         13    1    4    4    0    0 -0.32091689944E+02 -0.62897520207E+02  0.35274253808E+03  0.35974056316E+03  0.00000000000E+00 0. -1.
        -14    1    4    4    0    0 -0.85403730343E+01 -0.19156126090E+02  0.10663774676E+02  0.23528944487E+02  0.00000000000E+00 0.  1.
</event>
<event>
12    1  0.8219652E-002  0.2205751E+03  0.7818608E-02  0.1133929E+00
         21   -1    0    0  501  502  0.00000000000E+00  0.00000000000E+00  0.41686338048E+03  0.41686338048E+03  0.00000000000E+00 0. -1.
         21   -1    0    0  502  503 -0.00000000000E+00 -0.00000000000E+00 -0.20167207579E+03  0.20167207579E+03  0.00000000000E+00 0. -1.
         -6    2    1    2    0  503 -0.93291482596E+02 -0.95526136728E+02 -0.95065836162E+02  0.23786121031E+03  0.17237139740E+03 0.  0.
        -24    2    3    3    0    0 -0.66328937132E+02 -0.13087147983E+03 -0.10138781143E+03  0.19271334759E+03  0.73021051056E+02 0.  0.
          6    2    1    2  501    0  0.93291482596E+02  0.95526136728E+02  0.31025714085E+03  0.38067424596E+03  0.17557005600E+03 0.  0.
         24    2    5    5    0    0  0.50316372812E+02 -0.83490649914E+01  0.20715392511E+03  0.22806598705E+03  0.80621966598E+02 0.  0.
          5    1    5    5  501    0  0.42975109784E+02  0.10387520172E+03  0.10310321574E+03  0.15260825891E+03  0.47000000000E+01 0. -1.
        -11    1    6    6    0    0  0.68491413202E+02 -0.20791045421E+02  0.13753398603E+03  0.15504495660E+03  0.00000000000E+00 0.  1.
         12    1    6    6    0    0 -0.18175040390E+02  0.12441980430E+02  0.69619939081E+02  0.73021030449E+02  0.00000000000E+00 0. -1.
         -5    1    3    3    0  503 -0.26962545465E+02  0.35345343104E+02  0.63219752686E+01  0.45147862722E+02  0.47000000000E+01 0.  1.
         11    1    4    4    0    0 -0.50038202983E+02 -0.58067524275E+02 -0.88368720898E+02  0.11698157960E+03  0.00000000000E+00 0. -1.
        -12    1    4    4    0    0 -0.16290734148E+02 -0.72803955557E+02 -0.13019090533E+02  0.75731767985E+02  0.00000000000E+00 0.  1.
</event>
<event>
12    1  0.8219652E-002  0.1847023E+03  0.7818608E-02  0.1163574E+00
         21   -1    0    0  503  502  0.00000000000E+00  0.00000000000E+00  0.10088674337E+03  0.10088674337E+03  0.00000000000E+00 0.  1.
         21   -1    0    0  501  503 -0.00000000000E+00 -0.00000000000E+00 -0.39505631059E+03  0.39505631059E+03  0.00000000000E+00 0. -1.
          6    2    1    2  501    0 -0.65533523111E+02 -0.63401756633E+01 -0.24241241000E+03  0.30412614535E+03  0.17144706264E+03 0.  0.
         24    2    3    3    0    0  0.12788695523E+02 -0.45326026230E+02 -0.11974284434E+03  0.15338073476E+03  0.83482343266E+02 0.  0.
         -6    2    1    2    0  502  0.65533523111E+02  0.63401756633E+01 -0.51757157220E+02  0.19181690861E+03  0.17256906625E+03 0.  0.
        -24    2    5    5    0    0  0.29339966658E+01  0.22974560692E+02 -0.84891847390E+02  0.11891011079E+03  0.79978434084E+02 0.  0.
          5    1    3    3  501    0 -0.78322218634E+02  0.38985850567E+02 -0.12266956566E+03  0.15074541060E+03  0.47000000000E+01 0. -1.
        -13    1    4    4    0    0 -0.21272525403E+02 -0.49299989794E+02 -0.10078880860E+03  0.11419891974E+03  0.00000000000E+00 0.  1.
         14    1    4    4    0    0  0.34061220926E+02  0.39739635639E+01 -0.18954035741E+02  0.39181815020E+02  0.00000000000E+00 0. -1.
         -5    1    5    5    0  502  0.62599526445E+02 -0.16634385028E+02  0.33134690170E+02  0.72906797825E+02  0.47000000000E+01 0.  1.
         13    1    6    6    0    0 -0.81909227080E+01  0.41572711262E+02 -0.13759963055E+02  0.44550175305E+02  0.00000000000E+00 0. -1.
        -14    1    6    6    0    0  0.11124919374E+02 -0.18598150570E+02 -0.71131884335E+02  0.74359935482E+02  0.00000000000E+00 0.  1.
</event>
<event>
12    1  0.8219652E-002  0.1929806E+03  0.7818608E-02  0.1156172E+00
         21   -1    0    0  503  502  0.00000000000E+00  0.00000000000E+00  0.57328053662E+02  0.57328053662E+02  0.00000000000E+00 0. -1.
         21   -1    0    0  501  503 -0.00000000000E+00 -0.00000000000E+00 -0.66208823693E+03  0.66208823693E+03  0.00000000000E+00 0. -1.
          6    2    1    2  501    0  0.74461560975E+02  0.39545743881E+02 -0.36055381801E+03  0.40816358977E+03  0.17172673179E+03 0.  0.
         24    2    3    3    0    0  0.88559669701E+01 -0.66912242508E+00 -0.60391435137E+02  0.98258966494E+02  0.76998851828E+02 0.  0.
         -6    2    1    2    0  502 -0.74461560975E+02 -0.39545743881E+02 -0.24420636526E+03  0.31125270082E+03  0.17358889657E+03 0.  0.
        -24    2    5    5    0    0 -0.58958263841E+02  0.39398520363E+02 -0.17855470443E+03  0.20730665882E+03  0.77884196296E+02 0.  0.
          5    1    3    3  501    0  0.65605594005E+02  0.40214866306E+02 -0.30016238288E+03  0.30990462328E+03  0.47000000000E+01 0. -1.
        -11    1    4    4    0    0  0.69040442641E+00  0.18501614298E+02 -0.72043880684E+02  0.74384858230E+02  0.00000000000E+00 0.  1.
         12    1    4    4    0    0  0.81655625437E+01 -0.19170736723E+02  0.11652445547E+02  0.23874108264E+02  0.00000000000E+00 0. -1.
         -5    1    5    5    0  502 -0.15503297134E+02 -0.78944264244E+02 -0.65651660823E+02  0.10394604200E+03  0.47000000000E+01 0.  1.
         13    1    6    6    0    0 -0.72293003307E+02  0.25943034071E+02 -0.97774412522E+02  0.12433485066E+03  0.00000000000E+00 0. -1.
        -14    1    6    6    0    0  0.13334739466E+02  0.13455486292E+02 -0.80780291912E+02  0.82971808160E+02  0.00000000000E+00 0.  1.
</event>
<event>
12    1  0.8219652E-002  0.1788970E+03  0.7818608E-02  0.1169758E+00
         21   -1    0    0  501  502  0.00000000000E+00  0.00000000000E+00  0.27941016441E+02  0.27941016441E+02  0.00000000000E+00 0. -1.
         21   -1    0    0  502  503 -0.00000000000E+00 -0.00000000000E+00 -0.13461182533E+04  0.13461182533E+04  0.00000000000E+00 0. -1.
         -6    2    1    2    0  503  0.37509832660E+02  0.25655679805E+02 -0.93348058019E+03  0.94980030733E+03  0.16932049129E+03 0.  0.
        -24    2    3    3    0    0  0.94033798747E+01  0.57060834602E+02 -0.85386399927E+03  0.85959417455E+03  0.80461501712E+02 0.  0.
          6    2    1    2  501    0 -0.37509832660E+02 -0.25655679805E+02 -0.38469665666E+03  0.42425896240E+03  0.17302874928E+03 0.  0.
         24    2    5    5    0    0 -0.21212676121E+01 -0.55943735642E+02 -0.35619074154E+03  0.36944660924E+03  0.80527954028E+02 0.  0.
          5    1    5    5  501    0 -0.35388565048E+02  0.30288055837E+02 -0.28505915115E+02  0.54812353161E+02  0.47000000000E+01 0. -1.
        -13    1    6    6    0    0 -0.15615060605E+02  0.44835228096E+00 -0.23046746741E+03  0.23099628714E+03  0.00000000000E+00 0.  1.
         14    1    6    6    0    0  0.13493792993E+02 -0.56392087923E+02 -0.12572327413E+03  0.13845032209E+03  0.00000000000E+00 0. -1.
         -5    1    3    3    0  503  0.28106452785E+02 -0.31405154797E+02 -0.79616580912E+02  0.90206132785E+02  0.47000000000E+01 0.  1.
         13    1    4    4    0    0  0.33195579488E+02  0.37069619650E+00 -0.43201366279E+03  0.43328730509E+03  0.00000000000E+00 0. -1.
        -14    1    4    4    0    0 -0.23792199613E+02  0.56690138406E+02 -0.42185033648E+03  0.42630686946E+03  0.00000000000E+00 0.  1.
</event>
<event>
12    1  0.8219652E-002  0.2031883E+03  0.7818608E-02  0.1147094E+00
         21   -1    0    0  501  502  0.00000000000E+00  0.00000000000E+00  0.55344667787E+03  0.55344667787E+03  0.00000000000E+00 0. -1.
         21   -1    0    0  502  503 -0.00000000000E+00 -0.00000000000E+00 -0.10123753161E+03  0.10123753161E+03  0.00000000000E+00 0.  1.
         -6    2    1    2    0  503  0.89416017803E+02 -0.60573229172E+02  0.58054073359E+02  0.21123892051E+03  0.17200949326E+03 0.  0.
        -24    2    3    3    0    0  0.60703477105E+02  0.68956510258E+01  0.85500502743E+02  0.13280515052E+03  0.81205972067E+02 0.  0.
          6    2    1    2  501    0 -0.89416017803E+02  0.60573229172E+02  0.39415507290E+03  0.44344528897E+03  0.17210799658E+03 0.  0.
         24    2    5    5    0    0 -0.10613010056E+02 -0.19645518671E+02  0.10499585020E+03  0.13315492881E+03  0.78787842471E+02 0.  0.
          5    1    5    5  501    0 -0.78803007746E+02  0.80218747843E+02  0.28915922270E+03  0.31029036016E+03  0.47000000000E+01 0. -1.
        -11    1    6    6    0    0 -0.56593714759E+01  0.24377899659E+02  0.76477581917E+02  0.80468198769E+02  0.00000000000E+00 0.  1.
         12    1    6    6    0    0 -0.49536385802E+01 -0.44023418330E+02  0.28518268280E+02  0.52686730040E+02  0.00000000000E+00 0. -1.
         -5    1    3    3    0  503  0.28712540698E+02 -0.67468880198E+02 -0.27446429384E+02  0.78433769987E+02  0.47000000000E+01 0.  1.
         13    1    4    4    0    0  0.50246034806E+02 -0.32601556012E+02  0.59193586479E+02  0.84210487164E+02  0.00000000000E+00 0. -1.
        -14    1    4    4    0    0  0.10457442299E+02  0.39497207038E+02  0.26306916264E+02  0.48594663355E+02  0.00000000000E+00 0.  1.
</event>
<event>
12    1  0.8219652E-002  0.1904229E+03  0.7818608E-02  0.1158189E+00
         21   -1    0    0  503  502  0.00000000000E+00  0.00000000000E+00  0.16056134185E+03  0.16056134185E+03  0.00000000000E+00 0. -1.
         21   -1    0    0  501  503 -0.00000000000E+00 -0.00000000000E+00 -0.26870601461E+03  0.26870601461E+03  0.00000000000E+00 0. -1.
          6    2    1    2  501    0 -0.19566575373E+02  0.78489308281E+02 -0.14031473332E+03  0.23614613298E+03  0.17185269666E+03 0.  0.
         24    2    3    3    0    0 -0.57312805494E+02  0.60478897525E+01 -0.37072250623E+02  0.10441292820E+03  0.78780537988E+02 0.  0.
         -6    2    1    2    0  502  0.19566575373E+02 -0.78489308281E+02  0.32170060566E+02  0.19312122348E+03  0.17238756271E+03 0.  0.
        -24    2    5    5    0    0 -0.15488640723E+02 -0.88752493562E+02  0.71409505203E+02  0.13930649350E+03  0.78677052518E+02 0.  0.
          5    1    3    3  501    0  0.37746230122E+02  0.72441418529E+02 -0.10324248270E+03  0.13173320478E+03  0.47000000000E+01 0. -1.
        -13    1    4    4    0    0 -0.29218455988E+02 -0.61292751431E+00 -0.60527325084E+02  0.67213472848E+02  0.00000000000E+00 0.  1.
         14    1    4    4    0    0 -0.28094349506E+02  0.66608172668E+01  0.23455074461E+02  0.37199455356E+02  0.00000000000E+00 0. -1.
         -5    1    5    5    0  502  0.35055216096E+02  0.10263185280E+02 -0.39239444637E+02  0.53814729982E+02  0.47000000000E+01 0.  1.
         13    1    6    6    0    0 -0.43922748478E+02 -0.64018026740E+02  0.64623973704E+02  0.10101372956E+03  0.00000000000E+00 0. -1.
        -14    1    6    6    0    0  0.28434107754E+02 -0.24734466822E+02  0.67855314992E+01  0.38292763944E+02  0.00000000000E+00 0.  1.
</event>
<event>
12    1  0.8219652E-002  0.2014136E+03  0.7818608E-02  0.1148678E+00
         21   -1    0    0  501  502  0.00000000000E+00  0.00000000000E+00  0.47284451756E+03  0.47284451756E+03  0.00000000000E+00 0.  1.
         21   -1    0    0  502  503 -0.00000000000E+00 -0.00000000000E+00 -0.12498470227E+03  0.12498470227E+03  0.00000000000E+00 0.  1.
         -6    2    1    2    0  503  0.33434000449E+02 -0.97599690676E+02  0.58217445132E+01  0.20089410269E+03  0.17228179178E+03 0.  0.
        -24    2    3    3    0    0  0.46661402576E+02 -0.12249616889E+03  0.37471656753E+02  0.15824898879E+03  0.80349359122E+02 0.  0.
          6    2    1    2  501    0 -0.33434000449E+02  0.97599690676E+02  0.34203807078E+03  0.39693511714E+03  0.17298529808E+03 0.  0.
         24    2    5    5    0    0 -0.40890897578E+02  0.12787207106E+03  0.21509210898E+03  0.26613225194E+03  0.80860547318E+02 0.  0.
          5    1    5    5  501    0  0.74568971285E+01 -0.30272380385E+02  0.12694596180E+03  0.13080286520E+03  0.47000000000E+01 0. -1.
        -13    1    6    6    0    0 -0.16353513378E+02  0.11926337970E+03  0.20598246771E+03  0.23857906057E+03  0.00000000000E+00 0.  1.
         14    1    6    6    0    0 -0.24537384200E+02  0.86086913561E+01  0.91096412659E+01  0.27553191362E+02  0.00000000000E+00 0. -1.
         -5    1    3    3    0  503 -0.13227402127E+02  0.24896478212E+02 -0.31649912240E+02  0.42645113896E+02  0.47000000000E+01 0.  1.
         11    1    4    4    0    0 -0.71254540690E+01  0.78574682946E+01 -0.38830381200E+01  0.11295569429E+02  0.00000000000E+00 0. -1.
        -12    1    4    4    0    0  0.53786856645E+02 -0.13035363718E+03  0.41354694873E+02  0.14695341936E+03  0.00000000000E+00 0.  1.
</event>
<event>
12    1  0.8219652E-002  0.1974690E+03  0.7818608E-02  0.1152066E+00
         21   -1    0    0  501  502  0.00000000000E+00  0.00000000000E+00  0.54206761135E+03  0.54206761135E+03  0.00000000000E+00 0. -1.
         21   -1    0    0  502  503 -0.00000000000E+00 -0.00000000000E+00 -0.91447540918E+02  0.91447540918E+02  0.00000000000E+00 0. -1.
         -6    2    1    2    0  503  0.13830739892E+02 -0.94779368236E+02  0.37236287438E+03  0.42110474347E+03  0.17175761045E+03 0.  0.
        -24    2    3    3    0    0  0.30956946002E+02 -0.69063553402E+02  0.37381796036E+03  0.38981868678E+03  0.80564472054E+02 0.  0.
          6    2    1    2  501    0 -0.13830739892E+02  0.94779368236E+02  0.78257196048E+02  0.21241040879E+03  0.17268345324E+03 0.  0.
         24    2    5    5    0    0  0.41259566103E+02  0.17491872945E+02  0.74054138334E+02  0.11728914704E+03  0.79148033429E+02 0.  0.
          5    1    5    5  501    0 -0.55090305995E+02  0.77287495290E+02  0.42030577139E+01  0.95121261750E+02  0.47000000000E+01 0. -1.
        -13    1    6    6    0    0 -0.17337346503E+02 -0.10680017333E+02  0.23517729533E+01  0.20498224070E+02  0.00000000000E+00 0.  1.
         14    1    6    6    0    0  0.58596912606E+02  0.28171890278E+02  0.71702365381E+02  0.96790922974E+02  0.00000000000E+00 0. -1.
         -5    1    3    3    0  503 -0.17126206110E+02 -0.25715814834E+02 -0.14550859800E+01  0.31286056695E+02  0.47000000000E+01 0.  1.
         13    1    4    4    0    0 -0.25055643896E+02 -0.40311405068E+02  0.15197934469E+03  0.15921845333E+03  0.00000000000E+00 0. -1.
        -14    1    4    4    0    0  0.56012589898E+02 -0.28752148335E+02  0.22183861567E+03  0.23060023344E+03  0.00000000000E+00 0.  1.
</event>
<event>
12    1  0.8219652E-002  0.1783256E+03  0.7818608E-02  0.1170171E+00
         21   -1    0    0  503  502  0.00000000000E+00  0.00000000000E+00  0.77629606823E+03  0.77629606823E+03  0.00000000000E+00 0. -1.
         21   -1    0    0  501  503 -0.00000000000E+00 -0.00000000000E+00 -0.45209424014E+02  0.45209424014E+02  0.00000000000E+00 0. -1.
          6    2    1    2  501    0 -0.20700753113E+02  0.39410338000E+02  0.23267855393E+03  0.29315412048E+03  0.17267985690E+03 0.  0.
         24    2    3    3    0    0 -0.15253019711E+02 -0.37623153979E+02  0.76620404285E+02  0.11897010068E+03  0.81455768225E+02 0.  0.
         -6    2    1    2    0  502  0.20700753113E+02 -0.39410338000E+02  0.49840809029E+03  0.52835137176E+03  0.16959614280E+03 0.  0.
        -24    2    5    5    0    0  0.77915015246E+02 -0.13808429870E+02  0.32299668700E+03  0.34201785385E+03  0.79924528183E+02 0.  0.
          5    1    3    3  501    0 -0.54477334016E+01  0.77033491979E+02  0.15605814964E+03  0.17418401981E+03  0.47000000000E+01 0. -1.
        -11    1    4    4    0    0  0.62143926210E+00 -0.56039005365E+02  0.76280285517E+02  0.94654309293E+02  0.00000000000E+00 0.  1.
         12    1    4    4    0    0 -0.15874458973E+02  0.18415851386E+02  0.34011876775E+00  0.24315791386E+02  0.00000000000E+00 0. -1.
         -5    1    5    5    0  502 -0.57214262134E+02 -0.25601908130E+02  0.17541140329E+03  0.18633351791E+03  0.47000000000E+01 0.  1.
         13    1    6    6    0    0  0.65660639818E+02  0.14252682148E+01  0.10991865581E+03  0.12804476524E+03  0.00000000000E+00 0. -1.
        -14    1    6    6    0    0  0.12254375429E+02 -0.15233698085E+02  0.21307803118E+03  0.21397308861E+03  0.00000000000E+00 0.  1.
</event>
<event>
12    1  0.8219652E-002  0.2117971E+03  0.7818608E-02  0.1140550E+00
         21   -1    0    0  503  502  0.00000000000E+00  0.00000000000E+00  0.16857341779E+03  0.16857341779E+03  0.00000000000E+00 0.  1.
         21   -1    0    0  501  503 -0.00000000000E+00 -0.00000000000E+00 -0.27844023220E+03  0.27844023220E+03  0.00000000000E+00 0. -1.
          6    2    1    2  501    0 -0.93725206333E+02 -0.73809311705E+02 -0.10685571800E+03  0.23722600385E+03  0.17500229609E+03 0.  0.
         24    2    3    3    0    0 -0.10558676287E+03 -0.10857173473E+03 -0.71714920283E+02  0.18617614349E+03  0.81130392205E+02 0.  0.
         -6    2    1    2    0  502  0.93725206333E+02  0.73809311705E+02 -0.30110964146E+01  0.20978764615E+03  0.17253857823E+03 0.  0.
        -24    2    5    5    0    0 -0.15934902083E+01  0.64465609677E+02 -0.19720401061E+02  0.11245188941E+03  0.89989883718E+02 0.  0.
          5    1    3    3  501    0  0.11861556540E+02  0.34762423023E+02 -0.35140797716E+02  0.51049860353E+02  0.47000000000E+01 0. -1.
        -13    1    4    4    0    0 -0.72697542253E+02 -0.18763488808E+02 -0.21206772558E+02  0.78017487554E+02  0.00000000000E+00 0.  1.
         14    1    4    4    0    0 -0.32889220620E+02 -0.89808245920E+02 -0.50508147725E+02  0.10815865594E+03  0.00000000000E+00 0. -1.
         -5    1    5    5    0  502  0.95318696541E+02  0.93437020280E+01  0.16709304646E+02  0.97335756737E+02  0.47000000000E+01 0.  1.
         13    1    6    6    0    0  0.22916458943E+02  0.78198011855E+02 -0.75547774937E+01  0.81836225546E+02  0.00000000000E+00 0. -1.
        -14    1    6    6    0    0 -0.24509949151E+02 -0.13732402179E+02 -0.12165623567E+02  0.30615663863E+02  0.00000000000E+00 0.  1.
</event>
<event>
12    1  0.8219652E-002  0.1714878E+03  0.7818608E-02  0.1176320E+00
         21   -1    0    0  501  502  0.00000000000E+00  0.00000000000E+00  0.17164866532E+03  0.17164866532E+03  0.00000000000E+00 0. -1.
         21   -1    0    0  502  503 -0.00000000000E+00 -0.00000000000E+00 -0.17133477159E+03  0.17133477159E+03  0.00000000000E+00 0. -1.
         -6    2    1    2    0  503  0.12623522623E+01 -0.13987700970E+01 -0.31575760122E+01  0.17151687646E+03  0.17147745780E+03 0.  0.
        -24    2    3    3    0    0  0.36458279269E+02  0.13827504379E+02  0.53694733022E+02  0.10277920299E+03  0.78485885405E+02 0.  0.
          6    2    1    2  501    0 -0.12623522623E+01  0.13987700970E+01  0.34714697496E+01  0.17146656045E+03  0.17142106101E+03 0.  0.
         24    2    5    5    0    0  0.24670266705E+02 -0.60309555397E+02  0.15983105370E+02  0.10320933235E+03  0.78427304526E+02 0.  0.
          5    1    5    5  501    0 -0.25932618967E+02  0.61708325494E+02 -0.12511635621E+02  0.68257228099E+02  0.47000000000E+01 0. -1.
        -11    1    6    6    0    0 -0.50282197861E+01 -0.52993528310E+02 -0.19201414615E+02  0.56588791825E+02  0.00000000000E+00 0.  1.
         12    1    6    6    0    0  0.29698486491E+02 -0.73160270868E+01  0.35184519985E+02  0.46620540525E+02  0.00000000000E+00 0. -1.
         -5    1    3    3    0  503 -0.35195927007E+02 -0.15226274476E+02 -0.56852309034E+02  0.68737673475E+02  0.47000000000E+01 0.  1.
         13    1    4    4    0    0  0.20783890275E+02  0.38780476432E+02  0.29482292332E+01  0.44097477285E+02  0.00000000000E+00 0. -1.
        -14    1    4    4    0    0  0.15674388994E+02 -0.24952972053E+02  0.50746503789E+02  0.58681725702E+02  0.00000000000E+00 0.  1.
</event>
<event>
12    1  0.8219652E-002  0.2068902E+03  0.7818608E-02  0.1144121E+00
         21   -1    0    0  503  502  0.00000000000E+00  0.00000000000E+00  0.42013117152E+03  0.42013117152E+03  0.00000000000E+00 0.  1.
         21   -1    0    0  501  503 -0.00000000000E+00 -0.00000000000E+00 -0.17143062528E+03  0.17143062528E+03  0.00000000000E+00 0.  1.
          6    2    1    2  501    0 -0.11963677860E+03 -0.19591539733E+01 -0.64330480398E+02  0.21633920626E+03  0.16836699314E+03 0.  0.
         24    2    3    3    0    0 -0.13925953874E+03 -0.38265309863E+02 -0.47542983899E+02  0.17153853987E+03  0.79420918356E+02 0.  0.
         -6    2    1    2    0  502  0.11963677860E+03  0.19591539733E+01  0.31303102665E+03  0.37522259054E+03  0.16878024685E+03 0.  0.
        -24    2    5    5    0    0  0.11370883117E+03  0.57695582851E+02  0.23802506825E+03  0.28146933001E+03  0.79439109087E+02 0.  0.
          5    1    3    3  501    0  0.19622760134E+02  0.36306155890E+02 -0.16787496499E+02  0.44800666396E+02  0.47000000000E+01 0. -1.
        -11    1    4    4    0    0 -0.12533875956E+03 -0.16136812662E+01 -0.32045950545E+02  0.12938064601E+03  0.00000000000E+00 0.  1.
         12    1    4    4    0    0 -0.13920779180E+02 -0.36651628597E+02 -0.15497033354E+02  0.42157893858E+02  0.00000000000E+00 0. -1.
         -5    1    5    5    0  502  0.59279474298E+01 -0.55736428878E+02  0.75005958395E+02  0.93753260528E+02  0.47000000000E+01 0.  1.
         13    1    6    6    0    0  0.11788190644E+03  0.29264317883E+02  0.19009475542E+03  0.22558492903E+03  0.00000000000E+00 0. -1.
        -14    1    6    6    0    0 -0.41730752646E+01  0.28431264968E+02  0.47930312829E+02  0.55884400979E+02  0.00000000000E+00 0.  1.
</event>
<event>
12    1  0.8219652E-002  0.1894894E+03  0.7818608E-02  0.1159233E+00
         21   -1    0    0  501  502  0.00000000000E+00  0.00000000000E+00  0.82211446218E+02  0.82211446218E+02  0.00000000000E+00 0. -1.
         21   -1    0    0  502  503 -0.00000000000E+00 -0.00000000000E+00 -0.43648174076E+03  0.43648174076E+03  0.00000000000E+00 0. -1.
         -6    2    1    2    0  503  0.68414489979E+02  0.35002527160E+02 -0.19752460702E+03  0.27277566191E+03  0.17171159544E+03 0.  0.
        -24    2    3    3    0    0  0.49258610612E+02 -0.31965156838E+02 -0.51885516196E+02  0.11126884104E+03  0.78996621595E+02 0.  0.
          6    2    1    2  501    0 -0.68414489979E+02 -0.35002527160E+02 -0.15674568753E+03  0.24591752507E+03  0.17320652190E+03 0.  0.
         24    2    5    5    0    0 -0.18483163990E+02 -0.28844119878E+02 -0.17205283083E+03  0.19312110538E+03  0.80746356840E+02 0.  0.
          5    1    5    5  501    0 -0.49931325989E+02 -0.61584072825E+01  0.15307143308E+02  0.52796419685E+02  0.47000000000E+01 0. -1.
        -13    1    6    6    0    0 -0.45056463985E+02  0.42383713002E+01 -0.91066482655E+02  0.10169145982E+03  0.00000000000E+00 0.  1.
         14    1    6    6    0    0  0.26573299995E+02 -0.33082491178E+02 -0.80986348178E+02  0.91429645556E+02  0.00000000000E+00 0. -1.
         -5    1    3    3    0  503  0.19155879368E+02  0.66967683999E+02 -0.14563909082E+03  0.16150682088E+03  0.47000000000E+01 0.  1.
         13    1    4    4    0    0  0.41939913359E+01  0.19700652577E+02 -0.35443457696E+02  0.40766947013E+02  0.00000000000E+00 0. -1.
        -14    1    4    4    0    0  0.45064619276E+02 -0.51665809416E+02 -0.16442058500E+02  0.70501894022E+02  0.00000000000E+00 0.  1.
</event>
<event>
12    1  0.8219652E-002  0.2555568E+03  0.7818608E-02  0.1111092E+00
         21   -1    0    0  501  502  0.00000000000E+00  0.00000000000E+00  0.17122538469E+04  0.17122538469E+04  0.00000000000E+00 0. -1.
         21   -1    0    0  502  503 -0.00000000000E+00 -0.00000000000E+00 -0.49446929961E+02  0.49446929961E+02  0.00000000000E+00 0. -1.
         -6    2    1    2    0  503  0.11097373694E+03 -0.15165080879E+03  0.39864026582E+03  0.47352225838E+03  0.17319390737E+03 0.  0.
        -24    2    3    3    0    0  0.10680025515E+03 -0.14267913000E+03  0.41217419280E+03  0.45611059131E+03  0.79910435226E+02 0.  0.
          6    2    1    2  501    0 -0.11097373694E+03  0.15165080879E+03  0.12641666511E+04  0.12881785185E+04  0.16116276114E+03 0.  0.
         24    2    5    5    0    0 -0.11270230958E+03  0.69411243459E+02  0.64069985469E+03  0.65929119128E+03  0.81540418147E+02 0.  0.
          5    1    5    5  501    0  0.17285726450E+01  0.82239565331E+02  0.62346679640E+03  0.62888732718E+03  0.47000000000E+01 0. -1.
        -13    1    6    6    0    0 -0.11957869382E+03  0.75292679363E+02  0.53990174429E+03  0.55808775750E+03  0.00000000000E+00 0.  1.
         14    1    6    6    0    0  0.68763842374E+01 -0.58814359040E+01  0.10079811040E+03  0.10120343378E+03  0.00000000000E+00 0. -1.
         -5    1    3    3    0  503  0.41734817839E+01 -0.89716787879E+01 -0.13533926981E+02  0.17411667066E+02  0.47000000000E+01 0.  1.
         11    1    4    4    0    0  0.87252983794E+02 -0.65704241654E+02  0.29488223433E+03  0.31446090802E+03  0.00000000000E+00 0. -1.
        -12    1    4    4    0    0  0.19547271360E+02 -0.76974888348E+02  0.11729195847E+03  0.14164968329E+03  0.00000000000E+00 0.  1.
</event>
<event>
12    1  0.8219652E-002  0.1825868E+03  0.7818608E-02  0.1165821E+00
         21   -1    0    0  503  502  0.00000000000E+00  0.00000000000E+00  0.29154221557E+03  0.29154221557E+03  0.00000000000E+00 0. -1.
         21   -1    0    0  501  503 -0.00000000000E+00 -0.00000000000E+00 -0.17014620033E+03  0.17014620033E+03  0.00000000000E+00 0. -1.
          6    2    1    2  501    0  0.57529894794E+02 -0.30034851615E+01 -0.72796360331E+02  0.19656363657E+03  0.17326062283E+03 0.  0.
         24    2    3    3    0    0  0.58294229921E+01 -0.61206210624E+02 -0.26091826970E+02  0.10565764407E+03  0.81869236736E+02 0.  0.
         -6    2    1    2    0  502 -0.57529894794E+02  0.30034851615E+01  0.19419237557E+03  0.26512477934E+03  0.17106069148E+03 0.  0.
        -24    2    5    5    0    0 -0.69248644228E+02  0.80623952411E+01  0.21549728767E+03  0.23984809168E+03  0.78915455673E+02 0.  0.
          5    1    3    3  501    0  0.51700471802E+02  0.58202725463E+02 -0.46704533361E+02  0.90905992499E+02  0.47000000000E+01 0. -1.
        -11    1    4    4    0    0  0.39972751419E+02 -0.14335440415E+02 -0.21200347804E+02  0.47463464422E+02  0.00000000000E+00 0.  1.
         12    1    4    4    0    0 -0.34143328427E+02 -0.46870770209E+02 -0.48914791662E+01  0.58194179645E+02  0.00000000000E+00 0. -1.
         -5    1    5    5    0  502  0.11718749434E+02 -0.50589100796E+01 -0.21304912100E+02  0.25276687660E+02  0.47000000000E+01 0.  1.
         13    1    6    6    0    0 -0.10609026307E+02  0.36945275945E+02  0.61121251046E+02  0.72203269893E+02  0.00000000000E+00 0. -1.
        -14    1    6    6    0    0 -0.58639617921E+02 -0.28882880704E+02  0.15437603662E+03  0.16764482178E+03  0.00000000000E+00 0.  1.
</event>
<event>
12    1  0.8219652E-002  0.2265647E+03  0.7818608E-02  0.1129172E+00
         21   -1    0    0  501  502  0.00000000000E+00  0.00000000000E+00  0.10628035060E+04  0.10628035060E+04  0.00000000000E+00 0. -1.
         21   -1    0    0  502  503 -0.00000000000E+00 -0.00000000000E+00 -0.58978615934E+02  0.58978615934E+02  0.00000000000E+00 0. -1.
         -6    2    1    2    0  503  0.10975828186E+03 -0.98558613046E+02  0.26157715449E+03  0.34572590806E+03  0.17129832196E+03 0.  0.
        -24    2    3    3    0    0  0.12439370843E+03 -0.41677355630E+02  0.23558540608E+03  0.28132610882E+03  0.80206603704E+02 0.  0.
          6    2    1    2  501    0 -0.10975828186E+03  0.98558613046E+02  0.74224773561E+03  0.77605621392E+03  0.17196181406E+03 0.  0.
         24    2    5    5    0    0 -0.51273312475E+02  0.52254317688E+02  0.17385325961E+03  0.20276837194E+03  0.74367939946E+02 0.  0.
          5    1    5    5  501    0 -0.58484969386E+02  0.46304295358E+02  0.56839447600E+03  0.57328784198E+03  0.47000000000E+01 0. -1.
        -13    1    6    6    0    0 -0.24855704455E+02 -0.99486729004E+01  0.16328954508E+02  0.31359478499E+02  0.00000000000E+00 0.  1.
         14    1    6    6    0    0 -0.26417608020E+02  0.62202990588E+02  0.15752430510E+03  0.17140889344E+03  0.00000000000E+00 0. -1.
         -5    1    3    3    0  503 -0.14635426565E+02 -0.56881257416E+02  0.25991748411E+02  0.64399799234E+02  0.47000000000E+01 0.  1.
         11    1    4    4    0    0 -0.62150760769E+01 -0.15556916203E+02  0.51151476925E+02  0.53824886474E+02  0.00000000000E+00 0. -1.
        -12    1    4    4    0    0  0.13060878450E+03 -0.26120439427E+02  0.18443392916E+03  0.22750122235E+03  0.00000000000E+00 0.  1.
</event>
<event>
12    1  0.8219652E-002  0.2901236E+03  0.7818608E-02  0.1090299E+00
         21   -1    0    0  501  502  0.00000000000E+00  0.00000000000E+00  0.15845678333E+03  0.15845678333E+03  0.00000000000E+00 0.  1.
         21   -1    0    0  502  503 -0.00000000000E+00 -0.00000000000E+00 -0.69433011651E+03  0.69433011651E+03  0.00000000000E+00 0.  1.
         -6    2    1    2    0  503 -0.22857141315E+03  0.49407139328E+02 -0.47478052911E+03  0.55640656933E+03  0.17171419059E+03 0.  0.
        -24    2    3    3    0    0 -0.96818820343E+02 -0.21808635075E+01 -0.12482432083E+03  0.17889960852E+03  0.83936396872E+02 0.  0.
          6    2    1    2  501    0  0.22857141315E+03 -0.49407139328E+02 -0.61092804071E+02  0.29638033051E+03  0.17153137695E+03 0.  0.
         24    2    5    5    0    0  0.11520962038E+03 -0.16786015898E+02 -0.99358148519E+02  0.17227811320E+03  0.79073887313E+02 0.  0.
          5    1    5    5  501    0  0.11336179278E+03 -0.32621123430E+02  0.38265344448E+02  0.12410221731E+03  0.47000000000E+01 0. -1.
        -11    1    6    6    0    0  0.35634467331E+02  0.13847790569E+02  0.38259066002E+01  0.38421532074E+02  0.00000000000E+00 0.  1.
         12    1    6    6    0    0  0.79575153047E+02 -0.30633806467E+02 -0.10318405512E+03  0.13385658113E+03  0.00000000000E+00 0. -1.
         -5    1    3    3    0  503 -0.13175259281E+03  0.51588002835E+02 -0.34995620828E+03  0.37750696082E+03  0.47000000000E+01 0.  1.
         11    1    4    4    0    0 -0.18274076652E+02  0.36158072665E+02 -0.34525561256E+02  0.53229338493E+02  0.00000000000E+00 0. -1.
        -12    1    4    4    0    0 -0.78544743691E+02 -0.38338936172E+02 -0.90298759569E+02  0.12567027002E+03  0.00000000000E+00 0.  1.
</event>
<event>
12    1  0.8219652E-002  0.1759812E+03  0.7818608E-02  0.1171941E+00
         21   -1    0    0  501  502  0.00000000000E+00  0.00000000000E+00  0.33481215026E+02  0.33481215026E+02  0.00000000000E+00 0.  1.
         21   -1    0    0  502  503 -0.00000000000E+00 -0.00000000000E+00 -0.16359582382E+04  0.16359582382E+04  0.00000000000E+00 0.  1.
         -6    2    1    2    0  503 -0.21720083429E+02  0.28500611183E+02 -0.13540544029E+04  0.13654423149E+04  0.17229434788E+03 0.  0.
        -24    2    3    3    0    0 -0.21142169286E+02  0.12975743474E+01 -0.13157939332E+04  0.13182587082E+04  0.77741057296E+02 0.  0.
          6    2    1    2  501    0  0.21720083429E+02 -0.28500611183E+02 -0.24842262028E+03  0.30399713838E+03  0.17151214247E+03 0.  0.
         24    2    5    5    0    0  0.67475428723E+02  0.18882421465E+02 -0.14603588109E+03  0.18216184888E+03  0.83348553077E+02 0.  0.
          5    1    5    5  501    0 -0.45755345294E+02 -0.47383032648E+02 -0.10238673919E+03  0.12183528950E+03  0.47000000000E+01 0. -1.
        -13    1    6    6    0    0  0.15263479086E+02 -0.21669132859E+02 -0.58115686239E+01  0.27134838171E+02  0.00000000000E+00 0.  1.
         14    1    6    6    0    0  0.52211949637E+02  0.40551554324E+02 -0.14022431247E+03  0.15502701071E+03  0.00000000000E+00 0. -1.
         -5    1    3    3    0  503 -0.57791414330E+00  0.27203036836E+02 -0.38260469687E+02  0.47183606671E+02  0.47000000000E+01 0.  1.
         11    1    4    4    0    0  0.10885947783E+02 -0.22666797371E+02 -0.17859668027E+03  0.18035814860E+03  0.00000000000E+00 0. -1.
        -12    1    4    4    0    0 -0.32028117068E+02  0.23964371718E+02 -0.11371972530E+04  0.11379005596E+04  0.00000000000E+00 0.  1.
</event>
<event>
12    1  0.8219652E-002  0.1724263E+03  0.7818608E-02  0.1175462E+00
         21   -1    0    0  501  502  0.00000000000E+00  0.00000000000E+00  0.23729157379E+03  0.23729157379E+03  0.00000000000E+00 0.  1.
         21   -1    0    0  502  503 -0.00000000000E+00 -0.00000000000E+00 -0.23218739674E+03  0.23218739674E+03  0.00000000000E+00 0.  1.
         -6    2    1    2    0  503  0.18019765700E+00 -0.31124926666E+01 -0.15697502139E+03  0.23317799729E+03  0.17239808873E+03 0.  0.
        -24    2    3    3    0    0  0.87422690240E+01  0.46656378893E+02 -0.30489899917E+02  0.96903180851E+02  0.78786721615E+02 0.  0.
          6    2    1    2  501    0 -0.18019765700E+00  0.31124926666E+01  0.16207919845E+03  0.23630097324E+03  0.17192662185E+03 0.  0.
         24    2    5    5    0    0 -0.45650498907E+02  0.51673104455E+02  0.93991245543E+02  0.14099231338E+03  0.79312044606E+02 0.  0.
          5    1    5    5  501    0  0.45470301250E+02 -0.48560611788E+02  0.68087952905E+02  0.95308659857E+02  0.47000000000E+01 0. -1.
        -13    1    6    6    0    0 -0.28033318771E+00  0.38702435245E+02  0.84383891423E+02  0.92836405641E+02  0.00000000000E+00 0.  1.
         14    1    6    6    0    0 -0.45370165719E+02  0.12970669210E+02  0.96073541193E+01  0.48155907740E+02  0.00000000000E+00 0. -1.
         -5    1    3    3    0  503 -0.85620713670E+01 -0.49768871560E+02 -0.12648512147E+03  0.13627481644E+03  0.47000000000E+01 0.  1.
         11    1    4    4    0    0 -0.34152154847E+01  0.43715732889E+02 -0.54428277199E+02  0.69893965102E+02  0.00000000000E+00 0. -1.
        -12    1    4    4    0    0  0.12157484509E+02  0.29406460047E+01  0.23938377282E+02  0.27009215749E+02  0.00000000000E+00 0.  1.
</event>
<event>
12    1  0.8219652E-002  0.2710100E+03  0.7818608E-02  0.1101358E+00
         21   -1    0    0  501  502  0.00000000000E+00  0.00000000000E+00  0.17733484008E+03  0.17733484008E+03  0.00000000000E+00 0. -1.
         21   -1    0    0  502  503 -0.00000000000E+00 -0.00000000000E+00 -0.44752755849E+03  0.44752755849E+03  0.00000000000E+00 0.  1.
         -6    2    1    2    0  503  0.18635002354E+03  0.81833296348E+02 -0.42389811566E+02  0.27430518168E+03  0.17895087849E+03 0.  0.
        -24    2    3    3    0    0  0.15163140057E+03  0.84347930080E+02 -0.93213606839E+02  0.21252448624E+03  0.79819958683E+02 0.  0.
          6    2    1    2  501    0 -0.18635002354E+03 -0.81833296348E+02 -0.22780290684E+03  0.35055721688E+03  0.17196853864E+03 0.  0.
         24    2    5    5    0    0 -0.19800032571E+03 -0.32980131864E+02 -0.18851338801E+03  0.28661882849E+03  0.79506209220E+02 0.  0.
          5    1    5    5  501    0  0.11650302179E+02 -0.48853164484E+02 -0.39289518830E+02  0.63938388397E+02  0.47000000000E+01 0. -1.
        -11    1    6    6    0    0 -0.14607966974E+03 -0.48231944316E+02 -0.17036407080E+03  0.22954195038E+03  0.00000000000E+00 0.  1.
         12    1    6    6    0    0 -0.51920655970E+02  0.15251812452E+02 -0.18149317211E+02  0.57076878109E+02  0.00000000000E+00 0. -1.
         -5    1    3    3    0  503  0.34718622964E+02 -0.25146337325E+01  0.50823795273E+02  0.61780695442E+02  0.47000000000E+01 0.  1.
         11    1    4    4    0    0  0.53726997263E+02 -0.71539235489E+01 -0.10993419899E+02  0.55304829248E+02  0.00000000000E+00 0. -1.
        -12    1    4    4    0    0  0.97904403308E+02  0.91501853629E+02 -0.82220186940E+02  0.15721965699E+03  0.00000000000E+00 0.  1.
</event>
<event>
12    1  0.8219652E-002  0.1854062E+03  0.7818608E-02  0.1163036E+00
         21   -1    0    0  503  502  0.00000000000E+00  0.00000000000E+00  0.58738489433E+03  0.58738489433E+03  0.00000000000E+00 0. -1.
         21   -1    0    0  501  503 -0.00000000000E+00 -0.00000000000E+00 -0.61269920489E+02  0.61269920489E+02  0.00000000000E+00 0. -1.
          6    2    1    2  501    0 -0.50714180507E+02 -0.42292885242E+02  0.33656521753E+03  0.38350470710E+03  0.17157825756E+03 0.  0.
         24    2    3    3    0    0 -0.51526943174E+02  0.30068852363E+02  0.12302362436E+03  0.15798534281E+03  0.79154245864E+02 0.  0.
         -6    2    1    2    0  502  0.50714180507E+02  0.42292885242E+02  0.18954975631E+03  0.26515010773E+03  0.17324795312E+03 0.  0.
        -24    2    5    5    0    0  0.74598590507E+02  0.80582947260E+02  0.11391974637E+03  0.17695383629E+03  0.79223673679E+02 0.  0.
          5    1    3    3  501    0  0.81276266687E+00 -0.72361737604E+02  0.21354159317E+03  0.22551936428E+03  0.47000000000E+01 0. -1.
        -13    1    4    4    0    0 -0.21718524255E+01 -0.12995303542E+02 -0.50688160358E+01  0.14116931434E+02  0.00000000000E+00 0.  1.
         14    1    4    4    0    0 -0.49355090748E+02  0.43064155905E+02  0.12809244040E+03  0.14386841138E+03  0.00000000000E+00 0. -1.
         -5    1    5    5    0  502 -0.23884410000E+02 -0.38290062018E+02  0.75630009945E+02  0.88196271433E+02  0.47000000000E+01 0.  1.
         11    1    6    6    0    0  0.16415053914E+02  0.19933026857E+02  0.83776613566E+02  0.87665845888E+02  0.00000000000E+00 0. -1.
        -12    1    6    6    0    0  0.58183536592E+02  0.60649920403E+02  0.30143132802E+02  0.89287990404E+02  0.00000000000E+00 0.  1.
</event>
<event>
12    1  0.8219652E-002  0.2264291E+03  0.7818608E-02  0.1129181E+00
         21   -1    0    0  503  502  0.00000000000E+00  0.00000000000E+00  0.69457733211E+02  0.69457733211E+02  0.00000000000E+00 0. -1.
         21   -1    0    0  501  503 -0.00000000000E+00 -0.00000000000E+00 -0.13951247891E+04  0.13951247891E+04  0.00000000000E+00 0. -1.
          6    2    1    2  501    0 -0.58647752096E+02 -0.13561591957E+03 -0.11653583921E+04  0.11871496059E+04  0.17155980925E+03 0.  0.
         24    2    3    3    0    0 -0.87077807488E+02 -0.47423096899E+02 -0.77189428179E+03  0.78289431754E+03  0.85271539794E+02 0.  0.
         -6    2    1    2    0  502  0.58647752096E+02  0.13561591957E+03 -0.16030866378E+03  0.27743291646E+03  0.17157773453E+03 0.  0.
        -24    2    5    5    0    0 -0.22897761809E+02  0.36547942612E+02 -0.35126387399E+02  0.98109668618E+02  0.80818218117E+02 0.  0.
          5    1    3    3  501    0  0.28430055392E+02 -0.88192822673E+02 -0.39346411035E+03  0.40425528834E+03  0.47000000000E+01 0. -1.
        -11    1    4    4    0    0 -0.66225938221E+02 -0.29643636554E+02 -0.25092514561E+03  0.26120499379E+03  0.00000000000E+00 0.  1.
         12    1    4    4    0    0 -0.20851869266E+02 -0.17779460345E+02 -0.52096913617E+03  0.52168932374E+03  0.00000000000E+00 0. -1.
         -5    1    5    5    0  502  0.81545513905E+02  0.99067976960E+02 -0.12518227638E+03  0.17932324785E+03  0.47000000000E+01 0.  1.
         11    1    6    6    0    0  0.26098312927E+02  0.33068057177E+02 -0.11894453809E+02  0.43773238109E+02  0.00000000000E+00 0. -1.
        -12    1    6    6    0    0 -0.48996074736E+02  0.34798854344E+01 -0.23231933590E+02  0.54336430509E+02  0.00000000000E+00 0.  1.
</event>
<event>
12    1  0.8219652E-002  0.2667378E+03  0.7818608E-02  0.1103622E+00
         21   -1    0    0  503  502  0.00000000000E+00  0.00000000000E+00  0.29915513117E+04  0.29915513117E+04  0.00000000000E+00 0.  1.
         21   -1    0    0  501  503 -0.00000000000E+00 -0.00000000000E+00 -0.24944390124E+02  0.24944390124E+02  0.00000000000E+00 0. -1.
          6    2    1    2  501    0  0.10838179208E+03 -0.16943869760E+03  0.11290783771E+04  0.11601581991E+04  0.17519412189E+03 0.  0.
         24    2    3    3    0    0  0.11047739513E+03 -0.12167675958E+03  0.55558952300E+03  0.58466089243E+03  0.78346361853E+02 0.  0.
         -6    2    1    2    0  502 -0.10838179208E+03  0.16943869760E+03  0.18375285445E+04  0.18563375026E+04  0.17035752677E+03 0.  0.
        -24    2    5    5    0    0 -0.93108837163E-01  0.11339414375E+03  0.10271981954E+04  0.10368713377E+04  0.84307756112E+02 0.  0.
          5    1    3    3  501    0 -0.20956030443E+01 -0.47761938016E+02  0.57348885408E+03  0.57549730670E+03  0.47000000000E+01 0. -1.
        -13    1    4    4    0    0  0.44154792750E+02 -0.20932503174E+02  0.27405043714E+03  0.27837287495E+03  0.00000000000E+00 0.  1.
         14    1    4    4    0    0  0.66322602378E+02 -0.10074425641E+03  0.28153908586E+03  0.30628801748E+03  0.00000000000E+00 0. -1.
         -5    1    5    5    0  502 -0.10828868325E+03  0.56044553855E+02  0.81033034902E+03  0.81946616494E+03  0.47000000000E+01 0.  1.
         11    1    6    6    0    0 -0.35409021146E+02  0.25646711121E+02  0.23361434870E+03  0.23767039464E+03  0.00000000000E+00 0. -1.
        -12    1    6    6    0    0  0.35315912309E+02  0.87747432625E+02  0.79358384673E+03  0.79920094306E+03  0.00000000000E+00 0.  1.
</event>
<event>
12    1  0.8219652E-002  0.2905623E+03  0.7818608E-02  0.1090130E+00
         21   -1    0    0  501  502  0.00000000000E+00  0.00000000000E+00  0.31638036876E+03  0.31638036876E+03  0.00000000000E+00 0.  1.
         21   -1    0    0  502  503 -0.00000000000E+00 -0.00000000000E+00 -0.26689248767E+03  0.26689248767E+03  0.00000000000E+00 0.  1.
         -6    2    1    2    0  503 -0.77681315503E+02 -0.22020589353E+03  0.11291140070E+02  0.29021066936E+03  0.17195848464E+03 0.  0.
        -24    2    3    3    0    0 -0.41194856065E+02 -0.59152831111E+02 -0.45252509023E+02  0.11560074727E+03  0.78228317139E+02 0.  0.
          6    2    1    2  501    0  0.77681315503E+02  0.22020589353E+03  0.38196741024E+02  0.29306218707E+03  0.17292030575E+03 0.  0.
         24    2    5    5    0    0  0.93388096648E+02  0.23683070211E+03  0.41972834789E+02  0.26940978511E+03  0.77522870133E+02 0.  0.
          5    1    5    5  501    0 -0.15706781145E+02 -0.16624808580E+02 -0.37760937650E+01  0.23652401958E+02  0.47000000000E+01 0. -1.
        -11    1    6    6    0    0  0.45864008075E+00  0.10313599440E+03  0.11679095025E+02  0.10379617022E+03  0.00000000000E+00 0.  1.
         12    1    6    6    0    0  0.92929456567E+02  0.13369470772E+03  0.30293739764E+02  0.16561361489E+03  0.00000000000E+00 0. -1.
         -5    1    3    3    0  503 -0.36486459438E+02 -0.16105306242E+03  0.56543649093E+02  0.17460992208E+03  0.47000000000E+01 0.  1.
         11    1    4    4    0    0  0.22217174348E+02 -0.94651963431E+01 -0.19454014783E+02  0.31010505784E+02  0.00000000000E+00 0. -1.
        -12    1    4    4    0    0 -0.63412030413E+02 -0.49687634768E+02 -0.25798494241E+02  0.84590241488E+02  0.00000000000E+00 0.  1.
</event>
<event>
12    1  0.8219652E-002  0.1952873E+03  0.7818608E-02  0.1154022E+00
         21   -1    0    0  501  502  0.00000000000E+00  0.00000000000E+00  0.54180657558E+03  0.54180657558E+03  0.00000000000E+00 0. -1.
         21   -1    0    0  502  503 -0.00000000000E+00 -0.00000000000E+00 -0.13766720397E+03  0.13766720397E+03  0.00000000000E+00 0.  1.
         -6    2    1    2    0  503  0.64926119346E+02  0.65174915586E+02 -0.36438527763E+02  0.19755467794E+03  0.17098805184E+03 0.  0.
        -24    2    3    3    0    0  0.70633562853E+02 -0.13496995811E+02  0.51825593901E+01  0.10824482713E+03  0.80739176256E+02 0.  0.
          6    2    1    2  501    0 -0.64926119346E+02 -0.65174915586E+02  0.44057789937E+03  0.48191910162E+03  0.17226132618E+03 0.  0.
         24    2    5    5    0    0 -0.52703074822E+02 -0.33288954015E+02  0.10832392983E+03  0.14788181682E+03  0.79051814754E+02 0.  0.
          5    1    5    5  501    0 -0.12223044524E+02 -0.31885961571E+02  0.33225396954E+03  0.33403728481E+03  0.47000000000E+01 0. -1.
        -11    1    6    6    0    0  0.73001395001E+01 -0.32965765032E+02  0.66993332922E+02  0.75020932792E+02  0.00000000000E+00 0.  1.
         12    1    6    6    0    0 -0.60003214322E+02 -0.32318898306E+00  0.41330596907E+02  0.72860884024E+02  0.00000000000E+00 0. -1.
         -5    1    3    3    0  503 -0.57074435069E+01  0.78671911397E+02 -0.41621087153E+02  0.89309850800E+02  0.47000000000E+01 0.  1.
         13    1    4    4    0    0  0.58532615483E+02 -0.40594694881E+02 -0.14421845894E+02  0.72677272697E+02  0.00000000000E+00 0. -1.
        -14    1    4    4    0    0  0.12100947370E+02  0.27097699070E+02  0.19604405285E+02  0.35567554438E+02  0.00000000000E+00 0.  1.
</event>
<event>
12    1  0.8219652E-002  0.1979807E+03  0.7818608E-02  0.1151601E+00
         21   -1    0    0  503  502  0.00000000000E+00  0.00000000000E+00  0.52742873441E+03  0.52742873441E+03  0.00000000000E+00 0. -1.
         21   -1    0    0  501  503 -0.00000000000E+00 -0.00000000000E+00 -0.93000387159E+02  0.93000387159E+02  0.00000000000E+00 0. -1.
          6    2    1    2  501    0 -0.88001051129E+02  0.40770047150E+02  0.77512312520E+02  0.21261356758E+03  0.17259776587E+03 0.  0.
         24    2    3    3    0    0  0.16697163310E+02  0.38150532469E+02  0.97548900698E+01  0.87786742496E+02  0.76662219427E+02 0.  0.
         -6    2    1    2    0  502  0.88001051129E+02 -0.40770047150E+02  0.35691603473E+03  0.40781555399E+03  0.17180828991E+03 0.  0.
        -24    2    5    5    0    0  0.29740118923E+01 -0.65738945388E+02  0.15658582066E+03  0.18870980794E+03  0.82230278453E+02 0.  0.
          5    1    3    3  501    0 -0.10469821444E+03  0.26195146813E+01  0.67757422450E+02  0.12482682509E+03  0.47000000000E+01 0. -1.
        -11    1    4    4    0    0  0.26231602753E+02 -0.16925459078E+02  0.12039303676E+01  0.31241280324E+02  0.00000000000E+00 0.  1.
         12    1    4    4    0    0 -0.95344394427E+01  0.55075991547E+02  0.85509597022E+01  0.56545462171E+02  0.00000000000E+00 0. -1.
         -5    1    5    5    0  502  0.85027039237E+02  0.24968898237E+02  0.20033021407E+03  0.21910574605E+03  0.47000000000E+01 0.  1.
         13    1    6    6    0    0  0.33327109438E+02 -0.46863575045E+02  0.13553091977E+03  0.14722608839E+03  0.00000000000E+00 0. -1.
        -14    1    6    6    0    0 -0.30353097546E+02 -0.18875370342E+02  0.21054900889E+02  0.41483719549E+02  0.00000000000E+00 0.  1.
</event>
<event>
12    1  0.8219652E-002  0.1759514E+03  0.7818608E-02  0.1173367E+00
         21   -1    0    0  503  502  0.00000000000E+00  0.00000000000E+00  0.66711634964E+03  0.66711634964E+03  0.00000000000E+00 0. -1.
         21   -1    0    0  501  503 -0.00000000000E+00 -0.00000000000E+00 -0.91082498256E+02  0.91082498256E+02  0.00000000000E+00 0. -1.
          6    2    1    2  501    0 -0.32191150981E+02 -0.62594147964E+01  0.20285317653E+02  0.17711685767E+03  0.17286826395E+03 0.  0.
         24    2    3    3    0    0 -0.77922916585E+02  0.12555778024E+02 -0.17986382139E+02  0.11440945084E+03  0.80847906639E+02 0.  0.
         -6    2    1    2    0  502  0.32191150981E+02  0.62594147964E+01  0.55574853373E+03  0.58108199023E+03  0.16650644477E+03 0.  0.
        -24    2    5    5    0    0  0.51412781106E+02 -0.29685847417E+02  0.50976595518E+03  0.51945390840E+03  0.80290163089E+02 0.  0.
          5    1    3    3  501    0  0.45731765604E+02 -0.18815192821E+02  0.38271699792E+02  0.62707406828E+02  0.47000000000E+01 0. -1.
        -11    1    4    4    0    0 -0.20056312257E+01  0.11979694608E+02  0.24546648973E+02  0.27387471868E+02  0.00000000000E+00 0.  1.
         12    1    4    4    0    0 -0.75917285359E+02  0.57608341633E+00 -0.42533031112E+02  0.87021978971E+02  0.00000000000E+00 0. -1.
         -5    1    5    5    0  502 -0.19221630125E+02  0.35945262214E+02  0.45982578549E+02  0.61628081832E+02  0.47000000000E+01 0.  1.
         13    1    6    6    0    0  0.56024657991E+02  0.12262922507E+02  0.27346785324E+03  0.27941690774E+03  0.00000000000E+00 0. -1.
        -14    1    6    6    0    0 -0.46118768853E+01 -0.41948769924E+02  0.23629810194E+03  0.24003700066E+03  0.00000000000E+00 0.  1.
</event>
<event>
12    1  0.8219652E-002  0.1902529E+03  0.7818608E-02  0.1158583E+00
         21   -1    0    0  503  502  0.00000000000E+00  0.00000000000E+00  0.38266551335E+03  0.38266551335E+03  0.00000000000E+00 0.  1.
         21   -1    0    0  501  503 -0.00000000000E+00 -0.00000000000E+00 -0.10398004155E+03  0.10398004155E+03  0.00000000000E+00 0.  1.
          6    2    1    2  501    0 -0.49997891596E+02 -0.62461733628E+02  0.21591043047E+03  0.28777330572E+03  0.17261200471E+03 0.  0.
         24    2    3    3    0    0 -0.35698270180E+01  0.18879946763E+02  0.46451751018E+02  0.94097369710E+02  0.79544665182E+02 0.  0.
         -6    2    1    2    0  502  0.49997891596E+02  0.62461733628E+02  0.62775041333E+02  0.19887224918E+03  0.17090409108E+03 0.  0.
        -24    2    5    5    0    0  0.33553331910E+02 -0.15228207108E+02  0.71580384172E+02  0.11883616671E+03  0.87410289706E+02 0.  0.
          5    1    3    3  501    0 -0.46428064578E+02 -0.81341680391E+02  0.16945867945E+03  0.19367593601E+03  0.47000000000E+01 0. -1.
        -13    1    4    4    0    0 -0.33946375091E+02  0.25492008053E+01 -0.25930224424E+01  0.34140570761E+02  0.00000000000E+00 0.  1.
         14    1    4    4    0    0  0.30376548073E+02  0.16330745958E+02  0.49044773460E+02  0.59956798948E+02  0.00000000000E+00 0. -1.
         -5    1    5    5    0  502  0.16444559686E+02  0.77689940736E+02 -0.88053428384E+01  0.80036082471E+02  0.47000000000E+01 0.  1.
         13    1    6    6    0    0 -0.11999835320E+02  0.28893149116E+02  0.26889694617E+02  0.41253676080E+02  0.00000000000E+00 0. -1.
        -14    1    6    6    0    0  0.45553167230E+02 -0.44121356223E+02  0.44690689555E+02  0.77582490631E+02  0.00000000000E+00 0.  1.
</event>
<event>
12    1  0.8219652E-002  0.1921188E+03  0.7818608E-02  0.1156762E+00
         21   -1    0    0  503  502  0.00000000000E+00  0.00000000000E+00  0.33331339603E+03  0.33331339603E+03  0.00000000000E+00 0.  1.
         21   -1    0    0  501  503 -0.00000000000E+00 -0.00000000000E+00 -0.11678953986E+03  0.11678953986E+03  0.00000000000E+00 0. -1.
          6    2    1    2  501    0 -0.83104946873E+01  0.83169454988E+02  0.16185403336E+03  0.25120981179E+03  0.17298386879E+03 0.  0.
         24    2    3    3    0    0 -0.26508940518E+02  0.90605977366E+02  0.18349603128E+03  0.22159644708E+03  0.80759053979E+02 0.  0.
         -6    2    1    2    0  502  0.83104946873E+01 -0.83169454988E+02  0.54669822806E+02  0.19889312409E+03  0.17199843814E+03 0.  0.
        -24    2    5    5    0    0 -0.59523243853E+02 -0.62204502891E+02  0.36402373274E+02  0.12543065059E+03  0.83637901632E+02 0.  0.
          5    1    3    3  501    0  0.18198445831E+02 -0.74365223781E+01 -0.21641997924E+02  0.29613364717E+02  0.47000000000E+01 0. -1.
        -11    1    4    4    0    0 -0.24511242062E+02  0.16246040400E+02  0.72374251505E+01  0.30283908911E+02  0.00000000000E+00 0.  1.
         12    1    4    4    0    0 -0.19976984560E+01  0.74359936966E+02  0.17625860613E+03  0.19131253817E+03  0.00000000000E+00 0. -1.
         -5    1    5    5    0  502  0.67833738540E+02 -0.20964952097E+02  0.18267449532E+02  0.73462473503E+02  0.47000000000E+01 0.  1.
         11    1    6    6    0    0 -0.87670385362E+01 -0.11817237614E+02 -0.26417705238E+02  0.30239100839E+02  0.00000000000E+00 0. -1.
        -12    1    6    6    0    0 -0.50756205317E+02 -0.50387265277E+02  0.62820078512E+02  0.95191549753E+02  0.00000000000E+00 0.  1.
</event>
<event>
12    1  0.8219652E-002  0.2085877E+03  0.7818608E-02  0.1142765E+00
         21   -1    0    0  501  502  0.00000000000E+00  0.00000000000E+00  0.16947843414E+03  0.16947843414E+03  0.00000000000E+00 0. -1.
         21   -1    0    0  502  503 -0.00000000000E+00 -0.00000000000E+00 -0.33953522523E+03  0.33953522523E+03  0.00000000000E+00 0. -1.
         -6    2    1    2    0  503 -0.16487601083E+01 -0.11956945416E+03 -0.21113028786E+03  0.29679085778E+03  0.17090711522E+03 0.  0.
        -24    2    3    3    0    0 -0.48665755510E+02 -0.88466240051E+02 -0.74064020268E+02  0.14850984249E+03  0.79843990572E+02 0.  0.
          6    2    1    2  501    0  0.16487601083E+01  0.11956945416E+03  0.41073496773E+02  0.21222280159E+03  0.17044621615E+03 0.  0.
         24    2    5    5    0    0 -0.36167815449E+02  0.38027388590E+02 -0.27075514970E+02  0.99326479041E+02  0.79865341484E+02 0.  0.
          5    1    5    5  501    0  0.37816575558E+02  0.81542065569E+02  0.68149011743E+02  0.11289632255E+03  0.47000000000E+01 0. -1.
        -13    1    6    6    0    0 -0.57181537777E+02  0.28478818975E+02 -0.17534411722E+00  0.63881156364E+02  0.00000000000E+00 0.  1.
         14    1    6    6    0    0  0.21013722328E+02  0.95485696152E+01 -0.26900170853E+02  0.35445322677E+02  0.00000000000E+00 0. -1.
         -5    1    3    3    0  503  0.47016995402E+02 -0.31103214108E+02 -0.13706626759E+03  0.14828101529E+03  0.47000000000E+01 0.  1.
         13    1    4    4    0    0 -0.29286817549E+02 -0.73026168786E+02 -0.89617184901E+02  0.11925509985E+03  0.00000000000E+00 0. -1.
        -14    1    4    4    0    0 -0.19378937961E+02 -0.15440071264E+02  0.15553164633E+02  0.29254742645E+02  0.00000000000E+00 0.  1.
</event>
<event>
12    1  0.8219652E-002  0.2223330E+03  0.7818608E-02  0.1132416E+00
         21   -1    0    0  501  502  0.00000000000E+00  0.00000000000E+00  0.18578962983E+03  0.18578962983E+03  0.00000000000E+00 0. -1.
         21   -1    0    0  502  503 -0.00000000000E+00 -0.00000000000E+00 -0.33853023720E+03  0.33853023720E+03  0.00000000000E+00 0.  1.
         -6    2    1    2    0  503  0.12229725356E+03 -0.66379339149E+02 -0.19887796699E+03  0.29725027492E+03  0.17158801034E+03 0.  0.
        -24    2    3    3    0    0 -0.73233203666E+01 -0.34035342712E+02 -0.76055137572E+02  0.11571470067E+03  0.79959192252E+02 0.  0.
          6    2    1    2  501    0 -0.12229725356E+03  0.66379339149E+02  0.46137359610E+02  0.22706959211E+03  0.17340446596E+03 0.  0.
         24    2    5    5    0    0 -0.12668842863E+03  0.13089204635E+01  0.36379845581E+01  0.14908415318E+03  0.78493175337E+02 0.  0.
          5    1    5    5  501    0  0.43911750682E+01  0.65070418685E+02  0.42499375052E+02  0.77985438937E+02  0.47000000000E+01 0. -1.
        -13    1    6    6    0    0 -0.31790347835E+02 -0.21286851498E+02 -0.27009207306E+02  0.46832184889E+02  0.00000000000E+00 0.  1.
         14    1    6    6    0    0 -0.94898080797E+02  0.22595771962E+02  0.30647191864E+02  0.10225196829E+03  0.00000000000E+00 0. -1.
         -5    1    3    3    0  503  0.12962057393E+03 -0.32343996436E+02 -0.12282282941E+03  0.18153557425E+03  0.47000000000E+01 0.  1.
         11    1    4    4    0    0 -0.21187680853E+02 -0.26139665803E+02 -0.89013127326E+02  0.95160584197E+02  0.00000000000E+00 0. -1.
        -12    1    4    4    0    0  0.13864360487E+02 -0.78956769097E+01  0.12957989755E+02  0.20554116474E+02  0.00000000000E+00 0.  1.
</event>
<event>
12    1  0.8219652E-002  0.2026233E+03  0.7818608E-02  0.1148371E+00
         21   -1    0    0  501  502  0.00000000000E+00  0.00000000000E+00  0.91823888690E+02  0.91823888690E+02  0.00000000000E+00 0. -1.
         21   -1    0    0  502  503 -0.00000000000E+00 -0.00000000000E+00 -0.48269805305E+03  0.48269805305E+03  0.00000000000E+00 0.  1.
         -6    2    1    2    0  503  0.10690388040E+03 -0.71321680745E+00 -0.28414018872E+03  0.34898691483E+03  0.17212574344E+03 0.  0.
        -24    2    3    3    0    0  0.10668351052E+03 -0.37510427361E+02 -0.27871862775E+03  0.31149602806E+03  0.80977147792E+02 0.  0.
          6    2    1    2  501    0 -0.10690388040E+03  0.71321680745E+00 -0.10673397564E+03  0.22553502691E+03  0.16746629060E+03 0.  0.
         24    2    5    5    0    0 -0.12382128012E+03 -0.27293162532E+02 -0.48484765605E+02  0.15856028416E+03  0.81938788639E+02 0.  0.
          5    1    5    5  501    0  0.16917399727E+02  0.28006379339E+02 -0.58249210036E+02  0.66974742755E+02  0.47000000000E+01 0. -1.
        -13    1    6    6    0    0 -0.10488851533E+02  0.23132777061E+02 -0.62418403738E-01  0.25399710178E+02  0.00000000000E+00 0.  1.
         14    1    6    6    0    0 -0.11333242859E+03 -0.50425939593E+02 -0.48422347201E+02  0.13316057398E+03  0.00000000000E+00 0. -1.
         -5    1    3    3    0  503  0.22036987906E+00  0.36797210553E+02 -0.54215609677E+01  0.37490886769E+02  0.47000000000E+01 0.  1.
         11    1    4    4    0    0  0.23372049633E+02 -0.49555127576E+02 -0.10359136645E+03  0.11718845752E+03  0.00000000000E+00 0. -1.
        -12    1    4    4    0    0  0.83311460884E+02  0.12044700215E+02 -0.17512726130E+03  0.19430757054E+03  0.00000000000E+00 0.  1.
</event>
<event>
12    1  0.8219652E-002  0.1887894E+03  0.7818608E-02  0.1161116E+00
         21   -1    0    0  501  502  0.00000000000E+00  0.00000000000E+00  0.47610883932E+03  0.47610883932E+03  0.00000000000E+00 0.  1.
         21   -1    0    0  502  503 -0.00000000000E+00 -0.00000000000E+00 -0.90234377702E+02  0.90234377702E+02  0.00000000000E+00 0.  1.
         -6    2    1    2    0  503  0.13325201597E+02  0.74918762782E+02  0.69222557209E+02  0.20108006851E+03  0.17277456268E+03 0.  0.
        -24    2    3    3    0    0 -0.40730485853E+02 -0.61781570766E+01  0.19019161131E+02  0.91347672496E+02  0.79281313547E+02 0.  0.
          6    2    1    2  501    0 -0.13325201597E+02 -0.74918762782E+02  0.31665190441E+03  0.36526314852E+03  0.16540361871E+03 0.  0.
         24    2    5    5    0    0 -0.79456525062E+01  0.11239140509E+02  0.22423518854E+03  0.23871251351E+03  0.80701875162E+02 0.  0.
          5    1    5    5  501    0 -0.53795490912E+01 -0.86157903291E+02  0.92416715870E+02  0.12655063500E+03  0.47000000000E+01 0. -1.
        -13    1    6    6    0    0 -0.37389531013E+02 -0.16738073951E+02  0.10262529161E+03  0.11049927885E+03  0.00000000000E+00 0.  1.
         14    1    6    6    0    0  0.29443878507E+02  0.27977214460E+02  0.12160989693E+03  0.12821323466E+03  0.00000000000E+00 0. -1.
         -5    1    3    3    0  503  0.54055687450E+02  0.81096919858E+02  0.50203396078E+02  0.10973239601E+03  0.47000000000E+01 0.  1.
         11    1    4    4    0    0  0.21943879677E+02 -0.14230887762E+02  0.53026741458E+01  0.26686520471E+02  0.00000000000E+00 0. -1.
        -12    1    4    4    0    0 -0.62674365529E+02  0.80527306856E+01  0.13716486985E+02  0.64661152025E+02  0.00000000000E+00 0.  1.
</event>
<event>
12    1  0.8219652E-002  0.1759222E+03  0.7818608E-02  0.1171949E+00
         21   -1    0    0  501  502  0.00000000000E+00  0.00000000000E+00  0.77672804930E+02  0.77672804930E+02  0.00000000000E+00 0.  1.
         21   -1    0    0  502  503 -0.00000000000E+00 -0.00000000000E+00 -0.39722326553E+03  0.39722326553E+03  0.00000000000E+00 0.  1.
         -6    2    1    2    0  503  0.38835491438E+02  0.45941816824E+00 -0.16213504546E+03  0.23882776537E+03  0.17100445048E+03 0.  0.
        -24    2    3    3    0    0  0.24269191428E+02  0.47891139061E+02 -0.16214237956E+03  0.18898766809E+03  0.80892722725E+02 0.  0.
          6    2    1    2  501    0 -0.38835491438E+02 -0.45941816824E+00 -0.15741541514E+03  0.23606830509E+03  0.17158154121E+03 0.  0.
         24    2    5    5    0    0 -0.91377178932E+02 -0.42866690621E+00 -0.93642939057E+02  0.15330570136E+03  0.79897843832E+02 0.  0.
          5    1    5    5  501    0  0.52541687494E+02 -0.30751262023E-01 -0.63772476086E+02  0.82762603732E+02  0.47000000000E+01 0. -1.
        -11    1    6    6    0    0 -0.50092252036E+01  0.22285478734E+02 -0.47675625964E+02  0.52864924199E+02  0.00000000000E+00 0.  1.
         12    1    6    6    0    0 -0.86367953728E+02 -0.22714145641E+02 -0.45967313093E+02  0.10044077716E+03  0.00000000000E+00 0. -1.
         -5    1    3    3    0  503  0.14566300009E+02 -0.47431720893E+02  0.73340972205E-02  0.49840097277E+02  0.47000000000E+01 0.  1.
         11    1    4    4    0    0 -0.28852708010E+02  0.25495742361E+02 -0.78066234299E+02  0.87045095069E+02  0.00000000000E+00 0. -1.
        -12    1    4    4    0    0  0.53121899438E+02  0.22395396700E+02 -0.84076145257E+02  0.10194257302E+03  0.00000000000E+00 0.  1.
</event>
<event>
12    1  0.8219652E-002  0.2117802E+03  0.7818608E-02  0.1141573E+00
         21   -1    0    0  503  502  0.00000000000E+00  0.00000000000E+00  0.76667547232E+03  0.76667547232E+03  0.00000000000E+00 0.  1.
         21   -1    0    0  501  503 -0.00000000000E+00 -0.00000000000E+00 -0.59473069966E+02  0.59473069966E+02  0.00000000000E+00 0. -1.
          6    2    1    2  501    0 -0.70446470417E+02  0.96701116004E+02  0.25656733677E+03  0.32823007215E+03  0.16611553490E+03 0.  0.
         24    2    3    3    0    0 -0.10893452273E+03  0.52435148020E+02  0.16370000594E+03  0.21828810006E+03  0.78967257074E+02 0.  0.
         -6    2    1    2    0  502  0.70446470417E+02 -0.96701116004E+02  0.45063506558E+03  0.49791847013E+03  0.17474847507E+03 0.  0.
        -24    2    5    5    0    0  0.85906320574E+02 -0.12884825238E+03  0.34415865239E+03  0.38552735878E+03  0.78768003013E+02 0.  0.
          5    1    3    3  501    0  0.38488052317E+02  0.44265967983E+02  0.92867330834E+02  0.10994197210E+03  0.47000000000E+01 0. -1.
        -13    1    4    4    0    0 -0.14866306044E+02 -0.24020641767E+01  0.78772124863E+02  0.80198657240E+02  0.00000000000E+00 0.  1.
         14    1    4    4    0    0 -0.94068216690E+02  0.54837212197E+02  0.84927881077E+02  0.13808944282E+03  0.00000000000E+00 0. -1.
         -5    1    5    5    0  502 -0.15459850157E+02  0.32147136380E+02  0.10647641319E+03  0.11239111135E+03  0.47000000000E+01 0.  1.
         11    1    6    6    0    0 -0.49194499549E+01 -0.58410529308E+02  0.12479554606E+03  0.13787646368E+03  0.00000000000E+00 0. -1.
        -12    1    6    6    0    0  0.90825770529E+02 -0.70437723076E+02  0.21936310633E+03  0.24765089510E+03  0.00000000000E+00 0.  1.
</event>
<event>
12    1  0.8219652E-002  0.2353440E+03  0.7818608E-02  0.1123259E+00
         21   -1    0    0  501  502  0.00000000000E+00  0.00000000000E+00  0.25106166596E+03  0.25106166596E+03  0.00000000000E+00 0. -1.
         21   -1    0    0  502  503 -0.00000000000E+00 -0.00000000000E+00 -0.22453848129E+03  0.22453848129E+03  0.00000000000E+00 0. -1.
         -6    2    1    2    0  503  0.80281067014E+02  0.13702900857E+03 -0.24568912880E+02  0.23662296811E+03  0.17368016193E+03 0.  0.
        -24    2    3    3    0    0 -0.29885000705E+01  0.54640364644E+02  0.44496982686E+02  0.10055718483E+03  0.71674719192E+02 0.  0.
          6    2    1    2  501    0 -0.80281067014E+02 -0.13702900857E+03  0.51092097547E+02  0.23897717914E+03  0.17110724943E+03 0.  0.
         24    2    5    5    0    0 -0.58900344952E+02 -0.54085336853E+02  0.89498982308E+02  0.14498799492E+03  0.81344800310E+02 0.  0.
          5    1    5    5  501    0 -0.21380722062E+02 -0.82943671717E+02 -0.38406884761E+02  0.93989184222E+02  0.47000000000E+01 0. -1.
        -13    1    6    6    0    0  0.18781459530E+02 -0.13735187450E+01  0.72581570590E+01  0.20181937957E+02  0.00000000000E+00 0.  1.
         14    1    6    6    0    0 -0.77681804482E+02 -0.52711818108E+02  0.82240825249E+02  0.12480605696E+03  0.00000000000E+00 0. -1.
         -5    1    3    3    0  503  0.83269567085E+02  0.82388643926E+02 -0.69065895566E+02  0.13606578328E+03  0.47000000000E+01 0.  1.
         13    1    4    4    0    0 -0.10545994572E+02  0.48428055389E+02 -0.52656976530E+01  0.49841971490E+02  0.00000000000E+00 0. -1.
        -14    1    4    4    0    0  0.75574945011E+01  0.62123092552E+01  0.49762680339E+02  0.50715213338E+02  0.00000000000E+00 0.  1.
</event>
<event>
12    1  0.8219652E-002  0.2082367E+03  0.7818608E-02  0.1144151E+00
         21   -1    0    0  503  502  0.00000000000E+00  0.00000000000E+00  0.36729452022E+03  0.36729452022E+03  0.00000000000E+00 0.  1.
         21   -1    0    0  501  503 -0.00000000000E+00 -0.00000000000E+00 -0.12054395059E+03  0.12054395059E+03  0.00000000000E+00 0.  1.
          6    2    1    2  501    0 -0.11159990309E+03  0.14369538404E+02  0.17833172402E+03  0.27416182572E+03  0.17521838056E+03 0.  0.
         24    2    3    3    0    0 -0.18651598919E+02  0.36463805819E+02  0.22186519900E+02  0.91047220427E+02  0.78229555829E+02 0.  0.
         -6    2    1    2    0  502  0.11159990309E+03 -0.14369538404E+02  0.68418845611E+02  0.21367664509E+03  0.16827224434E+03 0.  0.
        -24    2    5    5    0    0  0.13114258053E+02  0.10357578870E+02 -0.16548442282E+02  0.81191239780E+02  0.77710380714E+02 0.  0.
          5    1    3    3  501    0 -0.92948304172E+02 -0.22094267415E+02  0.15614520412E+03  0.18311460529E+03  0.47000000000E+01 0. -1.
        -11    1    4    4    0    0 -0.30539030491E+02  0.17873393542E+02  0.46357342607E+02  0.58318897397E+02  0.00000000000E+00 0.  1.
         12    1    4    4    0    0  0.11887431572E+02  0.18590412277E+02 -0.24170822707E+02  0.32728323030E+02  0.00000000000E+00 0. -1.
         -5    1    5    5    0  502  0.98485645038E+02 -0.24727117274E+02  0.84967287893E+02  0.13248540531E+03  0.47000000000E+01 0.  1.
         11    1    6    6    0    0  0.45537563348E+02  0.87783326516E+01 -0.14808676070E+02  0.48682909596E+02  0.00000000000E+00 0. -1.
        -12    1    6    6    0    0 -0.32423305295E+02  0.15792462180E+01 -0.17397662117E+01  0.32508330184E+02  0.00000000000E+00 0.  1.
</event>
<event>
12    1  0.8219652E-002  0.2748272E+03  0.7818608E-02  0.1098622E+00
         21   -1    0    0  503  502  0.00000000000E+00  0.00000000000E+00  0.70521084204E+03  0.70521084204E+03  0.00000000000E+00 0. -1.
         21   -1    0    0  501  503 -0.00000000000E+00 -0.00000000000E+00 -0.10937206522E+03  0.10937206522E+03  0.00000000000E+00 0. -1.
          6    2    1    2  501    0  0.21381542654E+03 -0.11833649800E+02  0.35947966879E+03  0.45249929948E+03  0.17225827082E+03 0.  0.
         24    2    3    3    0    0  0.16581149077E+03  0.30035340330E+02  0.33669693489E+03  0.38468681430E+03  0.78889460545E+02 0.  0.
         -6    2    1    2    0  502 -0.21381542654E+03  0.11833649800E+02  0.23635910804E+03  0.36208360778E+03  0.17141131578E+03 0.  0.
        -24    2    5    5    0    0 -0.13524070580E+03  0.41844665168E+02  0.22500937304E+03  0.27708034745E+03  0.78123469456E+02 0.  0.
          5    1    3    3  501    0  0.48003935764E+02 -0.41868990130E+02  0.22782733892E+02  0.67812485185E+02  0.47000000000E+01 0. -1.
        -13    1    4    4    0    0  0.13600730700E+02  0.29817707055E+02  0.45053888313E+02  0.55712910369E+02  0.00000000000E+00 0.  1.
         14    1    4    4    0    0  0.15221076007E+03  0.21763327459E+00  0.29164304658E+03  0.32897390393E+03  0.00000000000E+00 0. -1.
         -5    1    5    5    0  502 -0.78574720732E+02 -0.30011015368E+02  0.11349735002E+02  0.85003260326E+02  0.47000000000E+01 0.  1.
         13    1    6    6    0    0 -0.66798161896E+01 -0.16047589577E+02  0.46251537894E+02  0.49410017538E+02  0.00000000000E+00 0. -1.
        -14    1    6    6    0    0 -0.12856088961E+03  0.57892254744E+02  0.17875783514E+03  0.22767032991E+03  0.00000000000E+00 0.  1.
</event>
<event>
12    1  0.8219652E-002  0.1929002E+03  0.7818608E-02  0.1156664E+00
         21   -1    0    0  503  502  0.00000000000E+00  0.00000000000E+00  0.10624268145E+03  0.10624268145E+03  0.00000000000E+00 0. -1.
         21   -1    0    0  501  503 -0.00000000000E+00 -0.00000000000E+00 -0.40410811017E+03  0.40410811017E+03  0.00000000000E+00 0.  1.
          6    2    1    2  501    0 -0.82981988347E+02  0.28054108647E+02 -0.24866162627E+03  0.31471112653E+03  0.17186461353E+03 0.  0.
         24    2    3    3    0    0 -0.69439214272E+02 -0.15522442573E+02 -0.24569578085E+03  0.26874147584E+03  0.82418525877E+02 0.  0.
         -6    2    1    2    0  502  0.82981988347E+02 -0.28054108647E+02 -0.49203802445E+02  0.19563966509E+03  0.16787144182E+03 0.  0.
        -24    2    5    5    0    0 -0.40692238299E+01  0.42540939863E+02 -0.32265784367E+01  0.74406132007E+02  0.60824103157E+02 0.  0.
          5    1    3    3  501    0 -0.13542774076E+02  0.43576551220E+02 -0.29658454230E+01  0.45969650694E+02  0.47000000000E+01 0. -1.
        -13    1    4    4    0    0 -0.84401039506E+02 -0.97519249126E+00 -0.16430040172E+03  0.18471358498E+03  0.00000000000E+00 0.  1.
         14    1    4    4    0    0  0.14961825234E+02 -0.14547250082E+02 -0.81395379123E+02  0.84027890857E+02  0.00000000000E+00 0. -1.
         -5    1    5    5    0  502  0.87051212177E+02 -0.70595048510E+02 -0.45977224008E+02  0.12123353308E+03  0.47000000000E+01 0.  1.
         11    1    6    6    0    0  0.19243937914E+02  0.23590667750E+02  0.20004594535E+02  0.36428458022E+02  0.00000000000E+00 0. -1.
        -12    1    6    6    0    0 -0.23313161744E+02  0.18950272113E+02 -0.23231172972E+02  0.37977673985E+02  0.00000000000E+00 0.  1.
</event>
<event>
12    1  0.8219652E-002  0.1749557E+03  0.7818608E-02  0.1172812E+00
         21   -1    0    0  501  502  0.00000000000E+00  0.00000000000E+00  0.73103063530E+03  0.73103063530E+03  0.00000000000E+00 0. -1.
         21   -1    0    0  502  503 -0.00000000000E+00 -0.00000000000E+00 -0.55409826653E+02  0.55409826653E+02  0.00000000000E+00 0. -1.
         -6    2    1    2    0  503  0.30498428270E+02 -0.16446009995E+02  0.14309072934E+03  0.22590699483E+03  0.17134289632E+03 0.  0.
        -24    2    3    3    0    0  0.80479707044E+02  0.16499325594E+02  0.83063812352E+02  0.14100208256E+03  0.78947953567E+02 0.  0.
          6    2    1    2  501    0 -0.30498428270E+02  0.16446009995E+02  0.53253007932E+03  0.56053346713E+03  0.17149010766E+03 0.  0.
         24    2    5    5    0    0  0.38746783958E+02  0.12250576393E+02  0.40870881939E+03  0.41852538465E+03  0.80431391021E+02 0.  0.
          5    1    5    5  501    0 -0.69245212228E+02  0.41954336018E+01  0.12382125993E+03  0.14200808248E+03  0.47000000000E+01 0. -1.
        -13    1    6    6    0    0  0.51321408941E+02  0.13028641869E+02  0.14251205540E+03  0.15203064974E+03  0.00000000000E+00 0.  1.
         14    1    6    6    0    0 -0.12574624983E+02 -0.77806547601E+00  0.26619676399E+03  0.26649473491E+03  0.00000000000E+00 0. -1.
         -5    1    3    3    0  503 -0.49981278774E+02 -0.32945335589E+02  0.60026916985E+02  0.84904912270E+02  0.47000000000E+01 0.  1.
         13    1    4    4    0    0 -0.74550288869E+01  0.20279678516E+01 -0.96773008851E+01  0.12383063504E+02  0.00000000000E+00 0. -1.
        -14    1    4    4    0    0  0.87934735931E+02  0.14471357743E+02  0.92741113237E+02  0.12861901905E+03  0.00000000000E+00 0.  1.
</event>
<event>
12    1  0.8219652E-002  0.1869477E+03  0.7818608E-02  0.1161730E+00
         21   -1    0    0  501  502  0.00000000000E+00  0.00000000000E+00  0.24436257860E+03  0.24436257860E+03  0.00000000000E+00 0. -1.
         21   -1    0    0  502  503 -0.00000000000E+00 -0.00000000000E+00 -0.14743081558E+03  0.14743081558E+03  0.00000000000E+00 0. -1.
         -6    2    1    2    0  503  0.66035880819E+02 -0.23463704043E+02  0.91808442226E+01  0.18717296258E+03  0.17331516684E+03 0.  0.
        -24    2    3    3    0    0  0.53800573235E+02  0.11252652583E+02  0.67395063325E+02  0.11813736687E+03  0.79957607643E+02 0.  0.
          6    2    1    2  501    0 -0.66035880819E+02  0.23463704043E+02  0.87750918794E+02  0.20462043160E+03  0.17104974222E+03 0.  0.
         24    2    5    5    0    0 -0.47302002817E+02 -0.16162880523E+02 -0.12292617807E+02  0.95295120690E+02  0.80195594626E+02 0.  0.
          5    1    5    5  501    0 -0.18733878002E+02  0.39626584566E+02  0.10004353660E+03  0.10932531091E+03  0.47000000000E+01 0. -1.
        -13    1    6    6    0    0 -0.39488594578E+02 -0.25268677976E+01  0.30337226447E+02  0.49860620445E+02  0.00000000000E+00 0.  1.
         14    1    6    6    0    0 -0.78134082390E+01 -0.13636012726E+02 -0.42629844255E+02  0.45434500245E+02  0.00000000000E+00 0. -1.
         -5    1    3    3    0  503  0.12235307584E+02 -0.34716356626E+02 -0.58214219103E+02  0.69035595709E+02  0.47000000000E+01 0.  1.
         13    1    4    4    0    0  0.89507383640E+01 -0.31429967639E+02  0.11262342191E+02  0.34565863720E+02  0.00000000000E+00 0. -1.
        -14    1    4    4    0    0  0.44849834871E+02  0.42682620223E+02  0.56132721135E+02  0.83571503151E+02  0.00000000000E+00 0.  1.
</event>
<event>
12    1  0.8219652E-002  0.2558928E+03  0.7818608E-02  0.1109952E+00
         21   -1    0    0  503  502  0.00000000000E+00  0.00000000000E+00  0.66970323498E+03  0.66970323498E+03  0.00000000000E+00 0. -1.
         21   -1    0    0  501  503 -0.00000000000E+00 -0.00000000000E+00 -0.18685875719E+03  0.18685875719E+03  0.00000000000E+00 0.  1.
          6    2    1    2  501    0 -0.13650728330E+03  0.12885676406E+03 -0.55077533445E+02  0.26175301723E+03  0.17390458103E+03 0.  0.
         24    2    3    3    0    0 -0.54067090193E+01  0.76999690647E+02 -0.17729356895E+02  0.11583011659E+03  0.84522783625E+02 0.  0.
         -6    2    1    2    0  502  0.13650728330E+03 -0.12885676406E+03  0.53792201123E+03  0.59480897493E+03  0.17087809238E+03 0.  0.
        -24    2    5    5    0    0  0.79201962651E+02 -0.49567113740E+01  0.30214275701E+03  0.32232215039E+03  0.79396493247E+02 0.  0.
          5    1    3    3  501    0 -0.13110057428E+03  0.51857073411E+02 -0.37348176550E+02  0.14592290064E+03  0.47000000000E+01 0. -1.
        -13    1    4    4    0    0  0.33084914713E+02  0.61096653356E+01 -0.79743413042E+01  0.34576432889E+02  0.00000000000E+00 0.  1.
         14    1    4    4    0    0 -0.38491623732E+02  0.70890025312E+02 -0.97550155908E+01  0.81253683704E+02  0.00000000000E+00 0. -1.
         -5    1    5    5    0  502  0.57305320647E+02 -0.12390005268E+03  0.23577925422E+03  0.27248682455E+03  0.47000000000E+01 0.  1.
         11    1    6    6    0    0  0.86212702885E+02  0.25025481419E+01  0.29960929788E+03  0.31177656143E+03  0.00000000000E+00 0. -1.
        -12    1    6    6    0    0 -0.70107402343E+01 -0.74592595159E+01  0.25334591351E+01  0.10545588952E+02  0.00000000000E+00 0.  1.
</event>
<event>
12    1  0.8219652E-002  0.2236644E+03  0.7818608E-02  0.1131276E+00
         21   -1    0    0  503  502  0.00000000000E+00  0.00000000000E+00  0.63677549544E+03  0.63677549544E+03  0.00000000000E+00 0. -1.
         21   -1    0    0  501  503 -0.00000000000E+00 -0.00000000000E+00 -0.15933631442E+03  0.15933631442E+03  0.00000000000E+00 0.  1.
          6    2    1    2  501    0  0.15316098326E+02 -0.14054877959E+03 -0.44882674576E+02  0.22812329041E+03  0.17331254669E+03 0.  0.
         24    2    3    3    0    0 -0.26505807784E+02 -0.15712082268E+03 -0.33159825753E+02  0.18139835459E+03  0.80101674384E+02 0.  0.
         -6    2    1    2    0  502 -0.15316098326E+02  0.14054877959E+03  0.52232185559E+03  0.56798851945E+03  0.17263341242E+03 0.  0.
        -24    2    5    5    0    0  0.37704198980E+02  0.10834284748E+03  0.45820575383E+03  0.47865018224E+03  0.77419021551E+02 0.  0.
          5    1    3    3  501    0  0.41821906110E+02  0.16572043090E+02 -0.11722848823E+02  0.46724935819E+02  0.47000000000E+01 0. -1.
        -13    1    4    4    0    0  0.10133370726E+02 -0.37792124833E+02 -0.40554665776E+02  0.56352558219E+02  0.00000000000E+00 0.  1.
         14    1    4    4    0    0 -0.36639178510E+02 -0.11932869785E+03  0.73948400230E+01  0.12504579637E+03  0.00000000000E+00 0. -1.
         -5    1    5    5    0  502 -0.53020297305E+02  0.32205932108E+02  0.64116101760E+02  0.89338337203E+02  0.47000000000E+01 0.  1.
         13    1    6    6    0    0  0.36035078607E+02  0.95217437361E+02  0.45321497931E+03  0.46450910081E+03  0.00000000000E+00 0. -1.
        -14    1    6    6    0    0  0.16691203722E+01  0.13125410123E+02  0.49907745194E+01  0.14141081430E+02  0.00000000000E+00 0.  1.
</event>
<event>
12    1  0.8219652E-002  0.1799786E+03  0.7818608E-02  0.1168238E+00
         21   -1    0    0  501  502  0.00000000000E+00  0.00000000000E+00  0.23913135094E+02  0.23913135094E+02  0.00000000000E+00 0. -1.
         21   -1    0    0  502  503 -0.00000000000E+00 -0.00000000000E+00 -0.15839434340E+04  0.15839434340E+04  0.00000000000E+00 0. -1.
         -6    2    1    2    0  503  0.51493102055E+02 -0.36166323097E+01 -0.10911981631E+04  0.11056654935E+04  0.17064036117E+03 0.  0.
        -24    2    3    3    0    0  0.10062029935E+03 -0.95927848029E+01 -0.82688373879E+03  0.83671679803E+03  0.78369742139E+02 0.  0.
          6    2    1    2  501    0 -0.51493102055E+02  0.36166323097E+01 -0.46883213578E+03  0.50219107552E+03  0.17241718363E+03 0.  0.
         24    2    5    5    0    0 -0.71738881635E+02  0.42020499865E+02 -0.42575964807E+03  0.44085529615E+03  0.78548868060E+02 0.  0.
          5    1    5    5  501    0  0.20245779580E+02 -0.38403867555E+02 -0.43072487705E+02  0.61335779371E+02  0.47000000000E+01 0. -1.
        -11    1    6    6    0    0 -0.52209305587E+02 -0.10475433105E+02 -0.27314099503E+03  0.27828321807E+03  0.00000000000E+00 0.  1.
         12    1    6    6    0    0 -0.19529576048E+02  0.52495932970E+02 -0.15261865304E+03  0.16257207809E+03  0.00000000000E+00 0. -1.
         -5    1    3    3    0  503 -0.49127197297E+02  0.59761524932E+01 -0.26431442432E+03  0.26894869551E+03  0.47000000000E+01 0.  1.
         13    1    4    4    0    0  0.66430795919E+02 -0.13188048598E+02 -0.74273542430E+03  0.74581692511E+03  0.00000000000E+00 0. -1.
        -14    1    4    4    0    0  0.34189503433E+02  0.35952637947E+01 -0.84148314490E+02  0.90899872928E+02  0.00000000000E+00 0.  1.
</event>
<event>
12    1  0.8219652E-002  0.2909907E+03  0.7818608E-02  0.1089911E+00
         21   -1    0    0  501  502  0.00000000000E+00  0.00000000000E+00  0.32468863928E+03  0.32468863928E+03  0.00000000000E+00 0.  1.
         21   -1    0    0  502  503 -0.00000000000E+00 -0.00000000000E+00 -0.32157090258E+03  0.32157090258E+03  0.00000000000E+00 0. -1.
         -6    2    1    2    0  503 -0.18686092365E+03 -0.14190062104E+03 -0.13954305699E+03  0.32271946434E+03  0.17211274464E+03 0.  0.
        -24    2    3    3    0    0 -0.75748646192E+02 -0.94430412045E+02 -0.14088793145E+03  0.20179280214E+03  0.78841395524E+02 0.  0.
          6    2    1    2  501    0  0.18686092365E+03  0.14190062104E+03  0.14266079369E+03  0.32354007753E+03  0.17109438527E+03 0.  0.
         24    2    5    5    0    0  0.87683870055E+02  0.33290588857E+01  0.53980926757E+02  0.13138291634E+03  0.81535185966E+02 0.  0.
          5    1    5    5  501    0  0.99177053592E+02  0.13857156216E+03  0.88679866933E+02  0.19215716119E+03  0.47000000000E+01 0. -1.
        -13    1    6    6    0    0  0.47997269097E+01 -0.18139796189E+02  0.40597029455E+02  0.44723689302E+02  0.00000000000E+00 0.  1.
         14    1    6    6    0    0  0.82884143145E+02  0.21468855074E+02  0.13383897301E+02  0.86659227034E+02  0.00000000000E+00 0. -1.
         -5    1    3    3    0  503 -0.11111227746E+03 -0.47470208996E+02  0.13448744529E+01  0.12092666220E+03  0.47000000000E+01 0.  1.
         13    1    4    4    0    0 -0.15414556694E+02 -0.33818192632E+02 -0.21855170421E+00  0.37166200718E+02  0.00000000000E+00 0. -1.
        -14    1    4    4    0    0 -0.60334089498E+02 -0.60612219413E+02 -0.14066937974E+03  0.16462660142E+03  0.00000000000E+00 0.  1.
</event>
<event>
12    1  0.8219652E-002  0.2414204E+03  0.7818608E-02  0.1119440E+00
         21   -1    0    0  501  502  0.00000000000E+00  0.00000000000E+00  0.31011690110E+03  0.31011690110E+03  0.00000000000E+00 0.  1.
         21   -1    0    0  502  503 -0.00000000000E+00 -0.00000000000E+00 -0.18552484060E+03  0.18552484060E+03  0.00000000000E+00 0.  1.
         -6    2    1    2    0  503  0.12154678145E+03 -0.10975751724E+03  0.73215071411E+02  0.25227808922E+03  0.17737940959E+03 0.  0.
        -24    2    3    3    0    0  0.57267395540E+02 -0.10026285807E+03  0.10743408467E+03  0.17869127739E+03  0.84001754536E+02 0.  0.
          6    2    1    2  501    0 -0.12154678145E+03  0.10975751724E+03  0.51376989082E+02  0.24336365248E+03  0.17252808372E+03 0.  0.
         24    2    5    5    0    0 -0.12052453263E+03  0.11537098522E+03 -0.72272115209E+01  0.18429506232E+03  0.77947483689E+02 0.  0.
          5    1    5    5  501    0 -0.10222488281E+01 -0.56134679837E+01  0.58604200603E+02  0.59068590163E+02  0.47000000000E+01 0. -1.
        -13    1    6    6    0    0 -0.11872775263E+03  0.68950578566E+02 -0.10680098784E+02  0.13771174983E+03  0.00000000000E+00 0.  1.
         14    1    6    6    0    0 -0.17967799921E+01  0.46420406657E+02  0.34528872635E+01  0.46583312495E+02  0.00000000000E+00 0. -1.
         -5    1    3    3    0  503  0.64279385914E+02 -0.94946591680E+01 -0.34219013264E+02  0.73586811828E+02  0.47000000000E+01 0.  1.
         11    1    4    4    0    0  0.30762779261E+02 -0.11023419184E+03  0.87415995949E+02  0.14401208972E+03  0.00000000000E+00 0. -1.
        -12    1    4    4    0    0  0.26504616280E+02  0.99713337670E+01  0.20018088725E+02  0.34679187670E+02  0.00000000000E+00 0.  1.
</event>
<event>
12    1  0.8219652E-002  0.4250020E+03  0.7818608E-02  0.1035531E+00
         21   -1    0    0  503  502  0.00000000000E+00  0.00000000000E+00  0.10720607479E+04  0.10720607479E+04  0.00000000000E+00 0.  1.
         21   -1    0    0  501  503 -0.00000000000E+00 -0.00000000000E+00 -0.43569687032E+03  0.43569687032E+03  0.00000000000E+00 0. -1.
          6    2    1    2  501    0  0.33371118188E+03  0.19872429943E+03 -0.27278876905E+03  0.50417143143E+03  0.17006063523E+03 0.  0.
         24    2    3    3    0    0  0.23722521751E+03  0.20858932196E+03 -0.19451048682E+03  0.37944597509E+03  0.79747159626E+02 0.  0.
         -6    2    1    2    0  502 -0.33371118188E+03 -0.19872429943E+03  0.90915264666E+03  0.10035861868E+04  0.17254622385E+03 0.  0.
        -24    2    5    5    0    0 -0.85345421951E+02 -0.10076843329E+03  0.26986404931E+03  0.31077098555E+03  0.79459940570E+02 0.  0.
          5    1    3    3  501    0  0.96485964368E+02 -0.98650225359E+01 -0.78278282238E+02  0.12472545634E+03  0.47000000000E+01 0. -1.
        -11    1    4    4    0    0  0.16067019690E+03  0.15454995964E+03 -0.93749442386E+02  0.24184614974E+03  0.00000000000E+00 0.  1.
         12    1    4    4    0    0  0.76555020608E+02  0.54039362326E+02 -0.10076104443E+03  0.13759982535E+03  0.00000000000E+00 0. -1.
         -5    1    5    5    0  502 -0.24836575992E+03 -0.97955866140E+02  0.63928859735E+03  0.69281520128E+03  0.47000000000E+01 0.  1.
         13    1    6    6    0    0 -0.37313695608E+02 -0.21572405439E+02  0.27038081438E+02  0.50879646266E+02  0.00000000000E+00 0. -1.
        -14    1    6    6    0    0 -0.48031726344E+02 -0.79196027848E+02  0.24282596787E+03  0.25989133929E+03  0.00000000000E+00 0.  1.
</event>
<event>
12    1  0.8219652E-002  0.2023332E+03  0.7818608E-02  0.1148597E+00
         21   -1    0    0  501  502  0.00000000000E+00  0.00000000000E+00  0.94773926010E+02  0.94773926010E+02  0.00000000000E+00 0.  1.
         21   -1    0    0  502  503 -0.00000000000E+00 -0.00000000000E+00 -0.96442713830E+03  0.96442713830E+03  0.00000000000E+00 0. -1.
         -6    2    1    2    0  503 -0.54688521654E+02  0.86570684410E+02 -0.82951216736E+03  0.85292449607E+03  0.17001306538E+03 0.  0.
        -24    2    3    3    0    0  0.24716344198E+01  0.13086746525E+02 -0.59567401264E+03  0.60119141288E+03  0.80163668045E+02 0.  0.
          6    2    1    2  501    0  0.54688521654E+02 -0.86570684410E+02 -0.40141044935E+02  0.20627656824E+03  0.17450902933E+03 0.  0.
         24    2    5    5    0    0  0.68656069929E+02 -0.92928807774E+02  0.22585130555E+02  0.14152951249E+03  0.78556320754E+02 0.  0.
          5    1    5    5  501    0 -0.13967548275E+02  0.63581233636E+01 -0.62726175490E+02  0.64747055756E+02  0.47000000000E+01 0. -1.
        -13    1    6    6    0    0  0.80492278177E+02 -0.63684712033E+02 -0.15592141525E+00  0.10263904571E+03  0.00000000000E+00 0.  1.
         14    1    6    6    0    0 -0.11836208249E+02 -0.29244095740E+02  0.22741051970E+02  0.38890466776E+02  0.00000000000E+00 0. -1.
         -5    1    3    3    0  503 -0.57160156073E+02  0.73483937885E+02 -0.23383815471E+03  0.25173308318E+03  0.47000000000E+01 0.  1.
         11    1    4    4    0    0  0.15282506303E+02  0.38077493094E+02 -0.49428548915E+03  0.49598547889E+03  0.00000000000E+00 0. -1.
        -12    1    4    4    0    0 -0.12810871883E+02 -0.24990746570E+02 -0.10138852349E+03  0.10520593400E+03  0.00000000000E+00 0.  1.
</event>
<event>
12    1  0.8219652E-002  0.2749193E+03  0.7818608E-02  0.1098690E+00
         21   -1    0    0  501  502  0.00000000000E+00  0.00000000000E+00  0.14225088225E+03  0.14225088225E+03  0.00000000000E+00 0.  1.
         21   -1    0    0  502  503 -0.00000000000E+00 -0.00000000000E+00 -0.67985151118E+03  0.67985151118E+03  0.00000000000E+00 0.  1.
         -6    2    1    2    0  503  0.12229081115E+03  0.17449792494E+03 -0.46211855333E+03  0.53700909198E+03  0.17152445667E+03 0.  0.
        -24    2    3    3    0    0  0.10424719767E+03  0.49329189834E+02 -0.30080673183E+03  0.33198134266E+03  0.80162801659E+02 0.  0.
          6    2    1    2  501    0 -0.12229081115E+03 -0.17449792494E+03 -0.75482075607E+02  0.28509330145E+03  0.17371263194E+03 0.  0.
         24    2    5    5    0    0 -0.80352252045E+02 -0.15582238176E+03 -0.11502264088E+03  0.22432188584E+03  0.79705718020E+02 0.  0.
          5    1    5    5  501    0 -0.41938559105E+02 -0.18675543176E+02  0.39540565276E+02  0.60771415609E+02  0.47000000000E+01 0. -1.
        -13    1    6    6    0    0 -0.74529014304E+02 -0.68963977389E+02 -0.39090264284E+02  0.10880557390E+03  0.00000000000E+00 0.  1.
         14    1    6    6    0    0 -0.58232377408E+01 -0.86858404371E+02 -0.75932376600E+02  0.11551631194E+03  0.00000000000E+00 0. -1.
         -5    1    3    3    0  503  0.18043613483E+02  0.12516873510E+03 -0.16131182150E+03  0.20502774932E+03  0.47000000000E+01 0.  1.
         11    1    4    4    0    0  0.77333631427E+02  0.56734834949E+02 -0.28314589074E+03  0.29894970729E+03  0.00000000000E+00 0. -1.
        -12    1    4    4    0    0  0.26913566240E+02 -0.74056451152E+01 -0.17660841094E+02  0.33031635374E+02  0.00000000000E+00 0.  1.
</event>
<event>
12    1  0.8219652E-002  0.2021341E+03  0.7818608E-02  0.1148100E+00
         21   -1    0    0  501  502  0.00000000000E+00  0.00000000000E+00  0.71534297711E+02  0.71534297711E+02  0.00000000000E+00 0.  1.
         21   -1    0    0  502  503 -0.00000000000E+00 -0.00000000000E+00 -0.58231979953E+03  0.58231979953E+03  0.00000000000E+00 0. -1.
         -6    2    1    2    0  503  0.57471646497E+02 -0.86849058584E+02 -0.20666435557E+03  0.28908190497E+03  0.17324099628E+03 0.  0.
        -24    2    3    3    0    0  0.59435262944E+02  0.13761754261E+02 -0.12898152817E+03  0.16186907888E+03  0.76442316334E+02 0.  0.
          6    2    1    2  501    0 -0.57471646497E+02  0.86849058584E+02 -0.30412114625E+03  0.36477219227E+03  0.17240455773E+03 0.  0.
         24    2    5    5    0    0  0.74782455251E+01 -0.10406854371E+02 -0.18003319873E+03  0.19419344271E+03  0.71658312669E+02 0.  0.
          5    1    5    5  501    0 -0.64949892022E+02  0.97255912955E+02 -0.12408794752E+03  0.17057874955E+03  0.47000000000E+01 0. -1.
        -11    1    6    6    0    0  0.33945981907E+02 -0.33707963707E+01 -0.45316025945E+02  0.56720667867E+02  0.00000000000E+00 0.  1.
         12    1    6    6    0    0 -0.26467736382E+02 -0.70360579998E+01 -0.13471717278E+03  0.13747277485E+03  0.00000000000E+00 0. -1.
         -5    1    3    3    0  503 -0.19636164473E+01 -0.10061081284E+03 -0.77682827400E+02  0.12721282610E+03  0.47000000000E+01 0.  1.
         11    1    4    4    0    0 -0.34616238922E+01  0.30653791330E+02 -0.27722821433E+02  0.41475204533E+02  0.00000000000E+00 0. -1.
        -12    1    4    4    0    0  0.62896886836E+02 -0.16892037069E+02 -0.10125870673E+03  0.12039387434E+03  0.00000000000E+00 0.  1.
</event>
<event>
12    1  0.8219652E-002  0.1780618E+03  0.7818608E-02  0.1169934E+00
         21   -1    0    0  501  502  0.00000000000E+00  0.00000000000E+00  0.74505481040E+02  0.74505481040E+02  0.00000000000E+00 0. -1.
         21   -1    0    0  502  503 -0.00000000000E+00 -0.00000000000E+00 -0.42954946034E+03  0.42954946034E+03  0.00000000000E+00 0. -1.
         -6    2    1    2    0  503 -0.31829729769E+02  0.24573265290E+02 -0.20766074577E+03  0.27291032268E+03  0.17245312936E+03 0.  0.
        -24    2    3    3    0    0  0.56005109467E+01  0.85484148389E+02 -0.12648312754E+03  0.16463726831E+03  0.61388461598E+02 0.  0.
          6    2    1    2  501    0  0.31829729769E+02 -0.24573265290E+02 -0.14738323353E+03  0.23114461870E+03  0.17346192713E+03 0.  0.
         24    2    5    5    0    0 -0.30118508591E+02  0.30026066508E+02 -0.10402215963E+03  0.13775862404E+03  0.79675213050E+02 0.  0.
          5    1    5    5  501    0  0.61948238360E+02 -0.54599331798E+02 -0.43361073900E+02  0.93385994659E+02  0.47000000000E+01 0. -1.
        -11    1    6    6    0    0 -0.25585087956E+02 -0.37271324647E+01  0.24514134319E+01  0.25971092967E+02  0.00000000000E+00 0.  1.
         12    1    6    6    0    0 -0.45334206352E+01  0.33753198973E+02 -0.10647357306E+03  0.11178753107E+03  0.00000000000E+00 0. -1.
         -5    1    3    3    0  503 -0.37430240716E+02 -0.60910883099E+02 -0.81177618236E+02  0.10827305437E+03  0.47000000000E+01 0.  1.
         11    1    4    4    0    0 -0.99198955491E+01  0.84942067647E+02 -0.86023909780E+02  0.12129992678E+03  0.00000000000E+00 0. -1.
        -12    1    4    4    0    0  0.15520406496E+02  0.54208074211E+00 -0.40459217758E+02  0.43337341531E+02  0.00000000000E+00 0.  1.
</event>
<event>
12    1  0.8219652E-002  0.2132377E+03  0.7818608E-02  0.1143032E+00
         21   -1    0    0  501  502  0.00000000000E+00  0.00000000000E+00  0.22084170028E+04  0.22084170028E+04  0.00000000000E+00 0.  1.
         21   -1    0    0  502  503 -0.00000000000E+00 -0.00000000000E+00 -0.41467294529E+02  0.41467294529E+02  0.00000000000E+00 0.  1.
         -6    2    1    2    0  503 -0.89776833193E+02  0.28042611681E+01  0.27468987050E+03  0.34774247627E+03  0.19339741774E+03 0.  0.
        -24    2    3    3    0    0  0.32580942321E+02  0.14017480603E+02  0.15085059529E+03  0.17322767001E+03  0.77420384868E+02 0.  0.
          6    2    1    2  501    0  0.89776833193E+02 -0.28042611681E+01  0.18922598378E+04  0.19021418210E+04  0.17154728248E+03 0.  0.
         24    2    5    5    0    0  0.12398984975E+03  0.56001418846E+01  0.11667821652E+04  0.11757940339E+04  0.75539027841E+02 0.  0.
          5    1    5    5  501    0 -0.34213016562E+02 -0.84044030527E+01  0.72547767259E+03  0.72634778716E+03  0.47000000000E+01 0. -1.
        -13    1    6    6    0    0  0.25512101660E+02  0.31613933192E+02  0.23783492944E+03  0.24127942673E+03  0.00000000000E+00 0.  1.
         14    1    6    6    0    0  0.98477748095E+02 -0.26013791307E+02  0.92894723572E+03  0.93451460714E+03  0.00000000000E+00 0. -1.
         -5    1    3    3    0  503 -0.12235777551E+03 -0.11213219435E+02  0.12383927521E+03  0.17451480626E+03  0.47000000000E+01 0.  1.
         11    1    4    4    0    0  0.56314973102E+02  0.20574798405E+02  0.97331005287E+02  0.11431545440E+03  0.00000000000E+00 0. -1.
        -12    1    4    4    0    0 -0.23734030782E+02 -0.65573178012E+01  0.53519590004E+02  0.58912215610E+02  0.00000000000E+00 0.  1.
</event>
<event>
12    1  0.8219652E-002  0.1997573E+03  0.7818608E-02  0.1149981E+00
         21   -1    0    0  501  502  0.00000000000E+00  0.00000000000E+00  0.10381769858E+04  0.10381769858E+04  0.00000000000E+00 0. -1.
         21   -1    0    0  502  503 -0.00000000000E+00 -0.00000000000E+00 -0.65670061707E+02  0.65670061707E+02  0.00000000000E+00 0. -1.
         -6    2    1    2    0  503 -0.35640658998E+02  0.94980248210E+02  0.13072915319E+03  0.23873227220E+03  0.17207987149E+03 0.  0.
        -24    2    3    3    0    0  0.98337509124E+01  0.65295403514E+02 -0.37209199642E+01  0.93652900363E+02  0.66308582581E+02 0.  0.
          6    2    1    2  501    0  0.35640658998E+02 -0.94980248210E+02  0.84177777091E+03  0.86511477532E+03  0.17187860467E+03 0.  0.
         24    2    5    5    0    0  0.19769477517E+02 -0.42151169945E+02  0.76434904977E+03  0.76993020319E+03  0.79971835925E+02 0.  0.
          5    1    5    5  501    0  0.15871181481E+02 -0.52829078265E+02  0.77428721147E+02  0.95184572124E+02  0.47000000000E+01 0. -1.
        -11    1    6    6    0    0 -0.80854324612E+01 -0.49268657354E+02  0.65381033787E+03  0.65571391073E+03  0.00000000000E+00 0.  1.
         12    1    6    6    0    0  0.27854909978E+02  0.71174874088E+01  0.11053871189E+03  0.11421629246E+03  0.00000000000E+00 0. -1.
         -5    1    3    3    0  503 -0.45474409911E+02  0.29684844696E+02  0.13445007315E+03  0.14507937183E+03  0.47000000000E+01 0.  1.
         13    1    4    4    0    0 -0.13636481188E+02  0.24879407128E+02 -0.28956011876E+02  0.40538736315E+02  0.00000000000E+00 0. -1.
        -14    1    4    4    0    0  0.23470232101E+02  0.40415996386E+02  0.25235091912E+02  0.53114164048E+02  0.00000000000E+00 0.  1.
</event>
<event>
12    1  0.8219652E-002  0.2018058E+03  0.7818608E-02  0.1149496E+00
         21   -1    0    0  501  502  0.00000000000E+00  0.00000000000E+00  0.14170687683E+03  0.14170687683E+03  0.00000000000E+00 0.  1.
         21   -1    0    0  502  503 -0.00000000000E+00 -0.00000000000E+00 -0.57980824982E+03  0.57980824982E+03  0.00000000000E+00 0. -1.
         -6    2    1    2    0  503  0.39363531405E+02 -0.85598713316E+02 -0.47733295848E+03  0.51593136056E+03  0.17164436557E+03 0.  0.
        -24    2    3    3    0    0 -0.35906325862E+02 -0.60804259710E+02 -0.18874878911E+03  0.21662678466E+03  0.79464685275E+02 0.  0.
          6    2    1    2  501    0 -0.39363531405E+02  0.85598713316E+02  0.39231585490E+02  0.20558376609E+03  0.17846271390E+03 0.  0.
         24    2    5    5    0    0 -0.59981968552E+00 -0.24412234654E+02  0.18640016276E+02  0.87046275214E+02  0.81444992709E+02 0.  0.
          5    1    5    5  501    0 -0.38763711719E+02  0.11001094797E+03  0.20591569214E+02  0.11853749087E+03  0.47000000000E+01 0. -1.
        -13    1    6    6    0    0 -0.27142980285E+02  0.18361817525E+02  0.16427273769E+02  0.36657237281E+02  0.00000000000E+00 0.  1.
         14    1    6    6    0    0  0.26543160599E+02 -0.42774052179E+02  0.22127425063E+01  0.50389037933E+02  0.00000000000E+00 0. -1.
         -5    1    3    3    0  503  0.75269857267E+02 -0.24794453607E+02 -0.28858416938E+03  0.29930457591E+03  0.47000000000E+01 0.  1.
         11    1    4    4    0    0  0.89286303353E+01 -0.51795930092E+02 -0.14115549884E+03  0.15062341673E+03  0.00000000000E+00 0. -1.
        -12    1    4    4    0    0 -0.44834956197E+02 -0.90083296180E+01 -0.47593290267E+02  0.66003367930E+02  0.00000000000E+00 0.  1.
</event>
<event>
12    1  0.8219652E-002  0.1872444E+03  0.7818608E-02  0.1161071E+00
         21   -1    0    0  501  502  0.00000000000E+00  0.00000000000E+00  0.21672149314E+03  0.21672149314E+03  0.00000000000E+00 0. -1.
         21   -1    0    0  502  503 -0.00000000000E+00 -0.00000000000E+00 -0.16438121315E+03  0.16438121315E+03  0.00000000000E+00 0. -1.
         -6    2    1    2    0  503 -0.70293007690E+02  0.13868695542E+02  0.53549276978E+00  0.18724519588E+03  0.17299430333E+03 0.  0.
        -24    2    3    3    0    0 -0.78737733717E+02 -0.48021170565E+02 -0.12059147215E+02  0.12335166037E+03  0.81021883159E+02 0.  0.
          6    2    1    2  501    0  0.70293007690E+02 -0.13868695542E+02  0.51804787214E+02  0.19385751040E+03  0.17252116020E+03 0.  0.
         24    2    5    5    0    0  0.73624909900E+02 -0.42676380522E+02  0.88833449724E+02  0.14659022644E+03  0.79720837211E+02 0.  0.
          5    1    5    5  501    0 -0.33319022100E+01  0.28807684980E+02 -0.37028662509E+02  0.47267283965E+02  0.47000000000E+01 0. -1.
        -11    1    6    6    0    0  0.19391833509E+02  0.94336470266E+01  0.63763028237E+02  0.67310925362E+02  0.00000000000E+00 0.  1.
         12    1    6    6    0    0  0.54233076390E+02 -0.52110027549E+02  0.25070421486E+02  0.79279301078E+02  0.00000000000E+00 0. -1.
         -5    1    3    3    0  503  0.84447260270E+01  0.61889866108E+02  0.12594639985E+02  0.63893535517E+02  0.47000000000E+01 0.  1.
         13    1    4    4    0    0 -0.54815666106E+02 -0.58591772794E+02  0.19293676521E+02  0.82522718348E+02  0.00000000000E+00 0. -1.
        -14    1    4    4    0    0 -0.23922067611E+02  0.10570602229E+02 -0.31352823736E+02  0.40828942020E+02  0.00000000000E+00 0.  1.
</event>
<event>
12    1  0.8219652E-002  0.2000940E+03  0.7818608E-02  0.1149850E+00
         21   -1    0    0  501  502  0.00000000000E+00  0.00000000000E+00  0.21885639564E+03  0.21885639564E+03  0.00000000000E+00 0.  1.
         21   -1    0    0  502  503 -0.00000000000E+00 -0.00000000000E+00 -0.20395371330E+03  0.20395371330E+03  0.00000000000E+00 0. -1.
         -6    2    1    2    0  503  0.10097322324E+03  0.89087829692E+01 -0.61706101376E+02  0.20939261238E+03  0.17251859304E+03 0.  0.
        -24    2    3    3    0    0  0.12792295279E+03  0.33653021805E+02 -0.25597573569E+02  0.15777400083E+03  0.82101107408E+02 0.  0.
          6    2    1    2  501    0 -0.10097322324E+03 -0.89087829692E+01  0.76608783715E+02  0.21341749656E+03  0.17147350778E+03 0.  0.
         24    2    5    5    0    0 -0.13458053011E+03  0.13254825204E+02  0.52200746738E+02  0.16610450816E+03  0.81105981259E+02 0.  0.
          5    1    5    5  501    0  0.33607306869E+02 -0.22163608173E+02  0.24408036977E+02  0.47312988400E+02  0.47000000000E+01 0. -1.
        -11    1    6    6    0    0 -0.81095534875E+02  0.40256647146E+02  0.55334075121E+02  0.10610816786E+03  0.00000000000E+00 0.  1.
         12    1    6    6    0    0 -0.53484995236E+02 -0.27001821942E+02 -0.31333283827E+01  0.59996340308E+02  0.00000000000E+00 0. -1.
         -5    1    3    3    0  503 -0.26949729546E+02 -0.24744238836E+02 -0.36108527807E+02  0.51618611552E+02  0.47000000000E+01 0.  1.
         11    1    4    4    0    0  0.25798250198E+02  0.45954421064E+02 -0.57454591025E+01  0.53012911907E+02  0.00000000000E+00 0. -1.
        -12    1    4    4    0    0  0.10212470259E+03 -0.12301399259E+02 -0.19852114466E+02  0.10476108892E+03  0.00000000000E+00 0.  1.
</event>
<event>
12    1  0.8219652E-002  0.2031215E+03  0.7818608E-02  0.1147269E+00
         21   -1    0    0  503  502  0.00000000000E+00  0.00000000000E+00  0.79286730126E+02  0.79286730126E+02  0.00000000000E+00 0. -1.
         21   -1    0    0  501  503 -0.00000000000E+00 -0.00000000000E+00 -0.90087700652E+03  0.90087700652E+03  0.00000000000E+00 0. -1.
          6    2    1    2  501    0 -0.74072439820E+01 -0.11258031278E+03 -0.73039751360E+03  0.75811535269E+03  0.16890579040E+03 0.  0.
         24    2    3    3    0    0  0.12991486282E+02 -0.51971372973E+02 -0.64079245338E+03  0.64793046899E+03  0.79555779219E+02 0.  0.
         -6    2    1    2    0  502  0.74072439820E+01  0.11258031278E+03 -0.91192762799E+02  0.22204838396E+03  0.16810761655E+03 0.  0.
        -24    2    5    5    0    0 -0.44956401787E+02  0.23579088476E+02 -0.69610809736E+02  0.11644989900E+03  0.78344512705E+02 0.  0.
          5    1    3    3  501    0 -0.20398730264E+02 -0.60608939808E+02 -0.89605060216E+02  0.11018488371E+03  0.47000000000E+01 0. -1.
        -11    1    4    4    0    0 -0.20287829640E+02  0.11148709241E+02 -0.20949765866E+03  0.21077276563E+03  0.00000000000E+00 0.  1.
         12    1    4    4    0    0  0.33279315922E+02 -0.63120082214E+02 -0.43129479472E+03  0.43715770335E+03  0.00000000000E+00 0. -1.
         -5    1    5    5    0  502  0.52363645769E+02  0.89001224305E+02 -0.21581953063E+02  0.10559848495E+03  0.47000000000E+01 0.  1.
         11    1    6    6    0    0 -0.19180082041E+02 -0.27486857805E+01  0.14777844582E+02  0.24368330085E+02  0.00000000000E+00 0. -1.
        -12    1    6    6    0    0 -0.25776319746E+02  0.26327774256E+02 -0.84388654319E+02  0.92081568919E+02  0.00000000000E+00 0.  1.
</event>
<event>
12    1  0.8219652E-002  0.1789987E+03  0.7818608E-02  0.1169022E+00
         21   -1    0    0  503  502  0.00000000000E+00  0.00000000000E+00  0.72845078988E+02  0.72845078988E+02  0.00000000000E+00 0.  1.
         21   -1    0    0  501  503 -0.00000000000E+00 -0.00000000000E+00 -0.46438270183E+03  0.46438270183E+03  0.00000000000E+00 0.  1.
          6    2    1    2  501    0 -0.29006330881E+02 -0.41725919794E+02 -0.26106754474E+03  0.31653877696E+03  0.17163366449E+03 0.  0.
         24    2    3    3    0    0 -0.62804819816E+01 -0.82471792195E+02 -0.12660046195E+03  0.17413029167E+03  0.86328677453E+02 0.  0.
         -6    2    1    2    0  502  0.29006330881E+02  0.41725919794E+02 -0.13047007810E+03  0.22068900386E+03  0.17058363207E+03 0.  0.
        -24    2    5    5    0    0  0.28498782467E+02  0.36317357885E+02 -0.46239344561E+01  0.94638014109E+02  0.82485403914E+02 0.  0.
          5    1    3    3  501    0 -0.22725848899E+02  0.40745872401E+02 -0.13446708280E+03  0.14240848529E+03  0.47000000000E+01 0. -1.
        -13    1    4    4    0    0 -0.31535996896E+02 -0.51031331456E+02 -0.11875419862E+03  0.13304614079E+03  0.00000000000E+00 0.  1.
         14    1    4    4    0    0  0.25255514914E+02 -0.31440460740E+02 -0.78462633253E+01  0.41084150877E+02  0.00000000000E+00 0. -1.
         -5    1    5    5    0  502  0.50754841360E+00  0.54085619092E+01 -0.12584614364E+03  0.12605098975E+03  0.47000000000E+01 0.  1.
         11    1    6    6    0    0  0.29259185904E+02 -0.86354895732E+01  0.26129002358E+02  0.40167105996E+02  0.00000000000E+00 0. -1.
        -12    1    6    6    0    0 -0.76040343662E+00  0.44952847458E+02 -0.30752936814E+02  0.54470908113E+02  0.00000000000E+00 0.  1.
</event>
<event>
12    1  0.8219652E-002  0.1762885E+03  0.7818608E-02  0.1171483E+00
         21   -1    0    0  501  502  0.00000000000E+00  0.00000000000E+00  0.16497170185E+03  0.16497170185E+03  0.00000000000E+00 0.  1.
         21   -1    0    0  502  503 -0.00000000000E+00 -0.00000000000E+00 -0.37263723982E+03  0.37263723982E+03  0.00000000000E+00 0.  1.
         -6    2    1    2    0  503  0.51880460433E+01 -0.43593899730E+02 -0.29295915942E+03  0.34191035632E+03  0.17073452713E+03 0.  0.
        -24    2    3    3    0    0  0.29368317636E+02  0.35646434250E+02 -0.13003407250E+03  0.15907056302E+03  0.79129120146E+02 0.  0.
          6    2    1    2  501    0 -0.51880460433E+01  0.43593899730E+02  0.85293621452E+02  0.19569858534E+03  0.17057429622E+03 0.  0.
         24    2    5    5    0    0  0.41766644675E+02  0.65515044955E+02  0.92519492950E+02  0.14316685391E+03  0.76812874965E+02 0.  0.
          5    1    5    5  501    0 -0.46954690718E+02 -0.21921145225E+02 -0.72258714988E+01  0.52531731433E+02  0.47000000000E+01 0. -1.
        -13    1    6    6    0    0  0.22385283954E+01  0.61634408538E+00  0.60765974820E+02  0.60810316437E+02  0.00000000000E+00 0.  1.
         14    1    6    6    0    0  0.39528116279E+02  0.64898700869E+02  0.31753518131E+02  0.82356537475E+02  0.00000000000E+00 0. -1.
         -5    1    3    3    0  503 -0.24180271593E+02 -0.79240333979E+02 -0.16292508692E+03  0.18283979329E+03  0.47000000000E+01 0.  1.
         13    1    4    4    0    0  0.26766233613E+02  0.16861375128E+02 -0.43128854267E+01  0.31927076498E+02  0.00000000000E+00 0. -1.
        -14    1    4    4    0    0  0.26020840238E+01  0.18785059121E+02 -0.12572118707E+03  0.12714348653E+03  0.00000000000E+00 0.  1.
</event>
<event>
12    1  0.8219652E-002  0.1730852E+03  0.7818608E-02  0.1177619E+00
         21   -1    0    0  501  502  0.00000000000E+00  0.00000000000E+00  0.40025392449E+03  0.40025392449E+03  0.00000000000E+00 0. -1.
         21   -1    0    0  502  503 -0.00000000000E+00 -0.00000000000E+00 -0.12094236463E+03  0.12094236463E+03  0.00000000000E+00 0. -1.
         -6    2    1    2    0  503 -0.13635449653E+02 -0.53048510126E+01 -0.31970010944E+02  0.16502961219E+03  0.16124088926E+03 0.  0.
        -24    2    3    3    0    0  0.23665445804E+02  0.44916636097E+02 -0.38339222805E+02  0.10197240460E+03  0.79692645658E+02 0.  0.
          6    2    1    2  501    0  0.13635449653E+02  0.53048510126E+01  0.31128157081E+03  0.35616667693E+03  0.17246570238E+03 0.  0.
         24    2    5    5    0    0  0.48021599401E+02  0.40933267337E+02  0.27822996581E+03  0.29644825484E+03  0.80548417333E+02 0.  0.
          5    1    5    5  501    0 -0.34386149748E+02 -0.35628416324E+02  0.33051604998E+02  0.59718422092E+02  0.47000000000E+01 0. -1.
        -13    1    6    6    0    0  0.67229704468E+01  0.34328641159E+02  0.34413920779E+02  0.49071090051E+02  0.00000000000E+00 0.  1.
         14    1    6    6    0    0  0.41298628955E+02  0.66046261773E+01  0.24381604503E+03  0.24737716478E+03  0.00000000000E+00 0. -1.
         -5    1    3    3    0  503 -0.37300895458E+02 -0.50221487110E+02  0.63692118606E+01  0.63057207591E+02  0.47000000000E+01 0.  1.
         13    1    4    4    0    0  0.20272796806E+01 -0.58911788716E+01 -0.45822496101E+02  0.46244102330E+02  0.00000000000E+00 0. -1.
        -14    1    4    4    0    0  0.21638166124E+02  0.50807814969E+02  0.74832732959E+01  0.55728302274E+02  0.00000000000E+00 0.  1.
</event>
<event>
12    1  0.8219652E-002  0.2629008E+03  0.7818608E-02  0.1105573E+00
         21   -1    0    0  503  502  0.00000000000E+00  0.00000000000E+00  0.11650456474E+04  0.11650456474E+04  0.00000000000E+00 0. -1.
         21   -1    0    0  501  503 -0.00000000000E+00 -0.00000000000E+00 -0.60785947777E+02  0.60785947777E+02  0.00000000000E+00 0. -1.
          6    2    1    2  501    0 -0.28916314515E+02  0.19698483483E+03  0.45060982634E+03  0.52169535250E+03  0.17169055544E+03 0.  0.
         24    2    3    3    0    0  0.56637052248E+01  0.19374510164E+02  0.13706817770E+03  0.15965714924E+03  0.79342742343E+02 0.  0.
         -6    2    1    2    0  502  0.28916314515E+02 -0.19698483483E+03  0.65364987329E+03  0.70413624269E+03  0.17003091782E+03 0.  0.
        -24    2    5    5    0    0 -0.94787048603E+00 -0.21284343725E+03  0.58016077528E+03  0.62310475286E+03  0.79810905454E+02 0.  0.
          5    1    3    3  501    0 -0.34580019740E+02  0.17761032466E+03  0.31354164864E+03  0.36203820326E+03  0.47000000000E+01 0. -1.
        -13    1    4    4    0    0  0.28109169492E+02 -0.21474209502E+00  0.12396359297E+03  0.12711075449E+03  0.00000000000E+00 0.  1.
         14    1    4    4    0    0 -0.22445464268E+02  0.19589252259E+02  0.13104584732E+02  0.32546394751E+02  0.00000000000E+00 0. -1.
         -5    1    5    5    0  502  0.29864185001E+02  0.15858602421E+02  0.73489098009E+02  0.81031489822E+02  0.47000000000E+01 0.  1.
         13    1    6    6    0    0 -0.32913976833E+02 -0.16292252628E+03  0.39068223316E+03  0.42457000217E+03  0.00000000000E+00 0. -1.
        -14    1    6    6    0    0  0.31966106347E+02 -0.49920910971E+02  0.18947854212E+03  0.19853475069E+03  0.00000000000E+00 0.  1.
</event>
<event>
12    1  0.8219652E-002  0.2040605E+03  0.7818608E-02  0.1146886E+00
         21   -1    0    0  501  502  0.00000000000E+00  0.00000000000E+00  0.35082972585E+02  0.35082972585E+02  0.00000000000E+00 0.  1.
         21   -1    0    0  502  503 -0.00000000000E+00 -0.00000000000E+00 -0.12292937635E+04  0.12292937635E+04  0.00000000000E+00 0.  1.
         -6    2    1    2    0  503 -0.55100301547E+02 -0.89106709900E+02 -0.73704006492E+03  0.76476711747E+03  0.17511321394E+03 0.  0.
        -24    2    3    3    0    0 -0.64521363756E+02  0.10487957494E+02 -0.32895681726E+03  0.34457444595E+03  0.79031370637E+02 0.  0.
          6    2    1    2  501    0  0.55100301547E+02  0.89106709900E+02 -0.45717072600E+03  0.49960961861E+03  0.17212974560E+03 0.  0.
         24    2    5    5    0    0 -0.19222514009E+02  0.13738724595E+00 -0.12474513067E+03  0.14751831267E+03  0.76359550999E+02 0.  0.
          5    1    5    5  501    0  0.74322815556E+02  0.88969322654E+02 -0.33242559534E+03  0.35209130594E+03  0.47000000000E+01 0. -1.
        -11    1    6    6    0    0 -0.24804908258E+02  0.17899045368E+02 -0.12521204056E+03  0.12889419847E+03  0.00000000000E+00 0.  1.
         12    1    6    6    0    0  0.55823942494E+01 -0.17761658122E+02  0.46690989592E+00  0.18624114198E+02  0.00000000000E+00 0. -1.
         -5    1    3    3    0  503  0.94210622089E+01 -0.99594667395E+02 -0.40808324765E+03  0.42019267152E+03  0.47000000000E+01 0.  1.
         11    1    4    4    0    0 -0.74103061289E+02 -0.72728897195E+01 -0.18846453844E+03  0.20264017585E+03  0.00000000000E+00 0. -1.
        -12    1    4    4    0    0  0.95816975326E+01  0.17760847214E+02 -0.14049227882E+03  0.14193427010E+03  0.00000000000E+00 0.  1.
</event>
<event>
12    1  0.8219652E-002  0.2036949E+03  0.7818608E-02  0.1146758E+00
         21   -1    0    0  501  502  0.00000000000E+00  0.00000000000E+00  0.24026601805E+03  0.24026601805E+03  0.00000000000E+00 0. -1.
         21   -1    0    0  502  503 -0.00000000000E+00 -0.00000000000E+00 -0.20608592114E+03  0.20608592114E+03  0.00000000000E+00 0.  1.
         -6    2    1    2    0  503 -0.45716092888E+02 -0.97953478029E+02 -0.73313449727E+02  0.21603369769E+03  0.17207803933E+03 0.  0.
        -24    2    3    3    0    0 -0.15514831791E+02  0.13457589885E+02 -0.52971245623E+02  0.98728806512E+02  0.80744087347E+02 0.  0.
          6    2    1    2  501    0  0.45716092888E+02  0.97953478029E+02  0.10749354664E+03  0.23031824151E+03  0.17264641552E+03 0.  0.
         24    2    5    5    0    0  0.16486061291E+02  0.70441802846E+01 -0.50373422318E+01  0.82655835611E+02  0.80530749724E+02 0.  0.
          5    1    5    5  501    0  0.29230031597E+02  0.90909297744E+02  0.11253088887E+03  0.14766240589E+03  0.47000000000E+01 0. -1.
        -13    1    6    6    0    0  0.36005885602E+02  0.31380132316E+02 -0.14741102946E+02  0.49984363737E+02  0.00000000000E+00 0.  1.
         14    1    6    6    0    0 -0.19519824310E+02 -0.24335952032E+02  0.97037607145E+01  0.32671471874E+02  0.00000000000E+00 0. -1.
         -5    1    3    3    0  503 -0.30201261097E+02 -0.11141106791E+03 -0.20342204104E+02  0.11730489117E+03  0.47000000000E+01 0.  1.
         11    1    4    4    0    0  0.10867686452E+02  0.10849277009E+02 -0.66998211529E+02  0.68735534976E+02  0.00000000000E+00 0. -1.
        -12    1    4    4    0    0 -0.26382518243E+02  0.26083128761E+01  0.14026965906E+02  0.29993271536E+02  0.00000000000E+00 0.  1.
</event>
<event>
12    1  0.8219652E-002  0.1750905E+03  0.7818608E-02  0.1173107E+00
         21   -1    0    0  503  502  0.00000000000E+00  0.00000000000E+00  0.13655722071E+03  0.13655722071E+03  0.00000000000E+00 0.  1.
         21   -1    0    0  501  503 -0.00000000000E+00 -0.00000000000E+00 -0.32506099502E+03  0.32506099502E+03  0.00000000000E+00 0.  1.
          6    2    1    2  501    0  0.18750514358E+02 -0.24151103231E+02 -0.22446826196E+03  0.28467998010E+03  0.17240021133E+03 0.  0.
         24    2    3    3    0    0 -0.24063473215E+02 -0.13697929817E+02 -0.22568656706E+03  0.24034172761E+03  0.77865495942E+02 0.  0.
         -6    2    1    2    0  502 -0.18750514358E+02  0.24151103231E+02  0.35964487656E+02  0.17693823563E+03  0.17052518078E+03 0.  0.
        -24    2    5    5    0    0 -0.22365642608E+02  0.81073160200E+02  0.18941305519E+02  0.11723004146E+03  0.79441993247E+02 0.  0.
          5    1    3    3  501    0  0.42813987573E+02 -0.10453173413E+02  0.12183050942E+01  0.44338252487E+02  0.47000000000E+01 0. -1.
        -11    1    4    4    0    0  0.77322867267E+01 -0.11116536964E+02 -0.11938095716E+01  0.13593779216E+02  0.00000000000E+00 0.  1.
         12    1    4    4    0    0 -0.31795759942E+02 -0.25813928535E+01 -0.22449275748E+03  0.22674794840E+03  0.00000000000E+00 0. -1.
         -5    1    5    5    0  502  0.36151282503E+01 -0.56922056969E+02  0.17023182138E+02  0.59708194178E+02  0.47000000000E+01 0.  1.
         13    1    6    6    0    0  0.24804115703E+02  0.16919813425E+02  0.22503287937E+02  0.37522289511E+02  0.00000000000E+00 0. -1.
        -14    1    6    6    0    0 -0.47169758311E+02  0.64153346775E+02 -0.35619824184E+01  0.79707751946E+02  0.00000000000E+00 0.  1.
</event>
<event>
12    1  0.8219652E-002  0.2200726E+03  0.7818608E-02  0.1135105E+00
         21   -1    0    0  501  502  0.00000000000E+00  0.00000000000E+00  0.25816144140E+03  0.25816144140E+03  0.00000000000E+00 0. -1.
         21   -1    0    0  502  503 -0.00000000000E+00 -0.00000000000E+00 -0.25815460765E+03  0.25815460765E+03  0.00000000000E+00 0.  1.
         -6    2    1    2    0  503  0.90861009408E+02  0.85925912665E+02 -0.14028608146E+03  0.25532933802E+03  0.17284068012E+03 0.  0.
        -24    2    3    3    0    0  0.51425463404E+02  0.68631426022E+02 -0.47877591753E+01  0.11307552648E+03  0.73541152600E+02 0.  0.
          6    2    1    2  501    0 -0.90861009408E+02 -0.85925912665E+02  0.14029291520E+03  0.26098671103E+03  0.18108830934E+03 0.  0.
         24    2    5    5    0    0  0.22313737189E+02 -0.15479654544E+02  0.50108089114E+02  0.99969347346E+02  0.82131158777E+02 0.  0.
          5    1    5    5  501    0 -0.11317474660E+03 -0.70446258121E+02  0.90184826091E+02  0.16101736368E+03  0.47000000000E+01 0. -1.
        -11    1    6    6    0    0 -0.19238618882E+01  0.73625137940E+01 -0.20518342473E+02  0.21884017724E+02  0.00000000000E+00 0.  1.
         12    1    6    6    0    0  0.24237599078E+02 -0.22842168338E+02  0.70626431587E+02  0.78085329622E+02  0.00000000000E+00 0. -1.
         -5    1    3    3    0  503  0.39435546004E+02  0.17294486643E+02 -0.13549832228E+03  0.14225381154E+03  0.47000000000E+01 0.  1.
         13    1    4    4    0    0  0.44832550524E+02  0.13942905794E+02  0.21969201989E+02  0.51836358326E+02  0.00000000000E+00 0. -1.
        -14    1    4    4    0    0  0.65929128801E+01  0.54688520228E+02 -0.26756961164E+02  0.61239168150E+02  0.00000000000E+00 0.  1.
</event>
<event>
12    1  0.8219652E-002  0.2298711E+03  0.7818608E-02  0.1126769E+00
         21   -1    0    0  501  502  0.00000000000E+00  0.00000000000E+00  0.15831747947E+03  0.15831747947E+03  0.00000000000E+00 0. -1.
         21   -1    0    0  502  503 -0.00000000000E+00 -0.00000000000E+00 -0.33457963966E+03  0.33457963966E+03  0.00000000000E+00 0. -1.
         -6    2    1    2    0  503  0.15188915652E+03  0.11725155941E+02 -0.10248809967E+03  0.25168338955E+03  0.17214215884E+03 0.  0.
        -24    2    3    3    0    0  0.16198983760E+03  0.24615665970E+01 -0.12977029789E+03  0.22079251410E+03  0.75247838997E+02 0.  0.
          6    2    1    2  501    0 -0.15188915652E+03 -0.11725155941E+02 -0.73774060524E+02  0.24121372958E+03  0.17185358938E+03 0.  0.
         24    2    5    5    0    0 -0.36055616950E+02 -0.87182011677E+01  0.21824135792E+02  0.90922160274E+02  0.80090772132E+02 0.  0.
          5    1    5    5  501    0 -0.11583353957E+03 -0.30069547731E+01 -0.95598196316E+02  0.15029156931E+03  0.47000000000E+01 0. -1.
        -13    1    6    6    0    0 -0.21227795384E+02 -0.33951433670E+02 -0.15980356705E+02  0.43112538148E+02  0.00000000000E+00 0.  1.
         14    1    6    6    0    0 -0.14827821566E+02  0.25233232502E+02  0.37804492497E+02  0.47809622127E+02  0.00000000000E+00 0. -1.
         -5    1    3    3    0  503 -0.10100681086E+02  0.92635893438E+01  0.27282198219E+02  0.30890875442E+02  0.47000000000E+01 0.  1.
         11    1    4    4    0    0  0.12857056713E+03 -0.14325442624E+02 -0.62153577623E+02  0.14352238936E+03  0.00000000000E+00 0. -1.
        -12    1    4    4    0    0  0.33419270476E+02  0.16787009221E+02 -0.67616720267E+02  0.77270124741E+02  0.00000000000E+00 0.  1.
</event>
<event>
12    1  0.8219652E-002  0.2148696E+03  0.7818608E-02  0.1137895E+00
         21   -1    0    0  503  502  0.00000000000E+00  0.00000000000E+00  0.77519761684E+02  0.77519761684E+02  0.00000000000E+00 0. -1.
         21   -1    0    0  501  503 -0.00000000000E+00 -0.00000000000E+00 -0.61305806643E+03  0.61305806643E+03  0.00000000000E+00 0.  1.
          6    2    1    2  501    0 -0.11127835686E+03  0.60421877831E+02 -0.20605490801E+03  0.29722270849E+03  0.17276873936E+03 0.  0.
         24    2    3    3    0    0  0.67862711812E+00  0.55340509409E+02 -0.62962385655E+02  0.11540481465E+03  0.79315677648E+02 0.  0.
         -6    2    1    2    0  502  0.11127835686E+03 -0.60421877831E+02 -0.32948339674E+03  0.39335511963E+03  0.17359511912E+03 0.  0.
        -24    2    5    5    0    0  0.10007937919E+03 -0.22028377070E+02 -0.10945957972E+03  0.16967667172E+03  0.79420663546E+02 0.  0.
          5    1    3    3  501    0 -0.11195698398E+03  0.50813684228E+01 -0.14309252235E+03  0.18181789384E+03  0.47000000000E+01 0. -1.
        -13    1    4    4    0    0 -0.23020396363E+01  0.21477111957E+02 -0.75989548508E+02  0.78999855740E+02  0.00000000000E+00 0.  1.
         14    1    4    4    0    0  0.29806667544E+01  0.33863397452E+02  0.13027162853E+02  0.36404958910E+02  0.00000000000E+00 0. -1.
         -5    1    5    5    0  502  0.11198977677E+02 -0.38393500761E+02 -0.22002381702E+03  0.22367844791E+03  0.47000000000E+01 0.  1.
         11    1    6    6    0    0  0.94744892045E+02 -0.23970171072E+02 -0.12175950443E+03  0.15612988372E+03  0.00000000000E+00 0. -1.
        -12    1    6    6    0    0  0.53344871407E+01  0.19417940017E+01  0.12299924717E+02  0.13546787997E+02  0.00000000000E+00 0.  1.
</event>
<event>
12    1  0.8219652E-002  0.3267032E+03  0.7818608E-02  0.1072693E+00
         21   -1    0    0  503  502  0.00000000000E+00  0.00000000000E+00  0.34452234615E+03  0.34452234615E+03  0.00000000000E+00 0.  1.
         21   -1    0    0  501  503 -0.00000000000E+00 -0.00000000000E+00 -0.77173775446E+03  0.77173775446E+03  0.00000000000E+00 0. -1.
          6    2    1    2  501    0  0.17245109106E+03  0.21686980394E+03 -0.64586432652E+03  0.72379258537E+03  0.17309849132E+03 0.  0.
         24    2    3    3    0    0  0.16665309165E+03  0.11831245494E+03 -0.36653624072E+03  0.42749301171E+03  0.81427079925E+02 0.  0.
         -6    2    1    2    0  502 -0.17245109106E+03 -0.21686980394E+03  0.21864891821E+03  0.39246751524E+03  0.17161442367E+03 0.  0.
        -24    2    5    5    0    0 -0.97879754448E+02 -0.68962282186E+02  0.16421482132E+03  0.21804652986E+03  0.79003410975E+02 0.  0.
          5    1    3    3  501    0  0.57979994154E+01  0.98557349000E+02 -0.27932808580E+03  0.29629957367E+03  0.47000000000E+01 0. -1.
        -11    1    4    4    0    0  0.45553062423E+02  0.11664381024E+02 -0.34497526331E+02  0.58319967454E+02  0.00000000000E+00 0.  1.
         12    1    4    4    0    0  0.12110002922E+03  0.10664807392E+03 -0.33203871439E+03  0.36917304425E+03  0.00000000000E+00 0. -1.
         -5    1    5    5    0  502 -0.74571336614E+02 -0.14790752176E+03  0.54434096884E+02  0.17442098538E+03  0.47000000000E+01 0.  1.
         11    1    6    6    0    0 -0.14217359379E+02  0.39027354673E+01 -0.51173838130E+01  0.15606161249E+02  0.00000000000E+00 0. -1.
        -12    1    6    6    0    0 -0.83662395069E+02 -0.72865017653E+02  0.16933220513E+03  0.20244036861E+03  0.00000000000E+00 0.  1.
</event>
<event>
12    1  0.8219652E-002  0.2007347E+03  0.7818608E-02  0.1149140E+00
         21   -1    0    0  503  502  0.00000000000E+00  0.00000000000E+00  0.43480379731E+03  0.43480379731E+03  0.00000000000E+00 0. -1.
         21   -1    0    0  501  503 -0.00000000000E+00 -0.00000000000E+00 -0.92941418730E+02  0.92941418730E+02  0.00000000000E+00 0. -1.
          6    2    1    2  501    0 -0.93093067729E+02  0.44288989378E+02  0.18614492048E+03  0.27369337093E+03  0.17213452887E+03 0.  0.
         24    2    3    3    0    0  0.15844782583E+02  0.41200486862E+02  0.89453928896E+02  0.12792563810E+03  0.80090113226E+02 0.  0.
         -6    2    1    2    0  502  0.93093067729E+02 -0.44288989378E+02  0.15571745809E+03  0.25405184511E+03  0.17223988914E+03 0.  0.
        -24    2    5    5    0    0  0.90252487708E+02 -0.64200157794E+02  0.50042725952E+02  0.14637750956E+03  0.81577748722E+02 0.  0.
          5    1    3    3  501    0 -0.10893785031E+03  0.30885025159E+01  0.96690991585E+02  0.14576773282E+03  0.47000000000E+01 0. -1.
        -13    1    4    4    0    0  0.42190399354E+01  0.12876102742E+02 -0.14328826611E+02  0.19720790853E+02  0.00000000000E+00 0.  1.
         14    1    4    4    0    0  0.11625742647E+02  0.28324384119E+02  0.10378275551E+03  0.10820484725E+03  0.00000000000E+00 0. -1.
         -5    1    5    5    0  502  0.28405800203E+01  0.19911168416E+02  0.10567473214E+03  0.10767433555E+03  0.47000000000E+01 0.  1.
         11    1    6    6    0    0  0.84191095734E+02 -0.13460502534E+02  0.40512816488E+02  0.94396048800E+02  0.00000000000E+00 0. -1.
        -12    1    6    6    0    0  0.60613919747E+01 -0.50739655259E+02  0.95299094641E+01  0.51981460762E+02  0.00000000000E+00 0.  1.
</event>
<event>
12    1  0.8219652E-002  0.2190930E+03  0.7818608E-02  0.1134903E+00
         21   -1    0    0  501  502  0.00000000000E+00  0.00000000000E+00  0.43241736460E+03  0.43241736460E+03  0.00000000000E+00 0.  1.
         21   -1    0    0  502  503 -0.00000000000E+00 -0.00000000000E+00 -0.11610888085E+03  0.11610888085E+03  0.00000000000E+00 0.  1.
         -6    2    1    2    0  503 -0.12835675265E+03 -0.39518371631E+02  0.96335456449E+02  0.23933714263E+03  0.17310283078E+03 0.  0.
        -24    2    3    3    0    0 -0.33504290842E+02  0.33495077035E+02  0.71504872126E+02  0.11699908185E+03  0.79569973769E+02 0.  0.
          6    2    1    2  501    0  0.12835675265E+03  0.39518371631E+02  0.21997302730E+03  0.30918910282E+03  0.17079991485E+03 0.  0.
         24    2    5    5    0    0  0.12920593523E+03  0.66620978786E+02  0.11081882137E+03  0.19661911082E+03  0.72427446855E+02 0.  0.
          5    1    5    5  501    0 -0.84918257589E+00 -0.27102607155E+02  0.10915420593E+03  0.11256999200E+03  0.47000000000E+01 0. -1.
        -11    1    6    6    0    0  0.56424017663E+02  0.69381999766E+02  0.56854068434E+02  0.10597130158E+03  0.00000000000E+00 0.  1.
         12    1    6    6    0    0  0.72781917562E+02 -0.27610209794E+01  0.53964752934E+02  0.90647809241E+02  0.00000000000E+00 0. -1.
         -5    1    3    3    0  503 -0.94852461807E+02 -0.73013448666E+02  0.24830584323E+02  0.12233806078E+03  0.47000000000E+01 0.  1.
         13    1    4    4    0    0 -0.55611956370E+02  0.25586447625E+02  0.27472328429E+02  0.67097576877E+02  0.00000000000E+00 0. -1.
        -14    1    4    4    0    0  0.22107665528E+02  0.79086294095E+01  0.44032543697E+02  0.49901504974E+02  0.00000000000E+00 0.  1.
</event>
<event>
12    1  0.8219652E-002  0.2410781E+03  0.7818608E-02  0.1119300E+00
         21   -1    0    0  503  502  0.00000000000E+00  0.00000000000E+00  0.17528820897E+03  0.17528820897E+03  0.00000000000E+00 0. -1.
         21   -1    0    0  501  503 -0.00000000000E+00 -0.00000000000E+00 -0.65629630549E+03  0.65629630549E+03  0.00000000000E+00 0.  1.
          6    2    1    2  501    0  0.17770343957E+01  0.16943188105E+03 -0.53347375436E+03  0.58486345900E+03  0.16958979601E+03 0.  0.
         24    2    3    3    0    0  0.47325681602E+02  0.13212174332E+03 -0.47924563324E+03  0.50467926629E+03  0.72999381143E+02 0.  0.
         -6    2    1    2    0  502 -0.17770343957E+01 -0.16943188105E+03  0.52465657838E+02  0.24672105547E+03  0.17148852378E+03 0.  0.
        -24    2    5    5    0    0 -0.48595196319E+02 -0.15871910893E+03  0.12181967261E+02  0.18385954499E+03  0.78119673031E+02 0.  0.
          5    1    3    3  501    0 -0.45548647206E+02  0.37310137734E+02 -0.54228121123E+02  0.80184192710E+02  0.47000000000E+01 0. -1.
        -11    1    4    4    0    0  0.45705170614E+02  0.90117232936E+02 -0.42033067400E+03  0.43230539414E+03  0.00000000000E+00 0.  1.
         12    1    4    4    0    0  0.16205109881E+01  0.42004510384E+02 -0.58914959234E+02  0.72373872151E+02  0.00000000000E+00 0. -1.
         -5    1    5    5    0  502  0.46818161924E+02 -0.10712772127E+02  0.40283690577E+02  0.62861510474E+02  0.47000000000E+01 0.  1.
         13    1    6    6    0    0  0.56972892420E+01  0.28228612574E+01  0.11838265293E+02  0.13437714670E+02  0.00000000000E+00 0. -1.
        -14    1    6    6    0    0 -0.54292485561E+02 -0.16154197018E+03  0.34370196772E+00  0.17042183032E+03  0.00000000000E+00 0.  1.
</event>
<event>
12    1  0.8219652E-002  0.1772779E+03  0.7818608E-02  0.1170904E+00
         21   -1    0    0  501  502  0.00000000000E+00  0.00000000000E+00  0.11014152076E+04  0.11014152076E+04  0.00000000000E+00 0. -1.
         21   -1    0    0  502  503 -0.00000000000E+00 -0.00000000000E+00 -0.54018959927E+02  0.54018959927E+02  0.00000000000E+00 0. -1.
         -6    2    1    2    0  503 -0.20729369057E+02  0.40222830007E+02  0.12329719893E+03  0.21448437253E+03  0.16956934865E+03 0.  0.
        -24    2    3    3    0    0 -0.64153440024E+02 -0.16582466683E+02  0.85051430099E+02  0.13326048131E+03  0.78319653022E+02 0.  0.
          6    2    1    2  501    0  0.20729369057E+02 -0.40222830007E+02  0.92409904874E+03  0.94094979499E+03  0.17140560671E+03 0.  0.
         24    2    5    5    0    0  0.71140111409E+02  0.65173797985E+00  0.67802292604E+03  0.68641586520E+03  0.79939424216E+02 0.  0.
          5    1    5    5  501    0 -0.50410742352E+02 -0.40874567987E+02  0.24607612269E+03  0.25453392979E+03  0.47000000000E+01 0. -1.
        -11    1    6    6    0    0  0.40788641727E+02  0.14891073366E+02  0.12406203713E+03  0.13144141819E+03  0.00000000000E+00 0.  1.
         12    1    6    6    0    0  0.30351469682E+02 -0.14239335386E+02  0.55396088892E+03  0.55497444701E+03  0.00000000000E+00 0. -1.
         -5    1    3    3    0  503  0.43424070967E+02  0.56805296690E+02  0.38245768827E+02  0.81223891218E+02  0.47000000000E+01 0.  1.
         13    1    4    4    0    0 -0.13845622430E+02 -0.31602624090E+02  0.14410003495E+01  0.34532645306E+02  0.00000000000E+00 0. -1.
        -14    1    4    4    0    0 -0.50307817594E+02  0.15020157407E+02  0.83610429749E+02  0.98727836006E+02  0.00000000000E+00 0.  1.
</event>
<event>
12    1  0.8219652E-002  0.1773476E+03  0.7818608E-02  0.1172258E+00
         21   -1    0    0  503  502  0.00000000000E+00  0.00000000000E+00  0.96740852639E+03  0.96740852639E+03  0.00000000000E+00 0.  1.
         21   -1    0    0  501  503 -0.00000000000E+00 -0.00000000000E+00 -0.44432902480E+02  0.44432902480E+02  0.00000000000E+00 0.  1.
          6    2    1    2  501    0  0.39780542877E+02  0.71892943339E+01  0.17826878270E+03  0.24630863649E+03  0.16508787957E+03 0.  0.
         24    2    3    3    0    0 -0.31502881749E+02 -0.10767406790E+02  0.13774160897E+03  0.16223538538E+03  0.78988611969E+02 0.  0.
         -6    2    1    2    0  502 -0.39780542877E+02 -0.71892943339E+01  0.74470684121E+03  0.76553279238E+03  0.17267889077E+03 0.  0.
        -24    2    5    5    0    0 -0.87356060320E+01 -0.70132876872E+02  0.43200803434E+03  0.44502020837E+03  0.80106884204E+02 0.  0.
          5    1    3    3  501    0  0.71283424626E+02  0.17956701124E+02  0.40527173727E+02  0.84073251109E+02  0.47000000000E+01 0. -1.
        -11    1    4    4    0    0 -0.37904153319E+02 -0.32378619310E+02  0.46225422383E+02  0.67984479859E+02  0.00000000000E+00 0.  1.
         12    1    4    4    0    0  0.64012715702E+01  0.21611212520E+02  0.91516186589E+02  0.94250905524E+02  0.00000000000E+00 0. -1.
         -5    1    5    5    0  502 -0.31044936845E+02  0.62943582538E+02  0.31269880687E+03  0.32051258401E+03  0.47000000000E+01 0.  1.
         11    1    6    6    0    0 -0.28419363161E+02 -0.23574949610E+02  0.66760962656E+02  0.76291969344E+02  0.00000000000E+00 0. -1.
        -12    1    6    6    0    0  0.19683757129E+02 -0.46557927262E+02  0.36524707168E+03  0.36872823903E+03  0.00000000000E+00 0.  1.
</event>
<event>
12    1  0.8219652E-002  0.1826878E+03  0.7818608E-02  0.1165390E+00
         21   -1    0    0  503  502  0.00000000000E+00  0.00000000000E+00  0.14896213518E+03  0.14896213518E+03  0.00000000000E+00 0. -1.
         21   -1    0    0  501  503 -0.00000000000E+00 -0.00000000000E+00 -0.23785989213E+03  0.23785989213E+03  0.00000000000E+00 0. -1.
          6    2    1    2  501    0  0.59395062563E+02  0.17274439519E+02 -0.92375859859E+02  0.20410107983E+03  0.17116591830E+03 0.  0.
         24    2    3    3    0    0  0.11138244622E+03  0.18223451488E+02 -0.45168852667E+02  0.13371514224E+03  0.55689949748E+02 0.  0.
         -6    2    1    2    0  502 -0.59395062563E+02 -0.17274439519E+02  0.34781029093E+01  0.18272094747E+03  0.17189725922E+03 0.  0.
        -24    2    5    5    0    0 -0.30752026302E+02 -0.61799700848E+02  0.46323405152E+02  0.11445139096E+03  0.78666211810E+02 0.  0.
          5    1    3    3  501    0 -0.51987383655E+02 -0.94901196907E+00 -0.47207007192E+02  0.70385937595E+02  0.47000000000E+01 0. -1.
        -13    1    4    4    0    0  0.19911153193E+02 -0.45217884185E+01  0.11797215891E+02  0.23581240314E+02  0.00000000000E+00 0.  1.
         14    1    4    4    0    0  0.91471293025E+02  0.22745239906E+02 -0.56966068558E+02  0.11013390192E+03  0.00000000000E+00 0. -1.
         -5    1    5    5    0  502 -0.28643036261E+02  0.44525261329E+02 -0.42845302243E+02  0.68269556516E+02  0.47000000000E+01 0.  1.
         13    1    6    6    0    0 -0.45429821206E+02 -0.38253304196E+02 -0.12212363255E+01  0.59402654443E+02  0.00000000000E+00 0. -1.
        -14    1    6    6    0    0  0.14677794904E+02 -0.23546396652E+02  0.47544641477E+02  0.55048736513E+02  0.00000000000E+00 0.  1.
</event>
<event>
12    1  0.8219652E-002  0.1927198E+03  0.7818608E-02  0.1156393E+00
         21   -1    0    0  501  502  0.00000000000E+00  0.00000000000E+00  0.62398459861E+02  0.62398459861E+02  0.00000000000E+00 0.  1.
         21   -1    0    0  502  503 -0.00000000000E+00 -0.00000000000E+00 -0.98502671203E+03  0.98502671203E+03  0.00000000000E+00 0. -1.
         -6    2    1    2    0  503  0.69323686032E+02  0.45358668855E+02 -0.79170570984E+03  0.81444099119E+03  0.17220050770E+03 0.  0.
        -24    2    3    3    0    0  0.58785282718E+02  0.68331721475E+02 -0.77339265401E+03  0.78287713361E+03  0.81458427660E+02 0.  0.
          6    2    1    2  501    0 -0.69323686032E+02 -0.45358668855E+02 -0.13092254233E+03  0.23298418070E+03  0.17400498292E+03 0.  0.
         24    2    5    5    0    0  0.23873456546E+02 -0.20510173726E+01 -0.34066307108E+02  0.91688461153E+02  0.81682997184E+02 0.  0.
          5    1    5    5  501    0 -0.93197142578E+02 -0.43307651482E+02 -0.96856235221E+02  0.14129571955E+03  0.47000000000E+01 0. -1.
        -13    1    6    6    0    0 -0.38709161117E-01 -0.40136267608E+02 -0.15100763039E+02  0.42883033011E+02  0.00000000000E+00 0.  1.
         14    1    6    6    0    0  0.23912165707E+02  0.38085250235E+02 -0.18965544069E+02  0.48805428142E+02  0.00000000000E+00 0. -1.
         -5    1    3    3    0  503  0.10538403314E+02 -0.22973052621E+02 -0.18313055829E+02  0.31563857574E+02  0.47000000000E+01 0.  1.
         11    1    4    4    0    0  0.57640044547E+02  0.76018167896E+01 -0.29787234690E+03  0.30349315874E+03  0.00000000000E+00 0. -1.
        -12    1    4    4    0    0  0.11452381706E+01  0.60729904686E+02 -0.47552030711E+03  0.47938397488E+03  0.00000000000E+00 0.  1.
</event>
<event>
12    1  0.8219652E-002  0.1840221E+03  0.7818608E-02  0.1165186E+00
         21   -1    0    0  503  502  0.00000000000E+00  0.00000000000E+00  0.24498500508E+03  0.24498500508E+03  0.00000000000E+00 0.  1.
         21   -1    0    0  501  503 -0.00000000000E+00 -0.00000000000E+00 -0.16223471067E+03  0.16223471067E+03  0.00000000000E+00 0.  1.
          6    2    1    2  501    0  0.59682020138E+01 -0.47490003516E+02 -0.43411402586E+02  0.18410338884E+03  0.17239080034E+03 0.  0.
         24    2    3    3    0    0  0.32189806905E+02 -0.53597086008E+02 -0.84045591868E+02  0.13513302681E+03  0.85372373306E+02 0.  0.
         -6    2    1    2    0  502 -0.59682020138E+01  0.47490003516E+02  0.12616169700E+03  0.22311632690E+03  0.17768849617E+03 0.  0.
        -24    2    5    5    0    0  0.37942868752E+02  0.10016708689E+02  0.52665994251E+01  0.89063559012E+02  0.79778347515E+02 0.  0.
          5    1    3    3  501    0 -0.26221604891E+02  0.61070824917E+01  0.40634189282E+02  0.48970362040E+02  0.47000000000E+01 0. -1.
        -11    1    4    4    0    0 -0.19220145850E+02 -0.86697478820E+01 -0.58587709282E+02  0.62266348967E+02  0.00000000000E+00 0.  1.
         12    1    4    4    0    0  0.51409952755E+02 -0.44927338126E+02 -0.25457882586E+02  0.72866677838E+02  0.00000000000E+00 0. -1.
         -5    1    5    5    0  502 -0.43911070766E+02  0.37473294827E+02  0.12089509757E+03  0.13405276789E+03  0.47000000000E+01 0.  1.
         11    1    6    6    0    0 -0.20012449872E+02  0.19327410467E+02 -0.78694075804E+01  0.28913223980E+02  0.00000000000E+00 0. -1.
        -12    1    6    6    0    0  0.57955318624E+02 -0.93107017781E+01  0.13136007006E+02  0.60150335032E+02  0.00000000000E+00 0.  1.
</event>
<event>
12    1  0.8219652E-002  0.4919947E+03  0.7818608E-02  0.1015903E+00
         21   -1    0    0  503  502  0.00000000000E+00  0.00000000000E+00  0.23458591280E+03  0.23458591280E+03  0.00000000000E+00 0. -1.
         21   -1    0    0  501  503 -0.00000000000E+00 -0.00000000000E+00 -0.26976538325E+04  0.26976538325E+04  0.00000000000E+00 0.  1.
          6    2    1    2  501    0 -0.21352319037E+03  0.40796029930E+03 -0.23838656682E+04  0.24341064733E+04  0.17330620463E+03 0.  0.
         24    2    3    3    0    0 -0.16156872170E+03  0.35483111504E+03 -0.22003354110E+04  0.22360473347E+04  0.80138570089E+02 0.  0.
         -6    2    1    2    0  502  0.21352319037E+03 -0.40796029930E+03 -0.79202251469E+02  0.49813327199E+03  0.17274258710E+03 0.  0.
        -24    2    5    5    0    0  0.18401620856E+03 -0.40976880848E+03 -0.92619327568E+02  0.46533021403E+03  0.78622050568E+02 0.  0.
          5    1    3    3  501    0 -0.51954468670E+02  0.53129184263E+02 -0.18353025724E+03  0.19805913853E+03  0.47000000000E+01 0. -1.
        -13    1    4    4    0    0 -0.52503136397E+02  0.12123224626E+03 -0.54670582526E+03  0.56244208256E+03  0.00000000000E+00 0.  1.
         14    1    4    4    0    0 -0.10906558530E+03  0.23359886878E+03 -0.16536295857E+04  0.16736052522E+04  0.00000000000E+00 0. -1.
         -5    1    5    5    0  502  0.29506981808E+02  0.18085091760E+01  0.13417076099E+02  0.32803057965E+02  0.47000000000E+01 0.  1.
         11    1    6    6    0    0  0.13088798296E+03 -0.25349013584E+03 -0.93647522767E+02  0.30026450268E+03  0.00000000000E+00 0. -1.
        -12    1    6    6    0    0  0.53128225609E+02 -0.15627867264E+03  0.10281951996E+01  0.16506571135E+03  0.00000000000E+00 0.  1.
</event>
<event>
12    1  0.8219652E-002  0.2192182E+03  0.7818608E-02  0.1134929E+00
         21   -1    0    0  501  502  0.00000000000E+00  0.00000000000E+00  0.34245544292E+03  0.34245544292E+03  0.00000000000E+00 0. -1.
         21   -1    0    0  502  503 -0.00000000000E+00 -0.00000000000E+00 -0.14357901834E+03  0.14357901834E+03  0.00000000000E+00 0.  1.
         -6    2    1    2    0  503 -0.12152371671E+03 -0.62741483544E+02  0.14339396862E+03  0.25990411953E+03  0.16817792254E+03 0.  0.
        -24    2    3    3    0    0 -0.87399683221E+02 -0.18770974140E+02  0.15842785880E+03  0.20205981805E+03  0.87964365121E+02 0.  0.
          6    2    1    2  501    0  0.12152371671E+03  0.62741483544E+02  0.55482455964E+02  0.22613034174E+03  0.17132460726E+03 0.  0.
         24    2    5    5    0    0  0.52567270462E+02  0.90986769712E+02  0.71295885387E+02  0.14980903265E+03  0.79484167009E+02 0.  0.
          5    1    5    5  501    0  0.68956446252E+02 -0.28245286168E+02 -0.15813429423E+02  0.76321309086E+02  0.47000000000E+01 0. -1.
        -13    1    6    6    0    0  0.66010019674E+02  0.37827781601E+02  0.49709175508E+02  0.90880503343E+02  0.00000000000E+00 0.  1.
         14    1    6    6    0    0 -0.13442749211E+02  0.53158988111E+02  0.21586709879E+02  0.58928529311E+02  0.00000000000E+00 0. -1.
         -5    1    3    3    0  503 -0.34124033494E+02 -0.43970509404E+02 -0.15033890181E+02  0.57844301475E+02  0.47000000000E+01 0.  1.
         11    1    4    4    0    0 -0.50874061069E+02  0.33341761759E+02  0.89857172847E+02  0.10850877697E+03  0.00000000000E+00 0. -1.
        -12    1    4    4    0    0 -0.36525622151E+02 -0.52112735899E+02  0.68570685950E+02  0.93551041085E+02  0.00000000000E+00 0.  1.
</event>
<event>
12    1  0.8219652E-002  0.2508900E+03  0.7818608E-02  0.1112777E+00
         21   -1    0    0  503  502  0.00000000000E+00  0.00000000000E+00  0.29956339416E+03  0.29956339416E+03  0.00000000000E+00 0. -1.
         21   -1    0    0  501  503 -0.00000000000E+00 -0.00000000000E+00 -0.30829662880E+03  0.30829662880E+03  0.00000000000E+00 0.  1.
          6    2    1    2  501    0  0.55617996348E+02  0.17378242128E+03 -0.17602693233E+03  0.30630909792E+03  0.17188976438E+03 0.  0.
         24    2    3    3    0    0  0.20960837980E+01  0.88432239409E+02 -0.16662420132E+03  0.20501867379E+03  0.80276880890E+02 0.  0.
         -6    2    1    2    0  502 -0.55617996348E+02 -0.17378242128E+03  0.16729369769E+03  0.30155092505E+03  0.17219781545E+03 0.  0.
        -24    2    5    5    0    0  0.30497872893E+02 -0.59769424966E+02  0.94832069414E+02  0.14127714729E+03  0.80396558043E+02 0.  0.
          5    1    3    3  501    0  0.53521912550E+02  0.85350181872E+02 -0.94027310084E+01  0.10129042412E+03  0.47000000000E+01 0. -1.
        -11    1    4    4    0    0  0.19693559126E+02  0.25342468692E+02 -0.12103153696E+03  0.12521465541E+03  0.00000000000E+00 0.  1.
         12    1    4    4    0    0 -0.17597475328E+02  0.63089770717E+02 -0.45592664356E+02  0.79804018384E+02  0.00000000000E+00 0. -1.
         -5    1    5    5    0  502 -0.86115869241E+02 -0.11401299632E+03  0.72461628277E+02  0.16027377776E+03  0.47000000000E+01 0.  1.
         11    1    6    6    0    0 -0.11805841885E+02 -0.41364218069E+02  0.83257343133E+02  0.93713188104E+02  0.00000000000E+00 0. -1.
        -12    1    6    6    0    0  0.42303714777E+02 -0.18405206898E+02  0.11574726280E+02  0.47563959185E+02  0.00000000000E+00 0.  1.
</event>
<event>
12    1  0.8219652E-002  0.1879161E+03  0.7818608E-02  0.1160654E+00
         21   -1    0    0  503  502  0.00000000000E+00  0.00000000000E+00  0.46489510323E+02  0.46489510323E+02  0.00000000000E+00 0.  1.
         21   -1    0    0  501  503 -0.00000000000E+00 -0.00000000000E+00 -0.17861949221E+04  0.17861949221E+04  0.00000000000E+00 0.  1.
          6    2    1    2  501    0 -0.31624472796E+02 -0.63958733315E+02 -0.15676135804E+04  0.15788365360E+04  0.17384373125E+03 0.  0.
         24    2    3    3    0    0  0.47949328032E+02 -0.55433399413E+02 -0.96251856964E+03  0.96845408767E+03  0.78034115615E+02 0.  0.
         -6    2    1    2    0  502  0.31624472796E+02  0.63958733315E+02 -0.17209183137E+03  0.25384789649E+03  0.17243065064E+03 0.  0.
        -24    2    5    5    0    0  0.38294165122E+02  0.97499943071E+02 -0.17541408369E+03  0.21916901375E+03  0.79323854235E+02 0.  0.
          5    1    3    3  501    0 -0.79573800828E+02 -0.85253339028E+01 -0.60509501079E+03  0.61038244829E+03  0.47000000000E+01 0. -1.
        -11    1    4    4    0    0  0.10065304244E+02 -0.66744797453E+02 -0.61629163043E+03  0.61997705770E+03  0.00000000000E+00 0.  1.
         12    1    4    4    0    0  0.37884023788E+02  0.11311398041E+02 -0.34622693921E+03  0.34847702997E+03  0.00000000000E+00 0. -1.
         -5    1    5    5    0  502 -0.66696923262E+01 -0.33541209756E+02  0.33222523132E+01  0.34678882739E+02  0.47000000000E+01 0.  1.
         11    1    6    6    0    0  0.51695963280E+02  0.72255455845E+02 -0.16735101115E+03  0.18947212051E+03  0.00000000000E+00 0. -1.
        -12    1    6    6    0    0 -0.13401798158E+02  0.25244487226E+02 -0.80630725384E+01  0.29696893237E+02  0.00000000000E+00 0.  1.
</event>
<event>
12    1  0.8219652E-002  0.2088805E+03  0.7818608E-02  0.1144247E+00
         21   -1    0    0  501  502  0.00000000000E+00  0.00000000000E+00  0.17427118463E+03  0.17427118463E+03  0.00000000000E+00 0.  1.
         21   -1    0    0  502  503 -0.00000000000E+00 -0.00000000000E+00 -0.33255920791E+03  0.33255920791E+03  0.00000000000E+00 0. -1.
         -6    2    1    2    0  503 -0.90331678262E+02 -0.73373661631E+02  0.55790092872E+02  0.20773089869E+03  0.16277618219E+03 0.  0.
        -24    2    3    3    0    0 -0.50175907235E+02  0.63677058425E+01 -0.50494145397E+01  0.99588828730E+02  0.85640346076E+02 0.  0.
          6    2    1    2  501    0  0.90331678262E+02  0.73373661631E+02 -0.21407811615E+03  0.29909949384E+03  0.17345766366E+03 0.  0.
         24    2    5    5    0    0  0.83755201608E+02  0.64690201000E+02 -0.67068524844E+02  0.15161199447E+03  0.85371271168E+02 0.  0.
          5    1    5    5  501    0  0.65764766537E+01  0.86834606313E+01 -0.14700959131E+03  0.14748749937E+03  0.47000000000E+01 0. -1.
        -13    1    6    6    0    0  0.10119987515E+03  0.54614827031E+02 -0.50796415416E+02  0.12571582987E+03  0.00000000000E+00 0.  1.
         14    1    6    6    0    0 -0.17444673541E+02  0.10075373969E+02 -0.16272109428E+02  0.25896164596E+02  0.00000000000E+00 0. -1.
         -5    1    3    3    0  503 -0.40155771027E+02 -0.79741367474E+02  0.60839507412E+02  0.10814206996E+03  0.47000000000E+01 0.  1.
         11    1    4    4    0    0  0.10785279384E+02  0.96465766291E+01 -0.30257824405E+02  0.33539747014E+02  0.00000000000E+00 0. -1.
        -12    1    4    4    0    0 -0.60961186618E+02 -0.32788707867E+01  0.25208409865E+02  0.66049081716E+02  0.00000000000E+00 0.  1.
</event>
<event>
12    1  0.8219652E-002  0.2441447E+03  0.7818608E-02  0.1118705E+00
         21   -1    0    0  503  502  0.00000000000E+00  0.00000000000E+00  0.25784517360E+03  0.25784517360E+03  0.00000000000E+00 0. -1.
         21   -1    0    0  501  503 -0.00000000000E+00 -0.00000000000E+00 -0.27443038127E+03  0.27443038127E+03  0.00000000000E+00 0.  1.
          6    2    1    2  501    0  0.15256970363E+03 -0.45613310748E+02 -0.12454665833E+03  0.26532557683E+03  0.17183626811E+03 0.  0.
         24    2    3    3    0    0  0.95759049959E+02 -0.29691216735E+02 -0.30468218607E+01  0.13017653426E+03  0.82977605095E+02 0.  0.
         -6    2    1    2    0  502 -0.15256970363E+03  0.45613310748E+02  0.10796145065E+03  0.26694997804E+03  0.18506357655E+03 0.  0.
        -24    2    5    5    0    0 -0.86378015769E+02  0.74119401966E+01 -0.18351510795E+02  0.11924168957E+03  0.79785362796E+02 0.  0.
          5    1    3    3  501    0  0.56810653671E+02 -0.15922094013E+02 -0.12149983646E+03  0.13514904258E+03  0.47000000000E+01 0. -1.
        -11    1    4    4    0    0  0.14576149959E+02  0.55010282603E+01 -0.33219142282E+02  0.36691100740E+02  0.00000000000E+00 0.  1.
         12    1    4    4    0    0  0.81182899999E+02 -0.35192244995E+02  0.30172320421E+02  0.93485433516E+02  0.00000000000E+00 0. -1.
         -5    1    5    5    0  502 -0.66191687861E+02  0.38201370552E+02  0.12631296145E+03  0.14770828847E+03  0.47000000000E+01 0.  1.
         13    1    6    6    0    0 -0.33192497529E+02  0.22970388889E+00  0.31669042632E+02  0.45877259261E+02  0.00000000000E+00 0. -1.
        -14    1    6    6    0    0 -0.53185518240E+02  0.71822363077E+01 -0.50020553427E+02  0.73364430305E+02  0.00000000000E+00 0.  1.
</event>
<event>
12    1  0.8219652E-002  0.2656582E+03  0.7818608E-02  0.1103820E+00
         21   -1    0    0  503  502  0.00000000000E+00  0.00000000000E+00  0.51460460846E+03  0.51460460846E+03  0.00000000000E+00 0. -1.
         21   -1    0    0  501  503 -0.00000000000E+00 -0.00000000000E+00 -0.18338871565E+03  0.18338871565E+03  0.00000000000E+00 0.  1.
          6    2    1    2  501    0 -0.34433850562E+02 -0.20015073881E+03 -0.98941201968E+01  0.26563895076E+03  0.17093902491E+03 0.  0.
         24    2    3    3    0    0  0.78118007813E+01 -0.10523897830E+03  0.53690261200E+02  0.14374555103E+03  0.81509953430E+02 0.  0.
         -6    2    1    2    0  502  0.34433850562E+02  0.20015073881E+03  0.34111001301E+03  0.43235437335E+03  0.17125494114E+03 0.  0.
        -24    2    5    5    0    0  0.17241239496E+02  0.21925726733E+03  0.27929338906E+03  0.36524230063E+03  0.83822022055E+02 0.  0.
          5    1    3    3  501    0 -0.42245651343E+02 -0.94911760518E+02 -0.63584381397E+02  0.12189339974E+03  0.47000000000E+01 0. -1.
        -13    1    4    4    0    0  0.18019650001E+02 -0.71392955977E+01 -0.14184104250E+02  0.24018037830E+02  0.00000000000E+00 0.  1.
         14    1    4    4    0    0 -0.10207849220E+02 -0.98099682699E+02  0.67874365450E+02  0.11972751320E+03  0.00000000000E+00 0. -1.
         -5    1    5    5    0  502  0.17192611066E+02 -0.19106528518E+02  0.61816623957E+02  0.67112072720E+02  0.47000000000E+01 0.  1.
         11    1    6    6    0    0  0.47783925291E+02  0.10686003957E+03  0.16275432569E+03  0.20047778456E+03  0.00000000000E+00 0. -1.
        -12    1    6    6    0    0 -0.30542685796E+02  0.11239722776E+03  0.11653906337E+03  0.16476451607E+03  0.00000000000E+00 0.  1.
</event>
<event>
12    1  0.8219652E-002  0.1890776E+03  0.7818608E-02  0.1159478E+00
         21   -1    0    0  503  502  0.00000000000E+00  0.00000000000E+00  0.78877462546E+02  0.78877462546E+02  0.00000000000E+00 0. -1.
         21   -1    0    0  501  503 -0.00000000000E+00 -0.00000000000E+00 -0.66813119027E+03  0.66813119027E+03  0.00000000000E+00 0. -1.
          6    2    1    2  501    0  0.20685730759E+01 -0.81067931859E+02 -0.50696997253E+03  0.54080254107E+03  0.16991923616E+03 0.  0.
         24    2    3    3    0    0  0.32589779859E+01 -0.16260389345E+01 -0.39945955965E+03  0.40703778379E+03  0.78093230776E+02 0.  0.
         -6    2    1    2    0  502 -0.20685730759E+01  0.81067931859E+02 -0.82283755201E+02  0.20620611175E+03  0.17080414392E+03 0.  0.
        -24    2    5    5    0    0 -0.21291456754E+02  0.24695724457E+02 -0.11067035492E+03  0.14006055961E+03  0.79409243555E+02 0.  0.
          5    1    3    3  501    0 -0.11904049100E+01 -0.79441892924E+02 -0.10751041287E+03  0.13376475728E+03  0.47000000000E+01 0. -1.
        -11    1    4    4    0    0 -0.20880412686E+02  0.84902907277E+01 -0.34940227964E+02  0.41579997604E+02  0.00000000000E+00 0.  1.
         12    1    4    4    0    0  0.24139390672E+02 -0.10116329662E+02 -0.36451933169E+03  0.36545778618E+03  0.00000000000E+00 0. -1.
         -5    1    5    5    0  502  0.19222883678E+02  0.56372207402E+02  0.28386599718E+02  0.66145552140E+02  0.47000000000E+01 0.  1.
         13    1    6    6    0    0  0.44709776373E+01  0.15768358119E+02  0.80425026137E+01  0.18256850963E+02  0.00000000000E+00 0. -1.
        -14    1    6    6    0    0 -0.25762434391E+02  0.89273663381E+01 -0.11871285753E+03  0.12180370864E+03  0.00000000000E+00 0.  1.
</event>
<event>
12    1  0.8219652E-002  0.1750082E+03  0.7818608E-02  0.1174123E+00
         21   -1    0    0  503  502  0.00000000000E+00  0.00000000000E+00  0.37958539393E+03  0.37958539393E+03  0.00000000000E+00 0. -1.
         21   -1    0    0  501  503 -0.00000000000E+00 -0.00000000000E+00 -0.82407769399E+02  0.82407769399E+02  0.00000000000E+00 0. -1.
          6    2    1    2  501    0  0.34147127210E+02  0.54021622263E+01  0.98517624072E+02  0.20083222756E+03  0.17155946992E+03 0.  0.
         24    2    3    3    0    0  0.46957795412E+02  0.65204717452E+02  0.77132500263E+02  0.13587168299E+03  0.77813892798E+02 0.  0.
         -6    2    1    2    0  502 -0.34147127210E+02 -0.54021622263E+01  0.19866000045E+03  0.26116093576E+03  0.16596393866E+03 0.  0.
        -24    2    5    5    0    0 -0.39242015293E+02  0.57991863850E+02  0.12042995030E+03  0.16023130100E+03  0.79168837638E+02 0.  0.
          5    1    3    3  501    0 -0.12810668202E+02 -0.59802555225E+02  0.21385123809E+02  0.64960544576E+02  0.47000000000E+01 0. -1.
        -11    1    4    4    0    0  0.59022688544E+01 -0.16479870512E+02  0.21561125598E+01  0.17637225720E+02  0.00000000000E+00 0.  1.
         12    1    4    4    0    0  0.41055526558E+02  0.81684587964E+02  0.74976387704E+02  0.11823445727E+03  0.00000000000E+00 0. -1.
         -5    1    5    5    0  502  0.50948880828E+01 -0.63394026077E+02  0.78230050156E+02  0.10092963477E+03  0.47000000000E+01 0.  1.
         13    1    6    6    0    0 -0.13268285070E+02 -0.16967915826E+02  0.87657096087E+01  0.23255004216E+02  0.00000000000E+00 0. -1.
        -14    1    6    6    0    0 -0.25973730223E+02  0.74959779676E+02  0.11166424069E+03  0.13697629678E+03  0.00000000000E+00 0.  1.
</event>
<event>
12    1  0.8219652E-002  0.1895271E+03  0.7818608E-02  0.1158904E+00
         21   -1    0    0  501  502  0.00000000000E+00  0.00000000000E+00  0.34752494547E+03  0.34752494547E+03  0.00000000000E+00 0. -1.
         21   -1    0    0  502  503 -0.00000000000E+00 -0.00000000000E+00 -0.10503866009E+03  0.10503866009E+03  0.00000000000E+00 0. -1.
         -6    2    1    2    0  503  0.24553780820E+02  0.74287111742E+02  0.92356901712E+02  0.21083240867E+03  0.17262399639E+03 0.  0.
        -24    2    3    3    0    0 -0.41777873187E+02  0.14782658847E+02  0.78486560243E+02  0.12052656938E+03  0.80016223961E+02 0.  0.
          6    2    1    2  501    0 -0.24553780820E+02 -0.74287111742E+02  0.15012938367E+03  0.24173119689E+03  0.17255050446E+03 0.  0.
         24    2    5    5    0    0  0.21160886730E+02 -0.89042589612E+02  0.54126989144E+02  0.13427839465E+03  0.82003600062E+02 0.  0.
          5    1    5    5  501    0 -0.45714667550E+02  0.14755477871E+02  0.96002394522E+02  0.10745280225E+03  0.47000000000E+01 0. -1.
        -13    1    6    6    0    0  0.16198486677E+00 -0.98528595310E+02  0.51240258531E+02  0.11105617690E+03  0.00000000000E+00 0.  1.
         14    1    6    6    0    0  0.20998901863E+02  0.94860056973E+01  0.28867306125E+01  0.23222217749E+02  0.00000000000E+00 0. -1.
         -5    1    3    3    0  503  0.66331654008E+02  0.59504452894E+02  0.13870341469E+02  0.90305839291E+02  0.47000000000E+01 0.  1.
         11    1    4    4    0    0 -0.15294079928E+02 -0.29613447208E+02  0.10152944501E+02  0.34841748212E+02  0.00000000000E+00 0. -1.
        -12    1    4    4    0    0 -0.26483793259E+02  0.44396106055E+02  0.68333615741E+02  0.85684821168E+02  0.00000000000E+00 0.  1.
</event>
<event>
12    1  0.8219652E-002  0.1799115E+03  0.7818608E-02  0.1168238E+00
         21   -1    0    0  503  502  0.00000000000E+00  0.00000000000E+00  0.84749587978E+02  0.84749587978E+02  0.00000000000E+00 0. -1.
         21   -1    0    0  501  503 -0.00000000000E+00 -0.00000000000E+00 -0.41801839195E+03  0.41801839195E+03  0.00000000000E+00 0. -1.
          6    2    1    2  501    0 -0.17503167548E+02  0.41769439035E+02 -0.24416056021E+03  0.30328621213E+03  0.17411806452E+03 0.  0.
         24    2    3    3    0    0 -0.27292710815E+02 -0.38437800652E+02 -0.87518189587E+02  0.12696843444E+03  0.78988564060E+02 0.  0.
         -6    2    1    2    0  502  0.17503167548E+02 -0.41769439035E+02 -0.89108243761E+02  0.19948176780E+03  0.17263154308E+03 0.  0.
        -24    2    5    5    0    0  0.46592910138E+02 -0.66122585469E+02 -0.15281782134E+02  0.11634498111E+03  0.82216337666E+02 0.  0.
          5    1    3    3  501    0  0.97895432677E+01  0.80207239687E+02 -0.15664237062E+03  0.17631777769E+03  0.47000000000E+01 0. -1.
        -13    1    4    4    0    0  0.20120813953E+02 -0.55728764977E+01  0.14549859582E+01  0.20928953407E+02  0.00000000000E+00 0.  1.
         14    1    4    4    0    0 -0.47413524768E+02 -0.32864924154E+02 -0.88973175545E+02  0.10603948103E+03  0.00000000000E+00 0. -1.
         -5    1    5    5    0  502 -0.29089742590E+02  0.24353146433E+02 -0.73826461627E+02  0.83136786692E+02  0.47000000000E+01 0.  1.
         11    1    6    6    0    0  0.30972921438E+02 -0.36707476721E+02  0.32579469059E+02  0.58036044953E+02  0.00000000000E+00 0. -1.
        -12    1    6    6    0    0  0.15619988700E+02 -0.29415108748E+02 -0.47861251193E+02  0.58308936154E+02  0.00000000000E+00 0.  1.
</event>
<event>
12    1  0.8219652E-002  0.1780831E+03  0.7818608E-02  0.1169936E+00
         21   -1    0    0  503  502  0.00000000000E+00  0.00000000000E+00  0.45672731929E+03  0.45672731929E+03  0.00000000000E+00 0. -1.
         21   -1    0    0  501  503 -0.00000000000E+00 -0.00000000000E+00 -0.22281033699E+03  0.22281033699E+03  0.00000000000E+00 0. -1.
          6    2    1    2  501    0  0.36658114070E+02 -0.25431508212E+02 -0.16521394716E+03  0.24291814031E+03  0.17240358354E+03 0.  0.
         24    2    3    3    0    0 -0.28802750301E+02 -0.13991996033E+02 -0.15205459573E+03  0.17501198644E+03  0.80518450919E+02 0.  0.
         -6    2    1    2    0  502 -0.36658114070E+02  0.25431508212E+02  0.39913092946E+03  0.43661951597E+03  0.17129075846E+03 0.  0.
        -24    2    5    5    0    0  0.14682348532E+02  0.44706690894E+02  0.11674217988E+03  0.14891676718E+03  0.79581451455E+02 0.  0.
          5    1    3    3  501    0  0.65460864371E+02 -0.11439512179E+02 -0.13159351433E+02  0.67906153869E+02  0.47000000000E+01 0. -1.
        -13    1    4    4    0    0 -0.24381682408E+02  0.24513944751E+02 -0.11948132766E+03  0.12438322871E+03  0.00000000000E+00 0.  1.
         14    1    4    4    0    0 -0.44210678923E+01 -0.38505940784E+02 -0.32573268064E+02  0.50628757731E+02  0.00000000000E+00 0. -1.
         -5    1    5    5    0  502 -0.51340462602E+02 -0.19275182682E+02  0.28238874959E+03  0.28770274879E+03  0.47000000000E+01 0.  1.
         13    1    6    6    0    0  0.23119911822E+02  0.62505787847E+02  0.63120581903E+02  0.91791675532E+02  0.00000000000E+00 0. -1.
        -14    1    6    6    0    0 -0.84375632906E+01 -0.17799096953E+02  0.53621597972E+02  0.57125091647E+02  0.00000000000E+00 0.  1.
</event>
<event>
12    1  0.8219652E-002  0.1800576E+03  0.7818608E-02  0.1168031E+00
         21   -1    0    0  501  502  0.00000000000E+00  0.00000000000E+00  0.10121487173E+03  0.10121487173E+03  0.00000000000E+00 0.  1.
         21   -1    0    0  502  503 -0.00000000000E+00 -0.00000000000E+00 -0.33367643625E+03  0.33367643625E+03  0.00000000000E+00 0. -1.
         -6    2    1    2    0  503  0.10277179593E+02  0.48820740682E+02 -0.16263472650E+03  0.24176824492E+03  0.17179273805E+03 0.  0.
        -24    2    3    3    0    0 -0.25108884587E+02  0.81308924460E+01 -0.16730215956E+03  0.18743858250E+03  0.80290984031E+02 0.  0.
          6    2    1    2  501    0 -0.10277179593E+02 -0.48820740682E+02 -0.69826838011E+02  0.19312306306E+03  0.17300764445E+03 0.  0.
         24    2    5    5    0    0  0.39344267812E+02 -0.37270675903E+02  0.15836854709E+02  0.93343053589E+02  0.74330646401E+02 0.  0.
          5    1    5    5  501    0 -0.49621447404E+02 -0.11550064779E+02 -0.85663692721E+02  0.99780009468E+02  0.47000000000E+01 0. -1.
        -11    1    6    6    0    0 -0.16556269183E+02 -0.18570898115E+02  0.23102487019E+02  0.33951630484E+02  0.00000000000E+00 0.  1.
         12    1    6    6    0    0  0.55900536994E+02 -0.18699777789E+02 -0.72656323100E+01  0.59391423105E+02  0.00000000000E+00 0. -1.
         -5    1    3    3    0  503  0.35386064180E+02  0.40689848236E+02  0.46674330609E+01  0.54329662423E+02  0.47000000000E+01 0.  1.
         11    1    4    4    0    0  0.29127636633E+02 -0.24699478747E+01 -0.59952810520E+02  0.66699770222E+02  0.00000000000E+00 0. -1.
        -12    1    4    4    0    0 -0.54236521220E+02  0.10600840321E+02 -0.10734934904E+03  0.12073881228E+03  0.00000000000E+00 0.  1.
</event>
<event>
12    1  0.8219652E-002  0.1870500E+03  0.7818608E-02  0.1161173E+00
         21   -1    0    0  503  502  0.00000000000E+00  0.00000000000E+00  0.16504360573E+04  0.16504360573E+04  0.00000000000E+00 0.  1.
         21   -1    0    0  501  503 -0.00000000000E+00 -0.00000000000E+00 -0.49440915961E+02  0.49440915961E+02  0.00000000000E+00 0.  1.
          6    2    1    2  501    0  0.45328936610E+02 -0.57361935731E+02  0.15788808920E+03  0.24469806314E+03  0.17205635481E+03 0.  0.
         24    2    3    3    0    0  0.57949211877E+02 -0.10011430118E+03  0.12659316691E+03  0.19003090426E+03  0.81883638216E+02 0.  0.
         -6    2    1    2    0  502 -0.45328936610E+02  0.57361935731E+02  0.14431070522E+04  0.14551789101E+04  0.17217024231E+03 0.  0.
        -24    2    5    5    0    0 -0.62080267481E+02  0.97752953937E+02  0.11906971236E+04  0.11989662963E+04  0.79692784897E+02 0.  0.
          5    1    3    3  501    0 -0.12620275267E+02  0.42752365452E+02  0.31294922284E+02  0.54667158883E+02  0.47000000000E+01 0. -1.
        -11    1    4    4    0    0  0.73241929747E+02 -0.73614630890E+02  0.68584500439E+02  0.12444809301E+03  0.00000000000E+00 0.  1.
         12    1    4    4    0    0 -0.15292717870E+02 -0.26499670292E+02  0.58008666472E+02  0.65582811249E+02  0.00000000000E+00 0. -1.
         -5    1    5    5    0  502  0.16751330871E+02 -0.40391018206E+02  0.25240992854E+03  0.25621261379E+03  0.47000000000E+01 0.  1.
         11    1    6    6    0    0  0.71662390580E+01 -0.14498322716E+01  0.11825718468E+02  0.13903402934E+02  0.00000000000E+00 0. -1.
        -12    1    6    6    0    0 -0.69246506539E+02  0.99202786209E+02  0.11788714051E+04  0.11850628934E+04  0.00000000000E+00 0.  1.
</event>
<event>
12    1  0.8219652E-002  0.1962223E+03  0.7818608E-02  0.1152975E+00
         21   -1    0    0  503  502  0.00000000000E+00  0.00000000000E+00  0.20731967872E+04  0.20731967872E+04  0.00000000000E+00 0. -1.
         21   -1    0    0  501  503 -0.00000000000E+00 -0.00000000000E+00 -0.36306605793E+02  0.36306605793E+02  0.00000000000E+00 0. -1.
          6    2    1    2  501    0  0.36508431182E+02  0.87434219148E+02  0.28124489674E+03  0.34293128163E+03  0.17183004323E+03 0.  0.
         24    2    3    3    0    0 -0.36561734025E+02  0.13550503527E+02  0.10349042212E+03  0.13697789923E+03  0.80822650699E+02 0.  0.
         -6    2    1    2    0  502 -0.36508431182E+02 -0.87434219148E+02  0.17556452847E+04  0.17665721114E+04  0.17178198631E+03 0.  0.
        -24    2    5    5    0    0 -0.53767215265E+01 -0.98272687526E+02  0.16681112761E+04  0.16729187697E+04  0.79847043727E+02 0.  0.
          5    1    3    3  501    0  0.73070165207E+02  0.73883715621E+02  0.17775447462E+03  0.20595338241E+03  0.47000000000E+01 0. -1.
        -11    1    4    4    0    0  0.27082119065E+01 -0.20496767990E+02 -0.54500159952E+00  0.20682092170E+02  0.00000000000E+00 0.  1.
         12    1    4    4    0    0 -0.39269945931E+02  0.34047271517E+02  0.10403542372E+03  0.11629580706E+03  0.00000000000E+00 0. -1.
         -5    1    5    5    0  502 -0.31131709656E+02  0.10838468378E+02  0.87534008551E+02  0.93653341616E+02  0.47000000000E+01 0.  1.
         11    1    6    6    0    0 -0.11328063079E+01 -0.11182270253E+03  0.15292807033E+04  0.15333639717E+04  0.00000000000E+00 0. -1.
        -12    1    6    6    0    0 -0.42439152185E+01  0.13550015000E+02  0.13883057280E+03  0.13955479808E+03  0.00000000000E+00 0.  1.
</event>
<event>
12    1  0.8219652E-002  0.3954599E+03  0.7818608E-02  0.1045409E+00
         21   -1    0    0  503  502  0.00000000000E+00  0.00000000000E+00  0.67951270705E+02  0.67951270705E+02  0.00000000000E+00 0.  1.
         21   -1    0    0  501  503 -0.00000000000E+00 -0.00000000000E+00 -0.24346970903E+04  0.24346970903E+04  0.00000000000E+00 0. -1.
          6    2    1    2  501    0  0.29782788957E+03 -0.19695012843E+03 -0.14801539406E+04  0.15320718649E+04  0.16999325432E+03 0.  0.
         24    2    3    3    0    0  0.24403921147E+03 -0.21243371627E+03 -0.11593484001E+04  0.12063860528E+04  0.81211914730E+02 0.  0.
         -6    2    1    2    0  502 -0.29782788957E+03  0.19695012843E+03 -0.88659187897E+03  0.97057649606E+03  0.16876839146E+03 0.  0.
        -24    2    5    5    0    0 -0.19226675367E+03  0.61862579218E+02 -0.41034170299E+03  0.46438669027E+03  0.80505910424E+02 0.  0.
          5    1    3    3  501    0  0.53788678094E+02  0.15483587840E+02 -0.32080554051E+03  0.32568581210E+03  0.47000000000E+01 0. -1.
        -11    1    4    4    0    0  0.83453359428E+02 -0.12600622782E+03 -0.53874828990E+03  0.55954602359E+03  0.00000000000E+00 0.  1.
         12    1    4    4    0    0  0.16058585205E+03 -0.86427488447E+02 -0.62060011017E+03  0.64684002921E+03  0.00000000000E+00 0. -1.
         -5    1    5    5    0  502 -0.10556113590E+03  0.13508754921E+03 -0.47625017599E+03  0.50618980580E+03  0.47000000000E+01 0.  1.
         11    1    6    6    0    0 -0.10620206261E+03 -0.70939982722E+00 -0.15638315123E+03  0.18903722210E+03  0.00000000000E+00 0. -1.
        -12    1    6    6    0    0 -0.86064691052E+02  0.62571979045E+02 -0.25395855175E+03  0.27534946816E+03  0.00000000000E+00 0.  1.
</event>
<event>
12    1  0.8219652E-002  0.2434628E+03  0.7818608E-02  0.1118008E+00
         21   -1    0    0  503  502  0.00000000000E+00  0.00000000000E+00  0.10481396098E+03  0.10481396098E+03  0.00000000000E+00 0. -1.
         21   -1    0    0  501  503 -0.00000000000E+00 -0.00000000000E+00 -0.60307616509E+03  0.60307616509E+03  0.00000000000E+00 0. -1.
          6    2    1    2  501    0 -0.79955145509E+02  0.14615438150E+03 -0.34392980769E+03  0.41963223604E+03  0.17334812483E+03 0.  0.
         24    2    3    3    0    0 -0.25767668666E+02  0.14328104119E+03 -0.31796652667E+03  0.35929385114E+03  0.82437430022E+02 0.  0.
         -6    2    1    2    0  502  0.79955145509E+02 -0.14615438150E+03 -0.15433239642E+03  0.28825789004E+03  0.17753927469E+03 0.  0.
        -24    2    5    5    0    0  0.60976969476E+01 -0.82310475884E+02 -0.15180880396E+03  0.19048557539E+03  0.80166359060E+02 0.  0.
          5    1    3    3  501    0 -0.54187476844E+02  0.28733403107E+01 -0.25963281015E+02  0.60338384900E+02  0.47000000000E+01 0. -1.
        -13    1    4    4    0    0 -0.21650010533E+02  0.16234140134E+01 -0.74355075077E+02  0.77459896842E+02  0.00000000000E+00 0.  1.
         14    1    4    4    0    0 -0.41176581330E+01  0.14165762717E+03 -0.24361145160E+03  0.28183395429E+03  0.00000000000E+00 0. -1.
         -5    1    5    5    0  502  0.73857448562E+02 -0.63843905612E+02 -0.25235924658E+01  0.97772314644E+02  0.47000000000E+01 0.  1.
         11    1    6    6    0    0  0.31905199919E+02 -0.14414489939E+02 -0.20895282314E+02  0.40771707409E+02  0.00000000000E+00 0. -1.
        -12    1    6    6    0    0 -0.25807502971E+02 -0.67895985945E+02 -0.13091352165E+03  0.14971386798E+03  0.00000000000E+00 0.  1.
</event>
<event>
12    1  0.8219652E-002  0.1894724E+03  0.7818608E-02  0.1159120E+00
         21   -1    0    0  501  502  0.00000000000E+00  0.00000000000E+00  0.38227166396E+03  0.38227166396E+03  0.00000000000E+00 0. -1.
         21   -1    0    0  502  503 -0.00000000000E+00 -0.00000000000E+00 -0.21126197383E+04  0.21126197383E+04  0.00000000000E+00 0. -1.
         -6    2    1    2    0  503  0.65290592967E+02  0.44319248937E+02 -0.20847793383E+04  0.20933716072E+04  0.17225776848E+03 0.  0.
        -24    2    3    3    0    0  0.66785737854E+02 -0.32031538897E+02 -0.10233215242E+04  0.10291599461E+04  0.80603341161E+02 0.  0.
          6    2    1    2  501    0 -0.65290592967E+02 -0.44319248937E+02  0.35443126393E+03  0.40151979515E+03  0.17137551659E+03 0.  0.
         24    2    5    5    0    0  0.33282542247E+02 -0.23802977573E+02  0.16261462637E+03  0.18483271011E+03  0.77751557265E+02 0.  0.
          5    1    5    5  501    0 -0.98573135214E+02 -0.20516271364E+02  0.19181663756E+03  0.21668708504E+03  0.47000000000E+01 0. -1.
        -13    1    6    6    0    0  0.16910053716E+02 -0.29229452303E+02  0.16285225942E+02  0.37490257169E+02  0.00000000000E+00 0.  1.
         14    1    6    6    0    0  0.16372488531E+02  0.54264747306E+01  0.14632940043E+03  0.14734245294E+03  0.00000000000E+00 0. -1.
         -5    1    3    3    0  503 -0.14951448877E+01  0.76350787834E+02 -0.10614578141E+04  0.10642116610E+04  0.47000000000E+01 0.  1.
         13    1    4    4    0    0  0.84360937818E+02 -0.35455018155E+02 -0.86746919620E+03  0.87228242703E+03  0.00000000000E+00 0. -1.
        -14    1    4    4    0    0 -0.17575199964E+02  0.34234792576E+01 -0.15585232799E+03  0.15687751911E+03  0.00000000000E+00 0.  1.
</event>
<event>
12    1  0.8219652E-002  0.3045765E+03  0.7818608E-02  0.1083054E+00
         21   -1    0    0  503  502  0.00000000000E+00  0.00000000000E+00  0.45641799851E+03  0.45641799851E+03  0.00000000000E+00 0. -1.
         21   -1    0    0  501  503 -0.00000000000E+00 -0.00000000000E+00 -0.20326126637E+03  0.20326126637E+03  0.00000000000E+00 0.  1.
          6    2    1    2  501    0 -0.23977319470E+03  0.72575683519E+02  0.11135930559E+03  0.32429573004E+03  0.17322935909E+03 0.  0.
         24    2    3    3    0    0 -0.17567700367E+03  0.48018830512E+02  0.71272913400E+01  0.19940472345E+03  0.80890220362E+02 0.  0.
         -6    2    1    2    0  502  0.23977319470E+03 -0.72575683519E+02  0.14179742655E+03  0.33538353483E+03  0.17209645704E+03 0.  0.
        -24    2    5    5    0    0  0.14795378663E+03 -0.14263777880E+02  0.15140480938E+03  0.22608818342E+03  0.78093994884E+02 0.  0.
          5    1    3    3  501    0 -0.64096191031E+02  0.24556853007E+02  0.10423201425E+03  0.12489100660E+03  0.47000000000E+01 0. -1.
        -13    1    4    4    0    0 -0.13011222684E+03  0.12795867837E+02  0.35113627799E+02  0.13537316080E+03  0.00000000000E+00 0.  1.
         14    1    4    4    0    0 -0.45564776820E+02  0.35222962674E+02 -0.27986336459E+02  0.64031562644E+02  0.00000000000E+00 0. -1.
         -5    1    5    5    0  502  0.91819408064E+02 -0.58311905638E+02 -0.96073828333E+01  0.10929535142E+03  0.47000000000E+01 0.  1.
         13    1    6    6    0    0  0.24982517718E+02  0.28210244400E+02  0.37693036733E+02  0.53298302963E+02  0.00000000000E+00 0. -1.
        -14    1    6    6    0    0  0.12297126891E+03 -0.42474022280E+02  0.11371177265E+03  0.17278988045E+03  0.00000000000E+00 0.  1.
</event>
<event>
12    1  0.8219652E-002  0.3100193E+03  0.7818608E-02  0.1080407E+00
         21   -1    0    0  503  502  0.00000000000E+00  0.00000000000E+00  0.57880830149E+03  0.57880830149E+03  0.00000000000E+00 0.  1.
         21   -1    0    0  501  503 -0.00000000000E+00 -0.00000000000E+00 -0.37142374476E+03  0.37142374476E+03  0.00000000000E+00 0. -1.
          6    2    1    2  501    0 -0.17577409436E+03 -0.18878178016E+03 -0.24991592202E+03  0.39775063306E+03  0.17091666170E+03 0.  0.
         24    2    3    3    0    0 -0.46566983297E+02 -0.36700667328E+02 -0.40923743946E+02  0.10874723701E+03  0.81460332819E+02 0.  0.
         -6    2    1    2    0  502  0.17577409436E+03  0.18878178016E+03  0.45730047875E+03  0.55248141320E+03  0.17197933392E+03 0.  0.
        -24    2    5    5    0    0  0.18404097869E+03  0.19374655202E+03  0.36493482098E+03  0.45949488153E+03  0.80927834106E+02 0.  0.
          5    1    3    3  501    0 -0.12920711106E+03 -0.15208111284E+03 -0.20899217808E+03  0.28900339605E+03  0.47000000000E+01 0. -1.
        -13    1    4    4    0    0 -0.72167789890E+01 -0.39182182536E+01  0.24396828768E+02  0.25741786791E+02  0.00000000000E+00 0.  1.
         14    1    4    4    0    0 -0.39350204308E+02 -0.32782449074E+02 -0.65320572714E+02  0.83005450219E+02  0.00000000000E+00 0. -1.
         -5    1    5    5    0  502 -0.82668843301E+01 -0.49647718572E+01  0.92365657775E+02  0.92986531672E+02  0.47000000000E+01 0.  1.
         13    1    6    6    0    0  0.87632109625E+02  0.11011602092E+03  0.12733588247E+03  0.18978764888E+03  0.00000000000E+00 0. -1.
        -14    1    6    6    0    0  0.96408869060E+02  0.83630531098E+02  0.23759893851E+03  0.26970723265E+03  0.00000000000E+00 0.  1.
</event>
<event>
12    1  0.8219652E-002  0.3093776E+03  0.7818608E-02  0.1080678E+00
         21   -1    0    0  501  502  0.00000000000E+00  0.00000000000E+00  0.10939387212E+03  0.10939387212E+03  0.00000000000E+00 0. -1.
         21   -1    0    0  502  503 -0.00000000000E+00 -0.00000000000E+00 -0.91744899715E+03  0.91744899715E+03  0.00000000000E+00 0.  1.
         -6    2    1    2    0  503 -0.25631013161E+03 -0.22952751832E+02 -0.51571251801E+03  0.60139331875E+03  0.17173470884E+03 0.  0.
        -24    2    3    3    0    0 -0.11263566210E+03  0.19529006918E+02 -0.14210339844E+03  0.19883535119E+03  0.79208247978E+02 0.  0.
          6    2    1    2  501    0  0.25631013161E+03  0.22952751832E+02 -0.29234260701E+03  0.42544955052E+03  0.17123494906E+03 0.  0.
         24    2    5    5    0    0  0.66552697467E+02  0.49803337265E+02 -0.84399082418E+02  0.14262197554E+03  0.79424107487E+02 0.  0.
          5    1    5    5  501    0  0.18975743415E+03 -0.26850585433E+02 -0.20794352459E+03  0.28282757499E+03  0.47000000000E+01 0. -1.
        -13    1    6    6    0    0  0.62709790921E+01  0.15386443858E+02 -0.69719498587E+02  0.71672005111E+02  0.00000000000E+00 0.  1.
         14    1    6    6    0    0  0.60281718375E+02  0.34416893407E+02 -0.14679583831E+02  0.70949970426E+02  0.00000000000E+00 0. -1.
         -5    1    3    3    0  503 -0.14367446951E+03 -0.42481758750E+02 -0.37360911957E+03  0.40255796755E+03  0.47000000000E+01 0.  1.
         13    1    4    4    0    0 -0.95395976339E+02 -0.31205821977E+01 -0.14110357105E+03  0.17035359726E+03  0.00000000000E+00 0. -1.
        -14    1    4    4    0    0 -0.17239685765E+02  0.22649589116E+02 -0.99982738455E+00  0.28481753935E+02  0.00000000000E+00 0.  1.
</event>
<event>
12    1  0.8219652E-002  0.3326790E+03  0.7818608E-02  0.1070164E+00
         21   -1    0    0  503  502  0.00000000000E+00  0.00000000000E+00  0.54724132459E+03  0.54724132459E+03  0.00000000000E+00 0.  1.
         21   -1    0    0  501  503 -0.00000000000E+00 -0.00000000000E+00 -0.31988288669E+03  0.31988288669E+03  0.00000000000E+00 0. -1.
          6    2    1    2  501    0 -0.99252348528E+02 -0.26741386880E+03 -0.15072065458E+03  0.36351812410E+03  0.16753359340E+03 0.  0.
         24    2    3    3    0    0 -0.63082212958E+02 -0.27435003690E+03 -0.12436227920E+03  0.31798524490E+03  0.80008319252E+02 0.  0.
         -6    2    1    2    0  502  0.99252348528E+02  0.26741386880E+03  0.37807909248E+03  0.50360608718E+03  0.17121356534E+03 0.  0.
        -24    2    5    5    0    0  0.84522575954E+02  0.18861077062E+03  0.19268771209E+03  0.30156908957E+03  0.10534359377E+03 0.  0.
          5    1    3    3  501    0 -0.36170135570E+02  0.69361681043E+01 -0.26358375375E+02  0.45532879192E+02  0.47000000000E+01 0. -1.
        -11    1    4    4    0    0 -0.40747448726E+02 -0.91852254080E+02 -0.89017117948E+01  0.10087830109E+03  0.00000000000E+00 0.  1.
         12    1    4    4    0    0 -0.22334764232E+02 -0.18249778282E+03 -0.11546056741E+03  0.21710694382E+03  0.00000000000E+00 0. -1.
         -5    1    5    5    0  502  0.14729772575E+02  0.78803098174E+02  0.18539138039E+03  0.20203699761E+03  0.47000000000E+01 0.  1.
         13    1    6    6    0    0  0.64953390590E+01  0.13465948958E+03  0.13364621227E+03  0.18983328901E+03  0.00000000000E+00 0. -1.
        -14    1    6    6    0    0  0.78027236895E+02  0.53951281045E+02  0.59041499820E+02  0.11173580055E+03  0.00000000000E+00 0.  1.
</event>
<event>
12    1  0.8219652E-002  0.1887017E+03  0.7818608E-02  0.1159738E+00
         21   -1    0    0  503  502  0.00000000000E+00  0.00000000000E+00  0.63646488784E+03  0.63646488784E+03  0.00000000000E+00 0. -1.
         21   -1    0    0  501  503 -0.00000000000E+00 -0.00000000000E+00 -0.60911105156E+02  0.60911105156E+02  0.00000000000E+00 0.  1.
          6    2    1    2  501    0 -0.44400572284E+02 -0.65974366136E+02  0.18724213734E+03  0.26583441414E+03  0.17112653196E+03 0.  0.
         24    2    3    3    0    0 -0.56170792160E+02 -0.37474311365E+02  0.20442822282E+03  0.23022201838E+03  0.81558552930E+02 0.  0.
         -6    2    1    2    0  502  0.44400572284E+02  0.65974366136E+02  0.38831164534E+03  0.43154157886E+03  0.17064047751E+03 0.  0.
        -24    2    5    5    0    0  0.25951706647E+02  0.14771264383E+02  0.35645205483E+03  0.36830202019E+03  0.87730435743E+02 0.  0.
          5    1    3    3  501    0  0.11770219877E+02 -0.28500054771E+02 -0.17186085480E+02  0.35612395764E+02  0.47000000000E+01 0. -1.
        -13    1    4    4    0    0 -0.29009949411E+02 -0.45340053837E+02  0.50799818512E+02  0.74012966483E+02  0.00000000000E+00 0.  1.
         14    1    4    4    0    0 -0.27160842750E+02  0.78657424721E+01  0.15362840431E+03  0.15620905189E+03  0.00000000000E+00 0. -1.
         -5    1    5    5    0  502  0.18448865636E+02  0.51203101753E+02  0.31859590517E+02  0.63239558666E+02  0.47000000000E+01 0.  1.
         13    1    6    6    0    0  0.75389517979E+00  0.21659307293E+02  0.16223322993E+02  0.27071944136E+02  0.00000000000E+00 0. -1.
        -14    1    6    6    0    0  0.25197811467E+02 -0.68880429103E+01  0.34022873183E+03  0.34123007605E+03  0.00000000000E+00 0.  1.
</event>
<event>
12    1  0.8219652E-002  0.2226209E+03  0.7818608E-02  0.1132388E+00
         21   -1    0    0  503  502  0.00000000000E+00  0.00000000000E+00  0.61542942614E+02  0.61542942614E+02  0.00000000000E+00 0. -1.
         21   -1    0    0  501  503 -0.00000000000E+00 -0.00000000000E+00 -0.92586478335E+03  0.92586478335E+03  0.00000000000E+00 0.  1.
          6    2    1    2  501    0 -0.18749269733E+02 -0.13720304042E+03 -0.61460222596E+03  0.65286331934E+03  0.17122619008E+03 0.  0.
         24    2    3    3    0    0  0.19998384613E+02 -0.76768169377E+01 -0.28302596059E+03  0.29475253614E+03  0.79476375662E+02 0.  0.
         -6    2    1    2    0  502  0.18749269733E+02  0.13720304042E+03 -0.24971961477E+03  0.33454440662E+03  0.17430968012E+03 0.  0.
        -24    2    5    5    0    0 -0.80725250277E+01  0.15523261940E+03 -0.24706271421E+03  0.30177821196E+03  0.76601388185E+02 0.  0.
          5    1    3    3  501    0 -0.38747654346E+02 -0.12952622348E+03 -0.33157626537E+03  0.35811078320E+03  0.47000000000E+01 0. -1.
        -11    1    4    4    0    0  0.31445575278E+02 -0.37811470330E+02 -0.19157344460E+03  0.19778502514E+03  0.00000000000E+00 0.  1.
         12    1    4    4    0    0 -0.11447190665E+02  0.30134653392E+02 -0.91452515990E+02  0.96967511002E+02  0.00000000000E+00 0. -1.
         -5    1    5    5    0  502  0.26821794760E+02 -0.18029578980E+02 -0.26569005620E+01  0.32766194667E+02  0.47000000000E+01 0.  1.
         13    1    6    6    0    0 -0.30421221964E+02  0.23817823124E+02 -0.40805856889E+02  0.56194816492E+02  0.00000000000E+00 0. -1.
        -14    1    6    6    0    0  0.22348696936E+02  0.13141479628E+03 -0.20625685732E+03  0.24558339546E+03  0.00000000000E+00 0.  1.
</event>
<event>
12    1  0.8219652E-002  0.1917454E+03  0.7818608E-02  0.1157067E+00
         21   -1    0    0  503  502  0.00000000000E+00  0.00000000000E+00  0.66750985650E+02  0.66750985650E+02  0.00000000000E+00 0.  1.
         21   -1    0    0  501  503 -0.00000000000E+00 -0.00000000000E+00 -0.56291699119E+03  0.56291699119E+03  0.00000000000E+00 0. -1.
          6    2    1    2  501    0 -0.77157185270E+02  0.30778826061E+02 -0.19835880901E+03  0.27588496576E+03  0.17281704154E+03 0.  0.
         24    2    3    3    0    0 -0.41364854397E+02  0.49357562077E+02 -0.20983529345E+03  0.23369420757E+03  0.80217904235E+02 0.  0.
         -6    2    1    2    0  502  0.77157185270E+02 -0.30778826061E+02 -0.29780719653E+03  0.35378301109E+03  0.17196722146E+03 0.  0.
        -24    2    5    5    0    0 -0.10071274788E+02  0.98340344742E+01 -0.67459220056E+02  0.10410223700E+03  0.78028139584E+02 0.  0.
          5    1    3    3  501    0 -0.35792330873E+02 -0.18578736016E+02  0.11476484440E+02  0.42190758187E+02  0.47000000000E+01 0. -1.
        -13    1    4    4    0    0 -0.15518000001E+02 -0.19224035911E+02 -0.26388165120E+02  0.36148404379E+02  0.00000000000E+00 0.  1.
         14    1    4    4    0    0 -0.25846854396E+02  0.68581597988E+02 -0.18344712833E+03  0.19754580319E+03  0.00000000000E+00 0. -1.
         -5    1    5    5    0  502  0.87228460058E+02 -0.40612860535E+02 -0.23034797647E+03  0.24968077409E+03  0.47000000000E+01 0.  1.
         11    1    6    6    0    0 -0.38570341743E+02 -0.14949025471E+02 -0.38496460815E+02  0.56507717349E+02  0.00000000000E+00 0. -1.
        -12    1    6    6    0    0  0.28499066954E+02  0.24783059946E+02 -0.28962759242E+02  0.47594519647E+02  0.00000000000E+00 0.  1.
</event>
<event>
12    1  0.8219652E-002  0.2635973E+03  0.7818608E-02  0.1105514E+00
         21   -1    0    0  503  502  0.00000000000E+00  0.00000000000E+00  0.41327123821E+03  0.41327123821E+03  0.00000000000E+00 0. -1.
         21   -1    0    0  501  503 -0.00000000000E+00 -0.00000000000E+00 -0.26921793719E+03  0.26921793719E+03  0.00000000000E+00 0. -1.
          6    2    1    2  501    0  0.12492708643E+03  0.15603518223E+03 -0.13903980015E+03  0.29801947323E+03  0.17184232710E+03 0.  0.
         24    2    3    3    0    0  0.10848612517E+03  0.59929467331E+02 -0.67021689325E+02  0.17671278780E+03  0.10665234232E+03 0.  0.
         -6    2    1    2    0  502 -0.12492708643E+03 -0.15603518223E+03  0.28309310118E+03  0.38446970216E+03  0.16649772650E+03 0.  0.
        -24    2    5    5    0    0 -0.74229117527E+02 -0.17262100959E+03  0.20517906397E+03  0.28992838361E+03  0.81560066764E+02 0.  0.
          5    1    3    3  501    0  0.16440961263E+02  0.96105714902E+02 -0.72018110829E+02  0.12130668544E+03  0.47000000000E+01 0. -1.
        -11    1    4    4    0    0 -0.13194307104E+02 -0.83522480426E+01 -0.27616285071E+02  0.31725525818E+02  0.00000000000E+00 0.  1.
         12    1    4    4    0    0  0.12168043227E+03  0.68281715373E+02 -0.39405404254E+02  0.14498726198E+03  0.00000000000E+00 0. -1.
         -5    1    5    5    0  502 -0.50697968904E+02  0.16585827354E+02  0.77914037208E+02  0.94541318555E+02  0.47000000000E+01 0.  1.
         11    1    6    6    0    0 -0.78987194168E+02 -0.16134575128E+03  0.15187996019E+03  0.23524232316E+03  0.00000000000E+00 0. -1.
        -12    1    6    6    0    0  0.47580766411E+01 -0.11275258303E+02  0.53299103784E+02  0.54686060448E+02  0.00000000000E+00 0.  1.
</event>
<event>
12    1  0.8219652E-002  0.2202780E+03  0.7818608E-02  0.1134157E+00
         21   -1    0    0  501  502  0.00000000000E+00  0.00000000000E+00  0.81410236727E+03  0.81410236727E+03  0.00000000000E+00 0.  1.
         21   -1    0    0  502  503 -0.00000000000E+00 -0.00000000000E+00 -0.78389658899E+02  0.78389658899E+02  0.00000000000E+00 0. -1.
         -6    2    1    2    0  503  0.11239032090E+03 -0.74864519701E+02  0.14377831645E+03  0.26089981428E+03  0.17076366204E+03 0.  0.
        -24    2    3    3    0    0  0.11510961923E+03 -0.66097428953E+02  0.44450735447E+02  0.16103833617E+03  0.79613964108E+02 0.  0.
          6    2    1    2  501    0 -0.11239032090E+03  0.74864519701E+02  0.59193439193E+03  0.63159221189E+03  0.17402907007E+03 0.  0.
         24    2    5    5    0    0 -0.77048138466E+02  0.83652200422E+02  0.24879213147E+03  0.28649078606E+03  0.85119560289E+02 0.  0.
          5    1    5    5  501    0 -0.35342182429E+02 -0.87876807209E+01  0.34314226046E+03  0.34510142583E+03  0.47000000000E+01 0. -1.
        -11    1    6    6    0    0 -0.91186054320E+02  0.80920607400E+02  0.24108772982E+03  0.27015983172E+03  0.00000000000E+00 0.  1.
         12    1    6    6    0    0  0.14137915854E+02  0.27315930222E+01  0.77044016473E+01  0.16330954347E+02  0.00000000000E+00 0. -1.
         -5    1    3    3    0  503 -0.27192983369E+01 -0.87670907485E+01  0.99327580998E+02  0.99861478112E+02  0.47000000000E+01 0.  1.
         11    1    4    4    0    0  0.64750134175E+02 -0.38266160230E+02  0.65535337408E+02  0.99758505118E+02  0.00000000000E+00 0. -1.
        -12    1    4    4    0    0  0.50359485058E+02 -0.27831268723E+02 -0.21084601960E+02  0.61279831053E+02  0.00000000000E+00 0.  1.
</event>
<event>
12    1  0.8219652E-002  0.1797745E+03  0.7818608E-02  0.1168089E+00
         21   -1    0    0  501  502  0.00000000000E+00  0.00000000000E+00  0.38944051158E+03  0.38944051158E+03  0.00000000000E+00 0. -1.
         21   -1    0    0  502  503 -0.00000000000E+00 -0.00000000000E+00 -0.13829825133E+03  0.13829825133E+03  0.00000000000E+00 0. -1.
         -6    2    1    2    0  503 -0.15530199018E+02  0.44369695711E+02  0.29257799865E+03  0.34325089410E+03  0.17323231230E+03 0.  0.
        -24    2    3    3    0    0 -0.25370878858E+02  0.42299300059E+02  0.30868212392E+03  0.32369179471E+03  0.84016736772E+02 0.  0.
          6    2    1    2  501    0  0.15530199018E+02 -0.44369695711E+02 -0.41435738406E+02  0.18448786881E+03  0.17351944082E+03 0.  0.
         24    2    5    5    0    0  0.68242089781E+02 -0.51183330144E+02  0.99696714374E+00  0.11631460762E+03  0.79065655625E+02 0.  0.
          5    1    5    5  501    0 -0.52711890763E+02  0.68136344330E+01 -0.42432705550E+02  0.68173261197E+02  0.47000000000E+01 0. -1.
        -13    1    6    6    0    0  0.51539593230E+00 -0.27153748743E+02 -0.27829465854E+02  0.38885355514E+02  0.00000000000E+00 0.  1.
         14    1    6    6    0    0  0.67726693848E+02 -0.24029581401E+02  0.28826432997E+02  0.77429252103E+02  0.00000000000E+00 0. -1.
         -5    1    3    3    0  503  0.98406798399E+01  0.20703956525E+01 -0.16104125271E+02  0.19559099382E+02  0.47000000000E+01 0.  1.
         13    1    4    4    0    0 -0.33512090427E+02 -0.16671032382E+02  0.13489845414E+03  0.13999491582E+03  0.00000000000E+00 0. -1.
        -14    1    4    4    0    0  0.81412115692E+01  0.58970332441E+02  0.17378366978E+03  0.18369687890E+03  0.00000000000E+00 0.  1.
</event>
<event>
12    1  0.8219652E-002  0.2093807E+03  0.7818608E-02  0.1142741E+00
         21   -1    0    0  503  502  0.00000000000E+00  0.00000000000E+00  0.13362757166E+03  0.13362757166E+03  0.00000000000E+00 0.  1.
         21   -1    0    0  501  503 -0.00000000000E+00 -0.00000000000E+00 -0.33769225755E+03  0.33769225755E+03  0.00000000000E+00 0. -1.
          6    2    1    2  501    0  0.67963299173E+02  0.92080452711E+02 -0.51669885444E+02  0.21235177290E+03  0.17124741921E+03 0.  0.
         24    2    3    3    0    0 -0.64228526873E+01  0.83842530643E+02  0.89591821859E+01  0.11591974093E+03  0.79286167833E+02 0.  0.
         -6    2    1    2    0  502 -0.67963299173E+02 -0.92080452711E+02 -0.15239480044E+03  0.25896805632E+03  0.17533527650E+03 0.  0.
        -24    2    5    5    0    0  0.14305531259E+02 -0.93598627379E+02 -0.69554488454E+02  0.14211313513E+03  0.79956019418E+02 0.  0.
          5    1    3    3  501    0  0.74386151860E+02  0.82379220678E+01 -0.60629067630E+02  0.96432031972E+02  0.47000000000E+01 0. -1.
        -11    1    4    4    0    0  0.22505699263E+02  0.78283808556E+02  0.20964928543E+02  0.84109389548E+02  0.00000000000E+00 0.  1.
         12    1    4    4    0    0 -0.28928551950E+02  0.55587220868E+01 -0.12005746357E+02  0.31810351378E+02  0.00000000000E+00 0. -1.
         -5    1    5    5    0  502 -0.82268830432E+02  0.15181746682E+01 -0.82840311990E+02  0.11685492119E+03  0.47000000000E+01 0.  1.
         13    1    6    6    0    0 -0.17831042248E+02 -0.10664166279E+02 -0.45431241926E+02  0.49956663750E+02  0.00000000000E+00 0. -1.
        -14    1    6    6    0    0  0.32136573507E+02 -0.82934461100E+02 -0.24123246528E+02  0.92156471383E+02  0.00000000000E+00 0.  1.
</event>
<event>
12    1  0.8219652E-002  0.2018242E+03  0.7818608E-02  0.1148407E+00
         21   -1    0    0  501  502  0.00000000000E+00  0.00000000000E+00  0.25757670003E+02  0.25757670003E+02  0.00000000000E+00 0. -1.
         21   -1    0    0  502  503 -0.00000000000E+00 -0.00000000000E+00 -0.17336800638E+04  0.17336800638E+04  0.00000000000E+00 0. -1.
         -6    2    1    2    0  503 -0.52017891253E+02 -0.89828829748E+02 -0.11227902302E+04  0.11407852089E+04  0.17308354068E+03 0.  0.
        -24    2    3    3    0    0 -0.32397586754E+01 -0.11419895343E+03 -0.92695398266E+03  0.93744525952E+03  0.80672372164E+02 0.  0.
          6    2    1    2  501    0  0.52017891253E+02  0.89828829748E+02 -0.58513216354E+03  0.61865252488E+03  0.17197737664E+03 0.  0.
         24    2    5    5    0    0  0.80180239862E+02  0.75122935175E+02 -0.27049434397E+03  0.30237981232E+03  0.78702188802E+02 0.  0.
          5    1    5    5  501    0 -0.28162348609E+02  0.14705894573E+02 -0.31463781957E+03  0.31627271257E+03  0.47000000000E+01 0. -1.
        -13    1    6    6    0    0  0.79570677136E+02  0.26670605095E+02 -0.19942270453E+03  0.21636133878E+03  0.00000000000E+00 0.  1.
         14    1    6    6    0    0  0.60956272589E+00  0.48452330080E+02 -0.71071639443E+02  0.86018473539E+02  0.00000000000E+00 0. -1.
         -5    1    3    3    0  503 -0.48778132578E+02  0.24370123683E+02 -0.19583624758E+03  0.20333994938E+03  0.47000000000E+01 0.  1.
         11    1    4    4    0    0  0.21232238591E+02 -0.11340048628E+03 -0.76350029156E+03  0.77216784021E+03  0.00000000000E+00 0. -1.
        -12    1    4    4    0    0 -0.24471997266E+02 -0.79846715225E+00 -0.16345369110E+03  0.16527741931E+03  0.00000000000E+00 0.  1.
</event>
<event>
12    1  0.8219652E-002  0.1749452E+03  0.7818608E-02  0.1172847E+00
         21   -1    0    0  503  502  0.00000000000E+00  0.00000000000E+00  0.31947491704E+03  0.31947491704E+03  0.00000000000E+00 0.  1.
         21   -1    0    0  501  503 -0.00000000000E+00 -0.00000000000E+00 -0.16966067909E+03  0.16966067909E+03  0.00000000000E+00 0.  1.
          6    2    1    2  501    0  0.24809844868E+02 -0.16125327936E+02 -0.86631352724E+02  0.19500577729E+03  0.17218219216E+03 0.  0.
         24    2    3    3    0    0  0.36426810029E+02 -0.32950729175E+02  0.11270703610E+02  0.94881101800E+02  0.80391116903E+02 0.  0.
         -6    2    1    2    0  502 -0.24809844868E+02  0.16125327936E+02  0.23644559068E+03  0.29412981884E+03  0.17242470350E+03 0.  0.
        -24    2    5    5    0    0  0.80145939854E+01  0.15585263869E+02  0.35984114963E+02  0.90943626643E+02  0.81662430350E+02 0.  0.
          5    1    3    3  501    0 -0.11616965161E+02  0.16825401239E+02 -0.97902056334E+02  0.10012467548E+03  0.47000000000E+01 0. -1.
        -11    1    4    4    0    0  0.14991445570E+02 -0.51508363217E+02 -0.15548835260E+02  0.55853569263E+02  0.00000000000E+00 0.  1.
         12    1    4    4    0    0  0.21435364459E+02  0.18557634041E+02  0.26819538870E+02  0.39027532537E+02  0.00000000000E+00 0. -1.
         -5    1    5    5    0  502 -0.32824438853E+02  0.54006406696E+00  0.20046147571E+03  0.20318619220E+03  0.47000000000E+01 0.  1.
         13    1    6    6    0    0  0.27015206511E+02 -0.61578125190E+01  0.51265283469E+02  0.58274087955E+02  0.00000000000E+00 0. -1.
        -14    1    6    6    0    0 -0.19000612525E+02  0.21743076388E+02 -0.15281168506E+02  0.32669538688E+02  0.00000000000E+00 0.  1.
</event>
<event>
12    1  0.8219652E-002  0.1916271E+03  0.7818608E-02  0.1157018E+00
         21   -1    0    0  503  502  0.00000000000E+00  0.00000000000E+00  0.39386812563E+03  0.39386812563E+03  0.00000000000E+00 0.  1.
         21   -1    0    0  501  503 -0.00000000000E+00 -0.00000000000E+00 -0.65827822339E+03  0.65827822339E+03  0.00000000000E+00 0.  1.
          6    2    1    2  501    0  0.67695395813E+02 -0.52535163107E+02 -0.61962126221E+03  0.64857649168E+03  0.17140112896E+03 0.  0.
         24    2    3    3    0    0 -0.16065641876E+02 -0.59947757461E+02 -0.41727505664E+03  0.42940319291E+03  0.80104873204E+02 0.  0.
         -6    2    1    2    0  502 -0.67695395813E+02  0.52535163107E+02  0.35521116445E+03  0.40356985733E+03  0.17132147684E+03 0.  0.
        -24    2    5    5    0    0  0.27603627068E+02  0.41810956364E+02  0.15789123339E+03  0.18412930146E+03  0.80398020958E+02 0.  0.
          5    1    3    3  501    0  0.83761037689E+02  0.74125943540E+01 -0.20234620556E+03  0.21917329877E+03  0.47000000000E+01 0. -1.
        -11    1    4    4    0    0  0.16661396552E+02 -0.44098778380E+02 -0.34786818364E+03  0.35104782805E+03  0.00000000000E+00 0.  1.
         12    1    4    4    0    0 -0.32727038429E+02 -0.15848979081E+02 -0.69406873004E+02  0.78355364861E+02  0.00000000000E+00 0. -1.
         -5    1    5    5    0  502 -0.95299022881E+02  0.10724206743E+02  0.19731993106E+03  0.21944055588E+03  0.47000000000E+01 0.  1.
         11    1    6    6    0    0 -0.26011112773E+02  0.20080755748E+01  0.29278042547E+02  0.39214973296E+02  0.00000000000E+00 0. -1.
        -12    1    6    6    0    0  0.53614739842E+02  0.39802880789E+02  0.12861319084E+03  0.14491432816E+03  0.00000000000E+00 0.  1.
</event>
<event>
12    1  0.8219652E-002  0.2374605E+03  0.7818608E-02  0.1121634E+00
         21   -1    0    0  501  502  0.00000000000E+00  0.00000000000E+00  0.26056556040E+03  0.26056556040E+03  0.00000000000E+00 0. -1.
         21   -1    0    0  502  503 -0.00000000000E+00 -0.00000000000E+00 -0.28781604045E+03  0.28781604045E+03  0.00000000000E+00 0.  1.
         -6    2    1    2    0  503 -0.89558181400E+02  0.13650927745E+03 -0.15092874284E+03  0.28136626768E+03  0.17242981321E+03 0.  0.
        -24    2    3    3    0    0  0.15235495010E+02  0.70911111865E+02 -0.35352443586E+02  0.11205943115E+03  0.77762553638E+02 0.  0.
          6    2    1    2  501    0  0.89558181400E+02 -0.13650927745E+03  0.12367826279E+03  0.26701533318E+03  0.17130506350E+03 0.  0.
         24    2    5    5    0    0  0.29017985860E+02 -0.12214263941E+02  0.88879745562E+02  0.12437104671E+03  0.81100655623E+02 0.  0.
          5    1    5    5  501    0  0.60540195541E+02 -0.12429501351E+03  0.34798517228E+02  0.14264428647E+03  0.47000000000E+01 0. -1.
        -13    1    6    6    0    0  0.20561236883E+02 -0.31578193389E+02  0.51694419791E+01  0.38035113911E+02  0.00000000000E+00 0.  1.
         14    1    6    6    0    0  0.84567489769E+01  0.19363929448E+02  0.83710303583E+02  0.86335932803E+02  0.00000000000E+00 0. -1.
         -5    1    3    3    0  503 -0.10479367641E+03  0.65598165589E+02 -0.11557629925E+03  0.16930683652E+03  0.47000000000E+01 0.  1.
         13    1    4    4    0    0  0.11507184704E+02 -0.56525089442E+01  0.15466734895E+02  0.20089451100E+02  0.00000000000E+00 0. -1.
        -14    1    4    4    0    0  0.37283103060E+01  0.76563620809E+02 -0.50819178481E+02  0.91969980052E+02  0.00000000000E+00 0.  1.
</event>
<event>
12    1  0.8219652E-002  0.1960201E+03  0.7818608E-02  0.1154520E+00
         21   -1    0    0  501  502  0.00000000000E+00  0.00000000000E+00  0.22824455812E+03  0.22824455812E+03  0.00000000000E+00 0. -1.
         21   -1    0    0  502  503 -0.00000000000E+00 -0.00000000000E+00 -0.16310834976E+03  0.16310834976E+03  0.00000000000E+00 0. -1.
         -6    2    1    2    0  503 -0.72419317199E+01  0.81249991906E+02  0.37882275626E+02  0.19964702474E+03  0.17824101919E+03 0.  0.
        -24    2    3    3    0    0 -0.14432715881E+02  0.75774697663E+02  0.93171939791E+02  0.14342671536E+03  0.77072071600E+02 0.  0.
          6    2    1    2  501    0  0.72419317199E+01 -0.81249991906E+02  0.27253932739E+02  0.19170588314E+03  0.17133114725E+03 0.  0.
         24    2    5    5    0    0  0.77813266557E+00  0.13519249857E+02 -0.20419887404E+02  0.85320390658E+02  0.81726505207E+02 0.  0.
          5    1    5    5  501    0  0.64637990543E+01 -0.94769241763E+02  0.47673820143E+02  0.10638549248E+03  0.47000000000E+01 0. -1.
        -13    1    6    6    0    0  0.36849877549E+02  0.14826731002E+02  0.65562605112E+01  0.40258290816E+02  0.00000000000E+00 0.  1.
         14    1    6    6    0    0 -0.36071744883E+02 -0.13074811451E+01 -0.26976147915E+02  0.45062099842E+02  0.00000000000E+00 0. -1.
         -5    1    3    3    0  503  0.71907841607E+01  0.54752942437E+01 -0.55289664165E+02  0.56220309385E+02  0.47000000000E+01 0.  1.
         11    1    4    4    0    0  0.29071824232E+02  0.51410028523E+02  0.53848206058E+02  0.79923659154E+02  0.00000000000E+00 0. -1.
        -12    1    4    4    0    0 -0.43504540112E+02  0.24364669139E+02  0.39323733733E+02  0.63503056205E+02  0.00000000000E+00 0.  1.
</event>
<event>
12    1  0.8219652E-002  0.2429055E+03  0.7818608E-02  0.1117956E+00
         21   -1    0    0  503  502  0.00000000000E+00  0.00000000000E+00  0.81382248792E+03  0.81382248792E+03  0.00000000000E+00 0.  1.
         21   -1    0    0  501  503 -0.00000000000E+00 -0.00000000000E+00 -0.81180978957E+02  0.81180978957E+02  0.00000000000E+00 0.  1.
          6    2    1    2  501    0 -0.15958151015E+03 -0.60481901185E+02  0.21838116129E+03  0.32626208033E+03  0.17214033433E+03 0.  0.
         24    2    3    3    0    0 -0.99353348257E+02 -0.69424150191E+02  0.61520252077E+02  0.15793255190E+03  0.80418586749E+02 0.  0.
         -6    2    1    2    0  502  0.15958151015E+03  0.60481901185E+02  0.51426034767E+03  0.56874138655E+03  0.17285468124E+03 0.  0.
        -24    2    5    5    0    0  0.16892556659E+03  0.35191502194E+02  0.31656515486E+03  0.36916083906E+03  0.79321743239E+02 0.  0.
          5    1    3    3  501    0 -0.60228161894E+02  0.89422490066E+01  0.15686090921E+03  0.16832952843E+03  0.47000000000E+01 0. -1.
        -11    1    4    4    0    0 -0.65981481917E+02  0.23408409981E+01  0.23027550566E+02  0.69923555242E+02  0.00000000000E+00 0.  1.
         12    1    4    4    0    0 -0.33371866340E+02 -0.71764991189E+02  0.38492701511E+02  0.88008996660E+02  0.00000000000E+00 0. -1.
         -5    1    5    5    0  502 -0.93440564409E+01  0.25290398991E+02  0.19769519281E+03  0.19958054748E+03  0.47000000000E+01 0.  1.
         13    1    6    6    0    0  0.22348403500E+02 -0.60819991933E+01  0.70433168892E+01  0.24208473021E+02  0.00000000000E+00 0. -1.
        -14    1    6    6    0    0  0.14657716309E+03  0.41273501387E+02  0.30952183797E+03  0.34495236604E+03  0.00000000000E+00 0.  1.
</event>
<event>
12    1  0.8219652E-002  0.1935870E+03  0.7818608E-02  0.1155493E+00
         21   -1    0    0  501  502  0.00000000000E+00  0.00000000000E+00  0.14143832732E+03  0.14143832732E+03  0.00000000000E+00 0. -1.
         21   -1    0    0  502  503 -0.00000000000E+00 -0.00000000000E+00 -0.65767753999E+03  0.65767753999E+03  0.00000000000E+00 0. -1.
         -6    2    1    2    0  503 -0.11828022373E+02  0.86938586704E+02 -0.56714990154E+03  0.59894636355E+03  0.17140453793E+03 0.  0.
        -24    2    3    3    0    0  0.41554720947E+02  0.38064154648E+02 -0.45045204755E+03  0.46154583037E+03  0.83317655305E+02 0.  0.
          6    2    1    2  501    0  0.11828022373E+02 -0.86938586704E+02  0.50910688871E+02  0.20016950376E+03  0.17256219755E+03 0.  0.
         24    2    5    5    0    0  0.11267835014E+02 -0.24680817105E+02 -0.40203077217E+02  0.89715205270E+02  0.75474656674E+02 0.  0.
          5    1    5    5  501    0  0.56018735865E+00 -0.62257769598E+02  0.91113766088E+02  0.11045429849E+03  0.47000000000E+01 0. -1.
        -13    1    6    6    0    0 -0.15387445666E+02  0.19670430642E+02 -0.13555358750E+01  0.25010733761E+02  0.00000000000E+00 0.  1.
         14    1    6    6    0    0  0.26655280680E+02 -0.44351247748E+02 -0.38847541342E+02  0.64704471509E+02  0.00000000000E+00 0. -1.
         -5    1    3    3    0  503 -0.53382743320E+02  0.48874432056E+02 -0.11669785399E+03  0.13740053318E+03  0.47000000000E+01 0.  1.
         11    1    4    4    0    0  0.59875954824E+02  0.33103673347E+02 -0.22192711756E+03  0.23223399550E+03  0.00000000000E+00 0. -1.
        -12    1    4    4    0    0 -0.18321233878E+02  0.49604813007E+01 -0.22852492999E+03  0.22931183487E+03  0.00000000000E+00 0.  1.
</event>
<event>
12    1  0.8219652E-002  0.1917922E+03  0.7818608E-02  0.1156933E+00
         21   -1    0    0  501  502  0.00000000000E+00  0.00000000000E+00  0.10534382602E+04  0.10534382602E+04  0.00000000000E+00 0. -1.
         21   -1    0    0  502  503 -0.00000000000E+00 -0.00000000000E+00 -0.88476114071E+02  0.88476114071E+02  0.00000000000E+00 0. -1.
         -6    2    1    2    0  503  0.28533428775E+01 -0.59745876244E+02  0.37816152821E+02  0.19513881805E+03  0.18185539750E+03 0.  0.
        -24    2    3    3    0    0 -0.34130764206E+02  0.11976037451E+02 -0.26936335902E+02  0.91568398156E+02  0.79692351018E+02 0.  0.
          6    2    1    2  501    0 -0.28533428775E+01  0.59745876244E+02  0.92714599332E+03  0.94677555624E+03  0.18222664366E+03 0.  0.
         24    2    5    5    0    0  0.15187456110E+02  0.88829947882E+02  0.38775671818E+03  0.40628112167E+03  0.81164394125E+02 0.  0.
          5    1    5    5  501    0 -0.18040798987E+02 -0.29084071637E+02  0.53938927515E+03  0.54049443456E+03  0.47000000000E+01 0. -1.
        -13    1    6    6    0    0 -0.68581398233E+01  0.55797569904E+00 -0.10593278643E+01  0.69618671519E+01  0.00000000000E+00 0.  1.
         14    1    6    6    0    0  0.22045595933E+02  0.88271972182E+02  0.38881604604E+03  0.39931925452E+03  0.00000000000E+00 0. -1.
         -5    1    3    3    0  503  0.36984107084E+02 -0.71721913695E+02  0.64752488723E+02  0.10357041989E+03  0.47000000000E+01 0.  1.
         13    1    4    4    0    0 -0.23572888183E+02  0.17703773311E+02  0.24757605581E+02  0.38497320437E+02  0.00000000000E+00 0. -1.
        -14    1    4    4    0    0 -0.10557876024E+02 -0.57277358599E+01 -0.51693941483E+02  0.53071077719E+02  0.00000000000E+00 0.  1.
</event>
<event>
12    1  0.8219652E-002  0.2254368E+03  0.7818608E-02  0.1131965E+00
         21   -1    0    0  501  502  0.00000000000E+00  0.00000000000E+00  0.32035526280E+03  0.32035526280E+03  0.00000000000E+00 0.  1.
         21   -1    0    0  502  503 -0.00000000000E+00 -0.00000000000E+00 -0.19200690338E+03  0.19200690338E+03  0.00000000000E+00 0.  1.
         -6    2    1    2    0  503  0.57795315294E+02 -0.13161019631E+03 -0.53072924274E+02  0.23159982374E+03  0.17366692495E+03 0.  0.
        -24    2    3    3    0    0 -0.26609022212E+02 -0.85514784968E+02 -0.62615639635E+02  0.13484222686E+03  0.78999299406E+02 0.  0.
          6    2    1    2  501    0 -0.57795315294E+02  0.13161019631E+03  0.18142128369E+03  0.28076234244E+03  0.15890962373E+03 0.  0.
         24    2    5    5    0    0 -0.24831909119E+02  0.31446587681E+02  0.13992809707E+03  0.16734669460E+03  0.82580459280E+02 0.  0.
          5    1    5    5  501    0 -0.32963406175E+02  0.10016360863E+03  0.41493186616E+02  0.11341564784E+03  0.47000000000E+01 0. -1.
        -13    1    6    6    0    0 -0.14659427237E+02 -0.10913996195E+02 -0.24620820936E+01  0.18441148774E+02  0.00000000000E+00 0.  1.
         14    1    6    6    0    0 -0.10172481882E+02  0.42360583876E+02  0.14239017917E+03  0.14890554582E+03  0.00000000000E+00 0. -1.
         -5    1    3    3    0  503  0.84404337506E+02 -0.46095411341E+02  0.95427153615E+01  0.96757596875E+02  0.47000000000E+01 0.  1.
         13    1    4    4    0    0 -0.50181556729E+02 -0.29649938409E+02 -0.24524071861E+02  0.63235572141E+02  0.00000000000E+00 0. -1.
        -14    1    4    4    0    0  0.23572534517E+02 -0.55864846559E+02 -0.38091567774E+02  0.71606654720E+02  0.00000000000E+00 0.  1.
</event>
<event>
12    1  0.8219652E-002  0.2417931E+03  0.7818608E-02  0.1118706E+00
         21   -1    0    0  503  502  0.00000000000E+00  0.00000000000E+00  0.10418204846E+04  0.10418204846E+04  0.00000000000E+00 0.  1.
         21   -1    0    0  501  503 -0.00000000000E+00 -0.00000000000E+00 -0.11794062853E+03  0.11794062853E+03  0.00000000000E+00 0.  1.
          6    2    1    2  501    0 -0.16809877704E+03 -0.37272182942E+02  0.41895162613E+02  0.24539586457E+03  0.16975721262E+03 0.  0.
         24    2    3    3    0    0 -0.52499989076E+02  0.32232987030E+02 -0.94820145699E+01  0.10098065496E+03  0.79447906016E+02 0.  0.
         -6    2    1    2    0  502  0.16809877704E+03  0.37272182942E+02  0.88198469348E+03  0.91436524859E+03  0.16887982065E+03 0.  0.
        -24    2    5    5    0    0  0.17832898187E+03  0.19985382723E+02  0.59696586244E+03  0.62860080958E+03  0.81056126166E+02 0.  0.
          5    1    3    3  501    0 -0.11559878796E+03 -0.69505169973E+02  0.51377177182E+02  0.14441520961E+03  0.47000000000E+01 0. -1.
        -13    1    4    4    0    0 -0.54594920663E+02  0.13848558758E+02 -0.37311432627E+02  0.67561312499E+02  0.00000000000E+00 0.  1.
         14    1    4    4    0    0  0.20949315869E+01  0.18384428272E+02  0.27829418058E+02  0.33419342463E+02  0.00000000000E+00 0. -1.
         -5    1    5    5    0  502 -0.10230204829E+02  0.17286800219E+02  0.28501883104E+03  0.28576443901E+03  0.47000000000E+01 0.  1.
         13    1    6    6    0    0  0.41407247136E+02  0.25466909966E+02  0.78509928533E+02  0.92341391028E+02  0.00000000000E+00 0. -1.
        -14    1    6    6    0    0  0.13692173473E+03 -0.54815272426E+01  0.51845593391E+03  0.53625941855E+03  0.00000000000E+00 0.  1.
</event>
<event>
12    1  0.8219652E-002  0.3030814E+03  0.7818608E-02  0.1083851E+00
         21   -1    0    0  501  502  0.00000000000E+00  0.00000000000E+00  0.16189386416E+04  0.16189386416E+04  0.00000000000E+00 0. -1.
         21   -1    0    0  502  503 -0.00000000000E+00 -0.00000000000E+00 -0.84923650317E+02  0.84923650317E+02  0.00000000000E+00 0. -1.
         -6    2    1    2    0  503  0.11576047050E+03  0.22131462162E+03  0.27342295975E+03  0.40734749134E+03  0.16967974397E+03 0.  0.
        -24    2    3    3    0    0  0.12175709065E+03  0.22614328255E+03  0.28553745910E+03  0.39224363374E+03  0.79736154231E+02 0.  0.
          6    2    1    2  501    0 -0.11576047050E+03 -0.22131462162E+03  0.12605920316E+04  0.12965148006E+04  0.17169073903E+03 0.  0.
         24    2    5    5    0    0 -0.16473088523E+02 -0.59636914474E+02  0.63456397645E+03  0.64235053913E+03  0.78197510778E+02 0.  0.
          5    1    5    5  501    0 -0.99287381977E+02 -0.16167770714E+03  0.62602805512E+03  0.65416426149E+03  0.47000000000E+01 0. -1.
        -13    1    6    6    0    0 -0.23386543503E+02  0.86732330765E+01  0.28620919575E+03  0.28729402904E+03  0.00000000000E+00 0.  1.
         14    1    6    6    0    0  0.69134549805E+01 -0.68310147550E+02  0.34835478070E+03  0.35505651009E+03  0.00000000000E+00 0. -1.
         -5    1    3    3    0  503 -0.59966201535E+01 -0.48286609378E+01 -0.12114499356E+02  0.15103857599E+02  0.47000000000E+01 0.  1.
         13    1    4    4    0    0 -0.52407228023E+01  0.38975512871E+02  0.22414969315E+02  0.45265733491E+02  0.00000000000E+00 0. -1.
        -14    1    4    4    0    0  0.12699781346E+03  0.18716776968E+03  0.26312248979E+03  0.34697790025E+03  0.00000000000E+00 0.  1.
</event>
<event>
12    1  0.8219652E-002  0.1855376E+03  0.7818608E-02  0.1162603E+00
         21   -1    0    0  501  502  0.00000000000E+00  0.00000000000E+00  0.36383603802E+03  0.36383603802E+03  0.00000000000E+00 0. -1.
         21   -1    0    0  502  503 -0.00000000000E+00 -0.00000000000E+00 -0.59243364857E+03  0.59243364857E+03  0.00000000000E+00 0. -1.
         -6    2    1    2    0  503 -0.36587775620E+02  0.59433173973E+02 -0.55263457774E+03  0.58287425503E+03  0.17165795399E+03 0.  0.
        -24    2    3    3    0    0 -0.15066885766E+02  0.98590340873E+02 -0.48835360965E+03  0.50444871532E+03  0.77667187232E+02 0.  0.
          6    2    1    2  501    0  0.36587775620E+02 -0.59433173973E+02  0.32403696718E+03  0.37339543157E+03  0.17191051370E+03 0.  0.
         24    2    5    5    0    0  0.27974722954E+02  0.35083239819E+02  0.16017463636E+03  0.18397396865E+03  0.78594453780E+02 0.  0.
          5    1    5    5  501    0  0.86130526661E+01 -0.94516413792E+02  0.16386233082E+03  0.18942146292E+03  0.47000000000E+01 0. -1.
        -13    1    6    6    0    0  0.39553951535E+02 -0.11540886298E+02  0.58882337941E+02  0.71866799427E+02  0.00000000000E+00 0.  1.
         14    1    6    6    0    0 -0.11579228581E+02  0.46624126117E+02  0.10129229842E+03  0.11210716922E+03  0.00000000000E+00 0. -1.
         -5    1    3    3    0  503 -0.21520889854E+02 -0.39157166900E+02 -0.64280968089E+02  0.78425539706E+02  0.47000000000E+01 0.  1.
         11    1    4    4    0    0 -0.34278069256E+02  0.16318560980E+02 -0.21537074755E+03  0.21869119864E+03  0.00000000000E+00 0. -1.
        -12    1    4    4    0    0  0.19211183489E+02  0.82271779893E+02 -0.27298286210E+03  0.28575751668E+03  0.00000000000E+00 0.  1.
</event>
<event>
12    1  0.8219652E-002  0.1885362E+03  0.7818608E-02  0.1160330E+00
         21   -1    0    0  501  502  0.00000000000E+00  0.00000000000E+00  0.40721174435E+03  0.40721174435E+03  0.00000000000E+00 0.  1.
         21   -1    0    0  502  503 -0.00000000000E+00 -0.00000000000E+00 -0.92232207510E+02  0.92232207510E+02  0.00000000000E+00 0.  1.
         -6    2    1    2    0  503 -0.28341275792E+02  0.64801601317E+02  0.22042206697E+03  0.28852445884E+03  0.17221498279E+03 0.  0.
        -24    2    3    3    0    0 -0.18896799045E+02  0.74223937874E+02  0.24054332456E+03  0.26392906142E+03  0.77014131847E+02 0.  0.
          6    2    1    2  501    0  0.28341275792E+02 -0.64801601317E+02  0.94557469872E+02  0.21091949302E+03  0.17476682174E+03 0.  0.
         24    2    5    5    0    0  0.79699446462E+02 -0.57717321930E+02  0.33966155445E+02  0.13103679093E+03  0.79584231129E+02 0.  0.
          5    1    5    5  501    0 -0.51358170670E+02 -0.70842793865E+01  0.60591314427E+02  0.79882702089E+02  0.47000000000E+01 0. -1.
        -13    1    6    6    0    0  0.21443676181E+02 -0.62565271094E+02  0.29471000186E+02  0.72407073185E+02  0.00000000000E+00 0.  1.
         14    1    6    6    0    0  0.58255770280E+02  0.48479491639E+01  0.44951552588E+01  0.58629717745E+02  0.00000000000E+00 0. -1.
         -5    1    3    3    0  503 -0.94444767465E+01 -0.94223365568E+01 -0.20121257592E+02  0.24595397421E+02  0.47000000000E+01 0.  1.
         13    1    4    4    0    0  0.28338709332E+02  0.19725023346E+02  0.55936513714E+02  0.65734713501E+02  0.00000000000E+00 0. -1.
        -14    1    4    4    0    0 -0.47235508377E+02  0.54498914527E+02  0.18460681085E+03  0.19819434792E+03  0.00000000000E+00 0.  1.
</event>
<event>
12    1  0.8219652E-002  0.1794806E+03  0.7818608E-02  0.1172482E+00
         21   -1    0    0  501  502  0.00000000000E+00  0.00000000000E+00  0.37085931015E+03  0.37085931015E+03  0.00000000000E+00 0. -1.
         21   -1    0    0  502  503 -0.00000000000E+00 -0.00000000000E+00 -0.11579180508E+03  0.11579180508E+03  0.00000000000E+00 0. -1.
         -6    2    1    2    0  503  0.49056853101E+02 -0.13198718032E+02 -0.13422680520E+02  0.16369558490E+03  0.15503320667E+03 0.  0.
        -24    2    3    3    0    0 -0.54247885969E+01  0.10410927113E+02 -0.48357289930E+02  0.94643564217E+02  0.80505658333E+02 0.  0.
          6    2    1    2  501    0 -0.49056853101E+02  0.13198718032E+02  0.26849018559E+03  0.32295553033E+03  0.17214097077E+03 0.  0.
         24    2    5    5    0    0 -0.53418641155E+02 -0.47494568028E+02  0.21914809480E+03  0.24447348084E+03  0.81437768680E+02 0.  0.
          5    1    5    5  501    0  0.43617880541E+01  0.60693286060E+02  0.49342090789E+02  0.78482049484E+02  0.47000000000E+01 0. -1.
        -11    1    6    6    0    0 -0.41708981324E+02 -0.46450705448E+02  0.65899871891E+02  0.90774998071E+02  0.00000000000E+00 0.  1.
         12    1    6    6    0    0 -0.11709659831E+02 -0.10438625797E+01  0.15324822291E+03  0.15369848277E+03  0.00000000000E+00 0. -1.
         -5    1    3    3    0  503  0.54481641698E+02 -0.23609645145E+02  0.34934609410E+02  0.69052020684E+02  0.47000000000E+01 0.  1.
         13    1    4    4    0    0  0.19213680782E+02 -0.17506140040E+02 -0.51076250000E+02  0.57309805290E+02  0.00000000000E+00 0. -1.
        -14    1    4    4    0    0 -0.24638469379E+02  0.27917067153E+02  0.27189600698E+01  0.37333758927E+02  0.00000000000E+00 0.  1.
</event>
<event>
12    1  0.8219652E-002  0.1931634E+03  0.7818608E-02  0.1156939E+00
         21   -1    0    0  501  502  0.00000000000E+00  0.00000000000E+00  0.12087674984E+03  0.12087674984E+03  0.00000000000E+00 0. -1.
         21   -1    0    0  502  503 -0.00000000000E+00 -0.00000000000E+00 -0.30426192367E+03  0.30426192367E+03  0.00000000000E+00 0. -1.
         -6    2    1    2    0  503 -0.59951662584E+01 -0.86630478503E+02 -0.63684932373E+02  0.19789379056E+03  0.16602831056E+03 0.  0.
        -24    2    3    3    0    0  0.54661596188E+02 -0.66405850260E+02 -0.88105045226E+01  0.11350438809E+03  0.73539064982E+02 0.  0.
          6    2    1    2  501    0  0.59951662584E+01  0.86630478503E+02 -0.11970024145E+03  0.22724488295E+03  0.17254363854E+03 0.  0.
         24    2    5    5    0    0 -0.46724653001E+02  0.41044119242E+01 -0.37870001643E+02  0.99541284117E+02  0.79210421183E+02 0.  0.
          5    1    5    5  501    0  0.52719819259E+02  0.82526066579E+02 -0.81830239809E+02  0.12770359883E+03  0.47000000000E+01 0. -1.
        -11    1    6    6    0    0 -0.94756867708E+01 -0.35172984305E+02 -0.65780001442E+01  0.37016179578E+02  0.00000000000E+00 0.  1.
         12    1    6    6    0    0 -0.37248966230E+02  0.39277396229E+02 -0.31292001499E+02  0.62525104539E+02  0.00000000000E+00 0. -1.
         -5    1    3    3    0  503 -0.60656762447E+02 -0.20224628244E+02 -0.54874427850E+02  0.84389402474E+02  0.47000000000E+01 0.  1.
         13    1    4    4    0    0  0.60876595042E+02 -0.78498333851E+02 -0.53850537761E+01  0.99483400854E+02  0.00000000000E+00 0. -1.
        -14    1    4    4    0    0 -0.62149988537E+01  0.12092483592E+02 -0.34254507465E+01  0.14020987233E+02  0.00000000000E+00 0.  1.
</event>
<event>
12    1  0.8219652E-002  0.1841843E+03  0.7818608E-02  0.1163909E+00
         21   -1    0    0  501  502  0.00000000000E+00  0.00000000000E+00  0.35769596353E+03  0.35769596353E+03  0.00000000000E+00 0. -1.
         21   -1    0    0  502  503 -0.00000000000E+00 -0.00000000000E+00 -0.17344620985E+03  0.17344620985E+03  0.00000000000E+00 0. -1.
         -6    2    1    2    0  503  0.53454968756E+02  0.32775896192E+02 -0.86951388087E+02  0.20331000411E+03  0.17275045825E+03 0.  0.
        -24    2    3    3    0    0 -0.80667703386E+01 -0.39168965214E+02 -0.33195922491E+02  0.94347957757E+02  0.78741902715E+02 0.  0.
          6    2    1    2  501    0 -0.53454968756E+02 -0.32775896192E+02  0.27120114177E+03  0.32783216927E+03  0.17318250159E+03 0.  0.
         24    2    5    5    0    0 -0.73500389077E+01 -0.98329666212E+01  0.26390864000E+03  0.27560848541E+03  0.78495583690E+02 0.  0.
          5    1    5    5  501    0 -0.46104929849E+02 -0.22942929571E+02  0.72925017648E+01  0.52223683857E+02  0.47000000000E+01 0. -1.
        -13    1    6    6    0    0  0.32916938729E+01  0.27829928467E+02  0.43454173838E+02  0.51706918212E+02  0.00000000000E+00 0.  1.
         14    1    6    6    0    0 -0.10641732781E+02 -0.37662895088E+02  0.22045446616E+03  0.22390156720E+03  0.00000000000E+00 0. -1.
         -5    1    3    3    0  503  0.61521739095E+02  0.71944861406E+02 -0.53755465597E+02  0.10896204635E+03  0.47000000000E+01 0.  1.
         13    1    4    4    0    0 -0.68216845200E+01  0.14847058669E+02 -0.36731876990E+02  0.40202006393E+02  0.00000000000E+00 0. -1.
        -14    1    4    4    0    0 -0.12450858187E+01 -0.54016023883E+02  0.35359544998E+01  0.54145951364E+02  0.00000000000E+00 0.  1.
</event>
<event>
12    1  0.8219652E-002  0.1978112E+03  0.7818608E-02  0.1151878E+00
         21   -1    0    0  501  502  0.00000000000E+00  0.00000000000E+00  0.15466080349E+03  0.15466080349E+03  0.00000000000E+00 0.  1.
         21   -1    0    0  502  503 -0.00000000000E+00 -0.00000000000E+00 -0.60617118408E+03  0.60617118408E+03  0.00000000000E+00 0.  1.
         -6    2    1    2    0  503  0.27521935521E+02 -0.93113944123E+02 -0.51649821130E+03  0.55261893690E+03  0.17084971062E+03 0.  0.
        -24    2    3    3    0    0  0.65393171716E+02 -0.62027780761E+02 -0.20915548305E+03  0.24135984435E+03  0.79905230645E+02 0.  0.
          6    2    1    2  501    0 -0.27521935521E+02  0.93113944123E+02  0.64987830704E+02  0.20821305067E+03  0.17234150052E+03 0.  0.
         24    2    5    5    0    0 -0.34682081061E+02  0.63502261933E+01 -0.18311250725E+02  0.87630973225E+02  0.78107063994E+02 0.  0.
          5    1    5    5  501    0  0.71601455393E+01  0.86763717930E+02  0.83299081429E+02  0.12058207744E+03  0.47000000000E+01 0. -1.
        -13    1    6    6    0    0 -0.13394684593E+01  0.18435063729E+02  0.25354914807E+02  0.31377021135E+02  0.00000000000E+00 0.  1.
         14    1    6    6    0    0 -0.33342612602E+02 -0.12084837536E+02 -0.43666165532E+02  0.56253952089E+02  0.00000000000E+00 0. -1.
         -5    1    3    3    0  503 -0.37871236195E+02 -0.31086163362E+02 -0.30734272826E+03  0.31125909255E+03  0.47000000000E+01 0.  1.
         11    1    4    4    0    0  0.14601159688E+02  0.11518347679E+02 -0.62151237092E+01  0.19608517542E+02  0.00000000000E+00 0. -1.
        -12    1    4    4    0    0  0.50792012028E+02 -0.73546128440E+02 -0.20294035934E+03  0.22175132681E+03  0.00000000000E+00 0.  1.
</event>
<event>
12    1  0.8219652E-002  0.1915657E+03  0.7818608E-02  0.1158319E+00
         21   -1    0    0  503  502  0.00000000000E+00  0.00000000000E+00  0.78375336261E+02  0.78375336261E+02  0.00000000000E+00 0. -1.
         21   -1    0    0  501  503 -0.00000000000E+00 -0.00000000000E+00 -0.52730590355E+03  0.52730590355E+03  0.00000000000E+00 0.  1.
          6    2    1    2  501    0  0.25799033679E+02  0.78880585499E+02 -0.33396369595E+03  0.38226499628E+03  0.16645431883E+03 0.  0.
         24    2    3    3    0    0 -0.19881006826E+02  0.93679457955E+02 -0.17633970056E+03  0.21742238453E+03  0.83700107666E+02 0.  0.
         -6    2    1    2    0  502 -0.25799033679E+02 -0.78880585499E+02 -0.11496687134E+03  0.22341624354E+03  0.17265485647E+03 0.  0.
        -24    2    5    5    0    0  0.54899361599E+01 -0.90038075389E+02 -0.18941530620E+02  0.12169876581E+03  0.79465801446E+02 0.  0.
          5    1    3    3  501    0  0.45680040504E+02 -0.14798872456E+02 -0.15762399539E+03  0.16484261175E+03  0.47000000000E+01 0. -1.
        -11    1    4    4    0    0 -0.21375812836E+02  0.91440531616E+02 -0.18547836410E+03  0.20789545389E+03  0.00000000000E+00 0.  1.
         12    1    4    4    0    0  0.14948060099E+01  0.22389263390E+01  0.91386635384E+01  0.95269306404E+01  0.00000000000E+00 0. -1.
         -5    1    5    5    0  502 -0.31288969839E+02  0.11157489889E+02 -0.96025340720E+02  0.10171747772E+03  0.47000000000E+01 0.  1.
         11    1    6    6    0    0 -0.36573921253E+02 -0.33768683537E+02 -0.11162754412E+02  0.51015515186E+02  0.00000000000E+00 0. -1.
        -12    1    6    6    0    0  0.42063857413E+02 -0.56269391852E+02 -0.77787762081E+01  0.70683250627E+02  0.00000000000E+00 0.  1.
</event>
<event>
12    1  0.8219652E-002  0.2187490E+03  0.7818608E-02  0.1135188E+00
         21   -1    0    0  501  502  0.00000000000E+00  0.00000000000E+00  0.12726744200E+03  0.12726744200E+03  0.00000000000E+00 0. -1.
         21   -1    0    0  502  503 -0.00000000000E+00 -0.00000000000E+00 -0.44604081608E+03  0.44604081608E+03  0.00000000000E+00 0. -1.
         -6    2    1    2    0  503 -0.95657611879E+02 -0.92990507251E+02 -0.27507569539E+03  0.35023741247E+03  0.17088590858E+03 0.  0.
        -24    2    3    3    0    0 -0.10487100158E+03 -0.10498936295E+03 -0.28536119381E+03  0.33134983544E+03  0.79630454012E+02 0.  0.
          6    2    1    2  501    0  0.95657611879E+02  0.92990507251E+02 -0.43697678696E+02  0.22307084561E+03  0.17335945860E+03 0.  0.
         24    2    5    5    0    0 -0.16085871635E+02  0.39638174954E+02 -0.29916885592E+02  0.98390944548E+02  0.83401545223E+02 0.  0.
          5    1    5    5  501    0  0.11174348351E+03  0.53352332297E+02 -0.13780793104E+02  0.12467990106E+03  0.47000000000E+01 0. -1.
        -13    1    6    6    0    0 -0.35721721113E+02  0.57047873689E+02 -0.24246095132E+02  0.71542815019E+02  0.00000000000E+00 0.  1.
         14    1    6    6    0    0  0.19635849478E+02 -0.17409698735E+02 -0.56707904606E+01  0.26848129529E+02  0.00000000000E+00 0. -1.
         -5    1    3    3    0  503  0.92133897046E+01  0.11998855703E+02  0.10285498428E+02  0.18887577026E+02  0.47000000000E+01 0.  1.
         13    1    4    4    0    0 -0.87170869368E+02 -0.40692630538E+02 -0.12544731858E+03  0.15808757189E+03  0.00000000000E+00 0. -1.
        -14    1    4    4    0    0 -0.17700132216E+02 -0.64296732416E+02 -0.15991387523E+03  0.17326226355E+03  0.00000000000E+00 0.  1.
</event>
<event>
12    1  0.8219652E-002  0.2030273E+03  0.7818608E-02  0.1147284E+00
         21   -1    0    0  501  502  0.00000000000E+00  0.00000000000E+00  0.45463107558E+03  0.45463107558E+03  0.00000000000E+00 0.  1.
         21   -1    0    0  502  503 -0.00000000000E+00 -0.00000000000E+00 -0.92625914536E+02  0.92625914536E+02  0.00000000000E+00 0.  1.
         -6    2    1    2    0  503 -0.99176739447E+02  0.39904154103E+02  0.22223686213E+03  0.30077117021E+03  0.17217928673E+03 0.  0.
        -24    2    3    3    0    0 -0.11769019064E+02 -0.15378619113E+02  0.40439210948E+02  0.91561298140E+02  0.79831884604E+02 0.  0.
          6    2    1    2  501    0  0.99176739447E+02 -0.39904154103E+02  0.13976829892E+03  0.24648581991E+03  0.17260276612E+03 0.  0.
         24    2    5    5    0    0  0.10235808228E+03 -0.85768358104E+02  0.10916630242E+03  0.19105822443E+03  0.82174054775E+02 0.  0.
          5    1    5    5  501    0 -0.31813428307E+01  0.45864204001E+02  0.30601996498E+02  0.55427595478E+02  0.47000000000E+01 0. -1.
        -11    1    6    6    0    0  0.16375423591E+02 -0.37697387851E+02  0.77259720731E+02  0.87511782041E+02  0.00000000000E+00 0.  1.
         12    1    6    6    0    0  0.85982658687E+02 -0.48070970254E+02  0.31906581688E+02  0.10354644239E+03  0.00000000000E+00 0. -1.
         -5    1    3    3    0  503 -0.87407720383E+02  0.55282773216E+02  0.18179765118E+03  0.20920987207E+03  0.47000000000E+01 0.  1.
         11    1    4    4    0    0  0.11063831384E+02 -0.36137985905E+01  0.58830202715E+02  0.59970498219E+02  0.00000000000E+00 0. -1.
        -12    1    4    4    0    0 -0.22832850448E+02 -0.11764820522E+02 -0.18390991767E+02  0.31590799921E+02  0.00000000000E+00 0.  1.
</event>
<event>
12    1  0.8219652E-002  0.2830883E+03  0.7818608E-02  0.1094287E+00
         21   -1    0    0  503  502  0.00000000000E+00  0.00000000000E+00  0.31894143607E+03  0.31894143607E+03  0.00000000000E+00 0. -1.
         21   -1    0    0  501  503 -0.00000000000E+00 -0.00000000000E+00 -0.34709408378E+03  0.34709408378E+03  0.00000000000E+00 0.  1.
          6    2    1    2  501    0 -0.17928513059E+03 -0.13288392310E+03 -0.19071633964E+03  0.34133811208E+03  0.17417717844E+03 0.  0.
         24    2    3    3    0    0 -0.25257653748E+02 -0.78887183190E+02 -0.10921447440E+03  0.15884220643E+03  0.80261499989E+02 0.  0.
         -6    2    1    2    0  502  0.17928513059E+03  0.13288392310E+03  0.16256369192E+03  0.32469740777E+03  0.17088053609E+03 0.  0.
        -24    2    5    5    0    0  0.11027347253E+03  0.45424542788E+02  0.15915769964E+03  0.21313826232E+03  0.76636268676E+02 0.  0.
          5    1    3    3  501    0 -0.15402747684E+03 -0.53996739907E+02 -0.81501865232E+02  0.18249590565E+03  0.47000000000E+01 0. -1.
        -11    1    4    4    0    0 -0.16124955631E+02  0.10300714299E+02 -0.22378068802E+01  0.19264648681E+02  0.00000000000E+00 0.  1.
         12    1    4    4    0    0 -0.91326981165E+01 -0.89187897488E+02 -0.10697666752E+03  0.13957755775E+03  0.00000000000E+00 0. -1.
         -5    1    5    5    0  502  0.69011658057E+02  0.87459380309E+02  0.34059922848E+01  0.11155914546E+03  0.47000000000E+01 0.  1.
         13    1    6    6    0    0  0.76316106759E+02  0.44958326861E+02  0.56624418377E+02  0.10512718041E+03  0.00000000000E+00 0. -1.
        -14    1    6    6    0    0  0.33957365776E+02  0.46621592689E+00  0.10253328126E+03  0.10801108190E+03  0.00000000000E+00 0.  1.
</event>
<event>
12    1  0.8219652E-002  0.2145699E+03  0.7818608E-02  0.1138179E+00
         21   -1    0    0  501  502  0.00000000000E+00  0.00000000000E+00  0.20785823428E+03  0.20785823428E+03  0.00000000000E+00 0. -1.
         21   -1    0    0  502  503 -0.00000000000E+00 -0.00000000000E+00 -0.24475168398E+03  0.24475168398E+03  0.00000000000E+00 0.  1.
         -6    2    1    2    0  503 -0.10163766570E+03  0.75773725933E+02 -0.89679351474E+02  0.23255673173E+03  0.17311376248E+03 0.  0.
        -24    2    3    3    0    0 -0.12510932314E+03  0.94370044317E+02 -0.98532710967E+02  0.20097804057E+03  0.78265124159E+02 0.  0.
          6    2    1    2  501    0  0.10163766570E+03 -0.75773725933E+02  0.52785901776E+02  0.22005318653E+03  0.17194528445E+03 0.  0.
         24    2    5    5    0    0 -0.12420185628E+02 -0.56665781453E+02  0.22028223623E+02  0.10029329442E+03  0.78792324951E+02 0.  0.
          5    1    5    5  501    0  0.11405785133E+03 -0.19107944480E+02  0.30757678153E+02  0.11975989211E+03  0.47000000000E+01 0. -1.
        -11    1    6    6    0    0  0.86783023825E+01  0.11859358850E+02 -0.13783204623E+02  0.20147805197E+02  0.00000000000E+00 0.  1.
         12    1    6    6    0    0 -0.21098488011E+02 -0.68525140303E+02  0.35811428246E+02  0.80145489224E+02  0.00000000000E+00 0. -1.
         -5    1    3    3    0  503  0.23471657446E+02 -0.18596318384E+02  0.88533594932E+01  0.31578691154E+02  0.47000000000E+01 0.  1.
         13    1    4    4    0    0 -0.57886340706E+02  0.78927021281E+02 -0.87181917350E+02  0.13107627490E+03  0.00000000000E+00 0. -1.
        -14    1    4    4    0    0 -0.67222982439E+02  0.15443023035E+02 -0.11350793617E+02  0.69901765673E+02  0.00000000000E+00 0.  1.
</event>
<event>
12    1  0.8219652E-002  0.2772045E+03  0.7818608E-02  0.1097379E+00
         21   -1    0    0  501  502  0.00000000000E+00  0.00000000000E+00  0.75720996844E+03  0.75720996844E+03  0.00000000000E+00 0.  1.
         21   -1    0    0  502  503 -0.00000000000E+00 -0.00000000000E+00 -0.10195218811E+03  0.10195218811E+03  0.00000000000E+00 0. -1.
         -6    2    1    2    0  503 -0.79543762161E+02  0.20154312156E+03  0.28845802664E+03  0.40006294594E+03  0.17290311632E+03 0.  0.
        -24    2    3    3    0    0 -0.77136437834E+02  0.16415165474E+03  0.30016347006E+03  0.36052784246E+03  0.83584811001E+02 0.  0.
          6    2    1    2  501    0  0.79543762161E+02 -0.20154312156E+03  0.36679975369E+03  0.45909921060E+03  0.17112330620E+03 0.  0.
         24    2    5    5    0    0  0.15778680349E+02 -0.22194329520E+02  0.13081314789E+03  0.15587694397E+03  0.80274447898E+02 0.  0.
          5    1    5    5  501    0  0.63765081812E+02 -0.17934879204E+03  0.23598660579E+03  0.30322226663E+03  0.47000000000E+01 0. -1.
        -13    1    6    6    0    0  0.43465925657E+02 -0.14231912201E+02  0.11324817426E+03  0.12213510139E+03  0.00000000000E+00 0.  1.
         14    1    6    6    0    0 -0.27687245308E+02 -0.79624173198E+01  0.17564973627E+02  0.33741842582E+02  0.00000000000E+00 0. -1.
         -5    1    3    3    0  503 -0.24073243273E+01  0.37391466824E+02 -0.11705443424E+02  0.39535103483E+02  0.47000000000E+01 0.  1.
         13    1    4    4    0    0 -0.86323673775E+02  0.10599986453E+03  0.17377916839E+03  0.22110392873E+03  0.00000000000E+00 0. -1.
        -14    1    4    4    0    0  0.91872359409E+01  0.58151790212E+02  0.12638430167E+03  0.13942391372E+03  0.00000000000E+00 0.  1.
</event>
<event>
12    1  0.8219652E-002  0.2131093E+03  0.7818608E-02  0.1139215E+00
         21   -1    0    0  501  502  0.00000000000E+00  0.00000000000E+00  0.72612831214E+02  0.72612831214E+02  0.00000000000E+00 0. -1.
         21   -1    0    0  502  503 -0.00000000000E+00 -0.00000000000E+00 -0.71911086523E+03  0.71911086523E+03  0.00000000000E+00 0.  1.
         -6    2    1    2    0  503  0.74591978975E+02 -0.10033192942E+03 -0.46741799045E+03  0.51370724861E+03  0.17258360316E+03 0.  0.
        -24    2    3    3    0    0  0.15978831044E+02 -0.47431255524E+02 -0.10076140268E+03  0.13861642525E+03  0.80972872226E+02 0.  0.
          6    2    1    2  501    0 -0.74591978975E+02  0.10033192942E+03 -0.17908004356E+03  0.27801644784E+03  0.17202623020E+03 0.  0.
         24    2    5    5    0    0  0.20372600469E+02  0.73014186131E+02 -0.70262543700E+02  0.13095228251E+03  0.80408712347E+02 0.  0.
          5    1    5    5  501    0 -0.94964579443E+02  0.27317743287E+02 -0.10881749986E+03  0.14706416533E+03  0.47000000000E+01 0. -1.
        -11    1    6    6    0    0 -0.39689921753E+01  0.36662567789E+02 -0.78228089501E+02  0.86484280437E+02  0.00000000000E+00 0.  1.
         12    1    6    6    0    0  0.24341592644E+02  0.36351618342E+02  0.79655458009E+01  0.44468002074E+02  0.00000000000E+00 0. -1.
         -5    1    3    3    0  503  0.58613147930E+02 -0.52900673895E+02 -0.36665658777E+03  0.37509082335E+03  0.47000000000E+01 0.  1.
         13    1    4    4    0    0  0.44121094604E+02 -0.23906029425E+02 -0.84969832491E+02  0.98681516331E+02  0.00000000000E+00 0. -1.
        -14    1    4    4    0    0 -0.28142263560E+02 -0.23525226098E+02 -0.15791570193E+02  0.39934908920E+02  0.00000000000E+00 0.  1.
</event>
<event>
12    1  0.8219652E-002  0.2272575E+03  0.7818608E-02  0.1129193E+00
         21   -1    0    0  501  502  0.00000000000E+00  0.00000000000E+00  0.18643558582E+03  0.18643558582E+03  0.00000000000E+00 0.  1.
         21   -1    0    0  502  503 -0.00000000000E+00 -0.00000000000E+00 -0.27713617698E+03  0.27713617698E+03  0.00000000000E+00 0.  1.
         -6    2    1    2    0  503  0.73161161182E+02  0.12673598996E+03 -0.74280721800E+02  0.23908905836E+03  0.17387175026E+03 0.  0.
        -24    2    3    3    0    0  0.98939070904E+02  0.10772517591E+03 -0.10262224895E+03  0.19606297509E+03  0.80719953814E+02 0.  0.
          6    2    1    2  501    0 -0.73161161182E+02 -0.12673598996E+03 -0.16419869367E+02  0.22448270444E+03  0.16943525555E+03 0.  0.
         24    2    5    5    0    0 -0.79628024577E+02 -0.38183487979E+02 -0.50538684823E+02  0.12924852203E+03  0.79702074828E+02 0.  0.
          5    1    5    5  501    0  0.64668633948E+01 -0.88552501985E+02  0.34118815457E+02  0.95234182404E+02  0.47000000000E+01 0. -1.
        -13    1    6    6    0    0 -0.53448853925E+02 -0.47264478530E+02  0.29873855234E+00  0.71349843457E+02  0.00000000000E+00 0.  1.
         14    1    6    6    0    0 -0.26179170651E+02  0.90809905508E+01 -0.50837423376E+02  0.57898678576E+02  0.00000000000E+00 0. -1.
         -5    1    3    3    0  503 -0.25777909722E+02  0.19010814055E+02  0.28341527151E+02  0.43026083274E+02  0.47000000000E+01 0.  1.
         11    1    4    4    0    0  0.29835116847E+02 -0.90140906757E+01 -0.15209632869E+02  0.34680267588E+02  0.00000000000E+00 0. -1.
        -12    1    4    4    0    0  0.69103954057E+02  0.11673926658E+03 -0.87412616081E+02  0.16138270750E+03  0.00000000000E+00 0.  1.
</event>
<event>
12    1  0.8219652E-002  0.1927529E+03  0.7818608E-02  0.1156159E+00
         21   -1    0    0  503  502  0.00000000000E+00  0.00000000000E+00  0.48075339404E+03  0.48075339404E+03  0.00000000000E+00 0. -1.
         21   -1    0    0  501  503 -0.00000000000E+00 -0.00000000000E+00 -0.14251864550E+03  0.14251864550E+03  0.00000000000E+00 0. -1.
          6    2    1    2  501    0  0.23882888548E+02  0.84516428044E+02 -0.42015543875E+02  0.19727895863E+03  0.17158165000E+03 0.  0.
         24    2    3    3    0    0  0.28098873283E+02 -0.22020832413E+02 -0.11659600217E+02  0.86321598769E+02  0.77723924225E+02 0.  0.
         -6    2    1    2    0  502 -0.23882888548E+02 -0.84516428044E+02  0.38025029242E+03  0.42599308090E+03  0.17078173532E+03 0.  0.
        -24    2    5    5    0    0 -0.15377591271E+02 -0.45812819438E+02  0.37428444782E+03  0.38564471411E+03  0.79358130685E+02 0.  0.
          5    1    3    3  501    0 -0.42159847343E+01  0.10653726046E+03 -0.30355943659E+02  0.11095735987E+03  0.47000000000E+01 0. -1.
        -13    1    4    4    0    0  0.47679113557E+02  0.64525886259E+01  0.42063241836E+01  0.48297276659E+02  0.00000000000E+00 0.  1.
         14    1    4    4    0    0 -0.19580240274E+02 -0.28473421039E+02 -0.15865924400E+02  0.38024322110E+02  0.00000000000E+00 0. -1.
         -5    1    5    5    0  502 -0.85052972775E+01 -0.38703608605E+02  0.59658445975E+01  0.40348366790E+02  0.47000000000E+01 0.  1.
         13    1    6    6    0    0 -0.43724119159E+02 -0.42281154148E+02  0.29898362538E+03  0.30510769056E+03  0.00000000000E+00 0. -1.
        -14    1    6    6    0    0  0.28346527888E+02 -0.35316652901E+01  0.75300822437E+02  0.80537023552E+02  0.00000000000E+00 0.  1.
</event>
<event>
12    1  0.8219652E-002  0.1865842E+03  0.7818608E-02  0.1161786E+00
         21   -1    0    0  503  502  0.00000000000E+00  0.00000000000E+00  0.71027148322E+02  0.71027148322E+02  0.00000000000E+00 0.  1.
         21   -1    0    0  501  503 -0.00000000000E+00 -0.00000000000E+00 -0.49705509344E+03  0.49705509344E+03  0.00000000000E+00 0.  1.
          6    2    1    2  501    0 -0.11299255275E+02 -0.70157061153E+02 -0.17475690371E+03  0.25564360901E+03  0.17252244212E+03 0.  0.
         24    2    3    3    0    0 -0.23647348216E+02 -0.11060314587E+03 -0.10517452573E+03  0.17408284336E+03  0.80317510780E+02 0.  0.
         -6    2    1    2    0  502  0.11299255275E+02  0.70157061153E+02 -0.25127104141E+03  0.31243863275E+03  0.17155487922E+03 0.  0.
        -24    2    5    5    0    0 -0.25136145437E+02  0.12679646720E+02 -0.22080578493E+03  0.23772977486E+03  0.83472462213E+02 0.  0.
          5    1    3    3  501    0  0.12348092941E+02  0.40446084713E+02 -0.69582377981E+02  0.81560765650E+02  0.47000000000E+01 0. -1.
        -11    1    4    4    0    0 -0.31064409061E+02 -0.48793392385E+02 -0.75989990514E+01  0.58339844337E+02  0.00000000000E+00 0.  1.
         12    1    4    4    0    0  0.74170608447E+01 -0.61809753480E+02 -0.97575526678E+02  0.11574299903E+03  0.00000000000E+00 0. -1.
         -5    1    5    5    0  502  0.36435400713E+02  0.57477414433E+02 -0.30465256478E+02  0.74708857890E+02  0.47000000000E+01 0.  1.
         13    1    6    6    0    0 -0.53461971574E+02  0.37327713049E+01 -0.10147798443E+03  0.11476017301E+03  0.00000000000E+00 0. -1.
        -14    1    6    6    0    0  0.28325826137E+02  0.89468754150E+01 -0.11932780050E+03  0.12296960185E+03  0.00000000000E+00 0.  1.
</event>
<event>
12    1  0.8219652E-002  0.2198678E+03  0.7818608E-02  0.1133983E+00
         21   -1    0    0  501  502  0.00000000000E+00  0.00000000000E+00  0.87734692570E+03  0.87734692570E+03  0.00000000000E+00 0. -1.
         21   -1    0    0  502  503 -0.00000000000E+00 -0.00000000000E+00 -0.22204302944E+03  0.22204302944E+03  0.00000000000E+00 0. -1.
         -6    2    1    2    0  503 -0.91257010661E+02  0.10343896608E+03 -0.14898913762E+03  0.26558594277E+03  0.17120358691E+03 0.  0.
        -24    2    3    3    0    0 -0.59593391234E+02  0.13434043042E+03 -0.14577296508E+03  0.22097743395E+03  0.77346916163E+02 0.  0.
          6    2    1    2  501    0  0.91257010661E+02 -0.10343896608E+03  0.80429303388E+03  0.83380401237E+03  0.17121444157E+03 0.  0.
         24    2    5    5    0    0  0.53662645285E+02 -0.13457343325E+03  0.52878674581E+03  0.55396745986E+03  0.79213859953E+02 0.  0.
          5    1    5    5  501    0  0.37594365376E+02  0.31134467168E+02  0.27550628807E+03  0.27983655251E+03  0.47000000000E+01 0. -1.
        -11    1    6    6    0    0 -0.10513400696E+02 -0.56266010375E+02  0.27167745013E+03  0.27764191403E+03  0.00000000000E+00 0.  1.
         12    1    6    6    0    0  0.64176045981E+02 -0.78307422874E+02  0.25710929568E+03  0.27632554583E+03  0.00000000000E+00 0. -1.
         -5    1    3    3    0  503 -0.31663619427E+02 -0.30901464340E+02 -0.32161725339E+01  0.44608508823E+02  0.47000000000E+01 0.  1.
         13    1    4    4    0    0  0.18031685081E+02  0.39120376226E+02 -0.42003087284E+02  0.60164814006E+02  0.00000000000E+00 0. -1.
        -14    1    4    4    0    0 -0.77625076315E+02  0.95220054195E+02 -0.10376987780E+03  0.16081261994E+03  0.00000000000E+00 0.  1.
</event>
<event>
12    1  0.8219652E-002  0.1889436E+03  0.7818608E-02  0.1160897E+00
         21   -1    0    0  501  502  0.00000000000E+00  0.00000000000E+00  0.54482216486E+03  0.54482216486E+03  0.00000000000E+00 0.  1.
         21   -1    0    0  502  503 -0.00000000000E+00 -0.00000000000E+00 -0.64327387120E+02  0.64327387120E+02  0.00000000000E+00 0. -1.
         -6    2    1    2    0  503 -0.36586109132E+02  0.54740719584E+02  0.19818386848E+03  0.26944505507E+03  0.17026068900E+03 0.  0.
        -24    2    3    3    0    0 -0.66679306944E+01  0.94413608565E+02  0.17986780635E+03  0.21627924225E+03  0.73931671745E+02 0.  0.
          6    2    1    2  501    0  0.36586109132E+02 -0.54740719584E+02  0.28231090926E+03  0.33970449690E+03  0.17710055327E+03 0.  0.
         24    2    5    5    0    0  0.63654682659E+01 -0.76347599626E+02  0.87448015047E+02  0.14127621782E+03  0.80264183985E+02 0.  0.
          5    1    5    5  501    0  0.30220640866E+02  0.21606880041E+02  0.19486289421E+03  0.19842827908E+03  0.47000000000E+01 0. -1.
        -13    1    6    6    0    0  0.28623757997E+02 -0.47493330393E+02  0.88932535049E+02  0.10480425442E+03  0.00000000000E+00 0.  1.
         14    1    6    6    0    0 -0.22258289732E+02 -0.28854269233E+02 -0.14845200022E+01  0.36471963402E+02  0.00000000000E+00 0. -1.
         -5    1    3    3    0  503 -0.29918178437E+02 -0.39672888981E+02  0.18316062132E+02  0.53165812823E+02  0.47000000000E+01 0.  1.
         13    1    4    4    0    0 -0.14641286681E+02  0.29340412018E+02  0.10128942426E+02  0.34319419105E+02  0.00000000000E+00 0. -1.
        -14    1    4    4    0    0  0.79733559868E+01  0.65073196547E+02  0.16973886392E+03  0.18195982315E+03  0.00000000000E+00 0.  1.
</event>
<event>
12    1  0.8219652E-002  0.1802156E+03  0.7818608E-02  0.1167616E+00
         21   -1    0    0  501  502  0.00000000000E+00  0.00000000000E+00  0.89381067471E+02  0.89381067471E+02  0.00000000000E+00 0.  1.
         21   -1    0    0  502  503 -0.00000000000E+00 -0.00000000000E+00 -0.37949244883E+03  0.37949244883E+03  0.00000000000E+00 0.  1.
         -6    2    1    2    0  503 -0.51694750635E+02  0.15124523540E+02 -0.19362010623E+03  0.26445178912E+03  0.17188631352E+03 0.  0.
        -24    2    3    3    0    0 -0.90652231625E+02  0.30079551912E+02 -0.96560521674E+02  0.15869739841E+03  0.82087291192E+02 0.  0.
          6    2    1    2  501    0  0.51694750635E+02 -0.15124523540E+02 -0.96491275127E+02  0.20442172718E+03  0.17197842281E+03 0.  0.
         24    2    5    5    0    0  0.44616547786E+02  0.69663327029E+01  0.13386098807E+02  0.92024066230E+02  0.79057415822E+02 0.  0.
          5    1    5    5  501    0  0.70782028484E+01 -0.22090856242E+02 -0.10987737393E+03  0.11239766095E+03  0.47000000000E+01 0. -1.
        -13    1    6    6    0    0  0.48748306435E+02 -0.17878356335E+02  0.31743591695E+02  0.60857938013E+02  0.00000000000E+00 0.  1.
         14    1    6    6    0    0 -0.41317586484E+01  0.24844689038E+02 -0.18357492888E+02  0.31166128217E+02  0.00000000000E+00 0. -1.
         -5    1    3    3    0  503  0.38957480990E+02 -0.14955028373E+02 -0.97059584556E+02  0.10575439070E+03  0.47000000000E+01 0.  1.
         13    1    4    4    0    0 -0.80341413797E+01  0.85500158160E+01  0.14474944467E+02  0.18632611612E+02  0.00000000000E+00 0. -1.
        -14    1    4    4    0    0 -0.82618090245E+02  0.21529536096E+02 -0.11103546614E+03  0.14006478680E+03  0.00000000000E+00 0.  1.
</event>
<event>
12    1  0.8219652E-002  0.1931719E+03  0.7818608E-02  0.1156281E+00
         21   -1    0    0  501  502  0.00000000000E+00  0.00000000000E+00  0.10252799412E+04  0.10252799412E+04  0.00000000000E+00 0. -1.
         21   -1    0    0  502  503 -0.00000000000E+00 -0.00000000000E+00 -0.11216819376E+03  0.11216819376E+03  0.00000000000E+00 0. -1.
         -6    2    1    2    0  503 -0.34956838375E+02 -0.73230741671E+02 -0.13675742608E+02  0.19074310274E+03  0.17207900288E+03 0.  0.
        -24    2    3    3    0    0 -0.64686239144E+02 -0.31935232482E+02  0.44190982306E+02  0.11354333460E+03  0.75730293189E+02 0.  0.
          6    2    1    2  501    0  0.34956838375E+02  0.73230741671E+02  0.92678749000E+03  0.94670503218E+03  0.17530158087E+03 0.  0.
         24    2    5    5    0    0 -0.47500048992E+02  0.21422243367E+02  0.49890136429E+03  0.50785211223E+03  0.79347523227E+02 0.  0.
          5    1    5    5  501    0  0.82456887367E+02  0.51808498304E+02  0.42788612571E+03  0.43885291995E+03  0.47000000000E+01 0. -1.
        -11    1    6    6    0    0 -0.35894974080E+02  0.45109784447E+02  0.21063461774E+03  0.21838105231E+03  0.00000000000E+00 0.  1.
         12    1    6    6    0    0 -0.11605074912E+02 -0.23687541080E+02  0.28826674655E+03  0.28947105992E+03  0.00000000000E+00 0. -1.
         -5    1    3    3    0  503  0.29729400769E+02 -0.41295509189E+02 -0.57866724914E+02  0.77199768144E+02  0.47000000000E+01 0.  1.
         11    1    4    4    0    0 -0.14024519727E+02  0.17537465996E+02 -0.97965773838E+01  0.24499444801E+02  0.00000000000E+00 0. -1.
        -12    1    4    4    0    0 -0.50661719417E+02 -0.49472698479E+02  0.53987559690E+02  0.89043889798E+02  0.00000000000E+00 0.  1.
</event>
<event>
12    1  0.8219652E-002  0.1897534E+03  0.7818608E-02  0.1158877E+00
         21   -1    0    0  503  502  0.00000000000E+00  0.00000000000E+00  0.10584447618E+03  0.10584447618E+03  0.00000000000E+00 0.  1.
         21   -1    0    0  501  503 -0.00000000000E+00 -0.00000000000E+00 -0.40557654589E+03  0.40557654589E+03  0.00000000000E+00 0. -1.
          6    2    1    2  501    0 -0.71150261752E+02  0.34484843344E+02 -0.25401580565E+03  0.31706527080E+03  0.17249577461E+03 0.  0.
         24    2    3    3    0    0  0.21140767876E+02  0.37912673385E+02 -0.16714181473E+03  0.19018515231E+03  0.79685024054E+02 0.  0.
         -6    2    1    2    0  502  0.71150261752E+02 -0.34484843344E+02 -0.45716264067E+02  0.19435575127E+03  0.17155936898E+03 0.  0.
        -24    2    5    5    0    0  0.86523004472E+02 -0.78795773838E+02 -0.37213187163E+02  0.14645823467E+03  0.79813463311E+02 0.  0.
          5    1    3    3  501    0 -0.92291029628E+02 -0.34278300416E+01 -0.86873990920E+02  0.12688011849E+03  0.47000000000E+01 0. -1.
        -11    1    4    4    0    0  0.12784607362E+02 -0.98033923929E+01 -0.12483235987E+03  0.12586767162E+03  0.00000000000E+00 0.  1.
         12    1    4    4    0    0  0.83561605140E+01  0.47716065778E+02 -0.42309454857E+02  0.64317480689E+02  0.00000000000E+00 0. -1.
         -5    1    5    5    0  502 -0.15372742721E+02  0.44310930495E+02 -0.85030769037E+01  0.47897516605E+02  0.47000000000E+01 0.  1.
         13    1    6    6    0    0 -0.43518621148E+01  0.17314983372E+01 -0.23849169125E+02  0.24304725020E+02  0.00000000000E+00 0. -1.
        -14    1    6    6    0    0  0.90874866587E+02 -0.80527272176E+02 -0.13364018038E+02  0.12215350965E+03  0.00000000000E+00 0.  1.
</event>
<event>
12    1  0.8219652E-002  0.2214561E+03  0.7818608E-02  0.1133033E+00
         21   -1    0    0  501  502  0.00000000000E+00  0.00000000000E+00  0.17440457503E+03  0.17440457503E+03  0.00000000000E+00 0. -1.
         21   -1    0    0  502  503 -0.00000000000E+00 -0.00000000000E+00 -0.49545816552E+03  0.49545816552E+03  0.00000000000E+00 0.  1.
         -6    2    1    2    0  503 -0.68369677491E+02  0.11972000459E+03 -0.38184228402E+03  0.44141400048E+03  0.17330752336E+03 0.  0.
        -24    2    3    3    0    0 -0.11179239670E+03  0.73033000428E+02 -0.29687700716E+03  0.33508245683E+03  0.79453989128E+02 0.  0.
          6    2    1    2  501    0  0.68369677491E+02 -0.11972000459E+03  0.60788693542E+02  0.22844874007E+03  0.17171566404E+03 0.  0.
         24    2    5    5    0    0  0.73037964455E+02 -0.13961132440E+03  0.14016011606E+02  0.17719221578E+03  0.79842135489E+02 0.  0.
          5    1    5    5  501    0 -0.46682869645E+01  0.19891319807E+02  0.46772681935E+02  0.51256524290E+02  0.47000000000E+01 0. -1.
        -13    1    6    6    0    0  0.62120042117E+02 -0.42758974680E+02 -0.11882843395E+02  0.76344164908E+02  0.00000000000E+00 0.  1.
         14    1    6    6    0    0  0.10917922338E+02 -0.96852349720E+02  0.25898855002E+02  0.10084805087E+03  0.00000000000E+00 0. -1.
         -5    1    3    3    0  503  0.43422719207E+02  0.46687004165E+02 -0.84965276866E+02  0.10633154365E+03  0.47000000000E+01 0.  1.
         13    1    4    4    0    0 -0.52315401497E+02  0.57984557222E+02 -0.89316478967E+02  0.11864461018E+03  0.00000000000E+00 0. -1.
        -14    1    4    4    0    0 -0.59476995201E+02  0.15048443206E+02 -0.20756052819E+03  0.21643784665E+03  0.00000000000E+00 0.  1.
</event>
<event>
12    1  0.8219652E-002  0.2151348E+03  0.7818608E-02  0.1137710E+00
         21   -1    0    0  503  502  0.00000000000E+00  0.00000000000E+00  0.17506760696E+03  0.17506760696E+03  0.00000000000E+00 0.  1.
         21   -1    0    0  501  503 -0.00000000000E+00 -0.00000000000E+00 -0.26626316328E+03  0.26626316328E+03  0.00000000000E+00 0.  1.
          6    2    1    2  501    0 -0.10538136212E+03  0.74513361783E+02 -0.22780522240E+02  0.21557962368E+03  0.17116702189E+03 0.  0.
         24    2    3    3    0    0 -0.40692598060E+02  0.10642319665E+03 -0.32869516539E+01  0.14071332250E+03  0.82508488992E+02 0.  0.
         -6    2    1    2    0  502  0.10538136212E+03 -0.74513361783E+02 -0.68415034078E+02  0.22575114656E+03  0.17212057030E+03 0.  0.
        -24    2    5    5    0    0  0.13958243129E+03 -0.57667330814E+02 -0.70994309038E+02  0.18725121733E+03  0.84935565620E+02 0.  0.
          5    1    3    3  501    0 -0.64688764064E+02 -0.31909834868E+02 -0.19493570586E+02  0.74866301175E+02  0.47000000000E+01 0. -1.
        -11    1    4    4    0    0 -0.29135095627E+01  0.20913197583E+02 -0.35946005072E+02  0.41688915215E+02  0.00000000000E+00 0.  1.
         12    1    4    4    0    0 -0.37779088498E+02  0.85509999067E+02  0.32659053418E+02  0.99024407286E+02  0.00000000000E+00 0. -1.
         -5    1    5    5    0  502 -0.34201069169E+02 -0.16846030969E+02  0.25792749593E+01  0.38499929234E+02  0.47000000000E+01 0.  1.
         13    1    6    6    0    0  0.68777753027E+02 -0.15067456588E+02 -0.77078020107E+02  0.10439553986E+03  0.00000000000E+00 0. -1.
        -14    1    6    6    0    0  0.70804678266E+02 -0.42599874226E+02  0.60837110693E+01  0.82855677469E+02  0.00000000000E+00 0.  1.
</event>
<event>
12    1  0.8219652E-002  0.1888469E+03  0.7818608E-02  0.1160455E+00
         21   -1    0    0  503  502  0.00000000000E+00  0.00000000000E+00  0.29296210208E+03  0.29296210208E+03  0.00000000000E+00 0.  1.
         21   -1    0    0  501  503 -0.00000000000E+00 -0.00000000000E+00 -0.22832124429E+03  0.22832124429E+03  0.00000000000E+00 0. -1.
          6    2    1    2  501    0  0.55957112595E+02  0.50307537454E+02 -0.14776983053E+03  0.23978961016E+03  0.17320822021E+03 0.  0.
         24    2    3    3    0    0  0.63197138647E+02  0.25022574154E+02 -0.13718553153E+02  0.10310170904E+03  0.76300433518E+02 0.  0.
         -6    2    1    2    0  502 -0.55957112595E+02 -0.50307537454E+02  0.21241068832E+03  0.28149373622E+03  0.16869610620E+03 0.  0.
        -24    2    5    5    0    0 -0.62825762357E+02 -0.14813309750E+02  0.46421687210E+02  0.11154828310E+03  0.78240244482E+02 0.  0.
          5    1    3    3  501    0 -0.72400260511E+01  0.25284963300E+02 -0.13405127738E+03  0.13668790112E+03  0.47000000000E+01 0. -1.
        -13    1    4    4    0    0  0.71322150684E+02  0.80274998570E+01  0.10374753486E+02  0.72518448977E+02  0.00000000000E+00 0.  1.
         14    1    4    4    0    0 -0.81250120378E+01  0.16995074297E+02 -0.24093306639E+02  0.30583260058E+02  0.00000000000E+00 0. -1.
         -5    1    5    5    0  502  0.68686497619E+01 -0.35494227704E+02  0.16598900111E+03  0.16994545312E+03  0.47000000000E+01 0.  1.
         11    1    6    6    0    0 -0.84201845331E+00  0.26661973545E+02  0.93832953798E+01  0.28277483279E+02  0.00000000000E+00 0. -1.
        -12    1    6    6    0    0 -0.61983743904E+02 -0.41475283295E+02  0.37038391831E+02  0.83270799817E+02  0.00000000000E+00 0.  1.
</event>
<event>
12    1  0.8219652E-002  0.2148761E+03  0.7818608E-02  0.1137780E+00
         21   -1    0    0  501  502  0.00000000000E+00  0.00000000000E+00  0.37825091648E+03  0.37825091648E+03  0.00000000000E+00 0.  1.
         21   -1    0    0  502  503 -0.00000000000E+00 -0.00000000000E+00 -0.12227033661E+03  0.12227033661E+03  0.00000000000E+00 0.  1.
         -6    2    1    2    0  503  0.64349259335E+02  0.11203232382E+03  0.11650348176E+03  0.24442750138E+03  0.17169645719E+03 0.  0.
        -24    2    3    3    0    0  0.55388945683E+02  0.11478229615E+03  0.24614952480E+02  0.15194268435E+03  0.78979570956E+02 0.  0.
          6    2    1    2  501    0 -0.64349259335E+02 -0.11203232382E+03  0.13947709811E+03  0.25609375171E+03  0.17157528963E+03 0.  0.
         24    2    5    5    0    0 -0.82021551542E+02 -0.57276599816E+02  0.14958739406E+03  0.19748652257E+03  0.81341221597E+02 0.  0.
          5    1    5    5  501    0  0.17672292207E+02 -0.54755724004E+02 -0.10110295954E+02  0.58607229139E+02  0.47000000000E+01 0. -1.
        -13    1    6    6    0    0 -0.76658730299E+02 -0.61727849885E+02  0.15825527770E+03  0.18636421680E+03  0.00000000000E+00 0.  1.
         14    1    6    6    0    0 -0.53628212429E+01  0.44512500686E+01 -0.86678836407E+01  0.11122305771E+02  0.00000000000E+00 0. -1.
         -5    1    3    3    0  503  0.89603136522E+01 -0.27499723311E+01  0.91888529279E+02  0.92484817033E+02  0.47000000000E+01 0.  1.
         11    1    4    4    0    0 -0.16353751798E+02  0.26846942960E+02 -0.10504684567E+02  0.33144410419E+02  0.00000000000E+00 0. -1.
        -12    1    4    4    0    0  0.71742697481E+02  0.87935353192E+02  0.35119637046E+02  0.11879827393E+03  0.00000000000E+00 0.  1.
</event>
<event>
12    1  0.8219652E-002  0.2089321E+03  0.7818608E-02  0.1142962E+00
         21   -1    0    0  501  502  0.00000000000E+00  0.00000000000E+00  0.32440180588E+03  0.32440180588E+03  0.00000000000E+00 0.  1.
         21   -1    0    0  502  503 -0.00000000000E+00 -0.00000000000E+00 -0.14020692006E+03  0.14020692006E+03  0.00000000000E+00 0. -1.
         -6    2    1    2    0  503  0.80963250285E+02  0.82387847229E+02  0.38180657246E+02  0.20971113864E+03  0.17081625746E+03 0.  0.
        -24    2    3    3    0    0  0.49190371147E+02 -0.59698077105E+00 -0.27923511172E+02  0.98860569814E+02  0.81077992008E+02 0.  0.
          6    2    1    2  501    0 -0.80963250285E+02 -0.82387847229E+02  0.14601422857E+03  0.25489758729E+03  0.17409715619E+03 0.  0.
         24    2    5    5    0    0  0.10754107175E+02  0.66523615381E+01  0.48320675041E+02  0.93943081800E+02  0.79564503684E+02 0.  0.
          5    1    5    5  501    0 -0.91717357460E+02 -0.89040208767E+02  0.97693553531E+02  0.16095450549E+03  0.47000000000E+01 0. -1.
        -13    1    6    6    0    0  0.58653359111E+01 -0.23246834632E+02  0.57490564570E+02  0.62289505539E+02  0.00000000000E+00 0.  1.
         14    1    6    6    0    0  0.48887712638E+01  0.29899196170E+02 -0.91698895287E+01  0.31653576260E+02  0.00000000000E+00 0. -1.
         -5    1    3    3    0  503  0.31772879138E+02  0.82984828000E+02  0.66104168418E+02  0.11085056883E+03  0.47000000000E+01 0.  1.
         11    1    4    4    0    0  0.56666731156E+02  0.72068438518E+01  0.11252770826E+02  0.58220974480E+02  0.00000000000E+00 0. -1.
        -12    1    4    4    0    0 -0.74763600082E+01 -0.78038246228E+01 -0.39176281997E+02  0.40639595333E+02  0.00000000000E+00 0.  1.
</event>
<event>
12    1  0.8219652E-002  0.2107011E+03  0.7818608E-02  0.1141145E+00
         21   -1    0    0  501  502  0.00000000000E+00  0.00000000000E+00  0.72882438590E+02  0.72882438590E+02  0.00000000000E+00 0.  1.
         21   -1    0    0  502  503 -0.00000000000E+00 -0.00000000000E+00 -0.65858666501E+03  0.65858666501E+03  0.00000000000E+00 0. -1.
         -6    2    1    2    0  503  0.69868692886E+02  0.10031936555E+03 -0.39546205907E+03  0.44809059860E+03  0.17160808557E+03 0.  0.
        -24    2    3    3    0    0  0.90252107961E+02  0.97860551606E+02 -0.39762847510E+03  0.42691720174E+03  0.80173327092E+02 0.  0.
          6    2    1    2  501    0 -0.69868692886E+02 -0.10031936555E+03 -0.19024216734E+03  0.28337850500E+03  0.17077964021E+03 0.  0.
         24    2    5    5    0    0 -0.69918191683E+02 -0.13405124322E+03 -0.13484962415E+03  0.21835338783E+03  0.81458526309E+02 0.  0.
          5    1    5    5  501    0  0.49498796811E-01  0.33731877671E+02 -0.55392543189E+02  0.65025117164E+02  0.47000000000E+01 0. -1.
        -11    1    6    6    0    0  0.16026668233E+02 -0.44072280076E+02 -0.30313459993E+02  0.55840181075E+02  0.00000000000E+00 0.  1.
         12    1    6    6    0    0 -0.85944859916E+02 -0.89978963141E+02 -0.10453616416E+03  0.16251320676E+03  0.00000000000E+00 0. -1.
         -5    1    3    3    0  503 -0.20383415075E+02  0.24588139401E+01  0.21664160269E+01  0.21173396858E+02  0.47000000000E+01 0.  1.
         11    1    4    4    0    0  0.24159778624E+02  0.76436000644E+02 -0.26942292234E+03  0.28109583451E+03  0.00000000000E+00 0. -1.
        -12    1    4    4    0    0  0.66092329337E+02  0.21424550962E+02 -0.12820555276E+03  0.14582136723E+03  0.00000000000E+00 0.  1.
</event>
<event>
12    1  0.8219652E-002  0.2039294E+03  0.7818608E-02  0.1146629E+00
         21   -1    0    0  503  502  0.00000000000E+00  0.00000000000E+00  0.24671301295E+03  0.24671301295E+03  0.00000000000E+00 0. -1.
         21   -1    0    0  501  503 -0.00000000000E+00 -0.00000000000E+00 -0.28492845233E+03  0.28492845233E+03  0.00000000000E+00 0.  1.
          6    2    1    2  501    0 -0.50613365521E+01  0.10830039713E+03 -0.18943891847E+03  0.27776014812E+03  0.17178184685E+03 0.  0.
         24    2    3    3    0    0  0.42077512301E+02  0.61919461621E+01 -0.78614055799E+02  0.11979671243E+03  0.79763558729E+02 0.  0.
         -6    2    1    2    0  502  0.50613365521E+01 -0.10830039713E+03  0.15122347910E+03  0.25388131716E+03  0.17272113197E+03 0.  0.
        -24    2    5    5    0    0 -0.12680490575E+02  0.11778751097E+02  0.49767030710E+02  0.95611689035E+02  0.79782854773E+02 0.  0.
          5    1    3    3  501    0 -0.47138848853E+02  0.10210845096E+03 -0.11082486267E+03  0.15796343569E+03  0.47000000000E+01 0. -1.
        -13    1    4    4    0    0  0.22895174974E+02  0.42033957005E+02 -0.54482085431E+02  0.72521308672E+02  0.00000000000E+00 0.  1.
         14    1    4    4    0    0  0.19182337327E+02 -0.35842010843E+02 -0.24131970368E+02  0.47275403758E+02  0.00000000000E+00 0. -1.
         -5    1    5    5    0  502  0.17741827127E+02 -0.12007914822E+03  0.10145644839E+03  0.15826962813E+03  0.47000000000E+01 0.  1.
         11    1    6    6    0    0  0.28976530236E+02  0.35790061395E+01 -0.12696261003E+01  0.29224314191E+02  0.00000000000E+00 0. -1.
        -12    1    6    6    0    0 -0.41657020812E+02  0.81997449572E+01  0.51036656811E+02  0.66387374844E+02  0.00000000000E+00 0.  1.
</event>
<event>
12    1  0.8219652E-002  0.2059864E+03  0.7818608E-02  0.1145066E+00
         21   -1    0    0  501  502  0.00000000000E+00  0.00000000000E+00  0.64257946048E+02  0.64257946048E+02  0.00000000000E+00 0.  1.
         21   -1    0    0  502  503 -0.00000000000E+00 -0.00000000000E+00 -0.67006580373E+03  0.67006580373E+03  0.00000000000E+00 0.  1.
         -6    2    1    2    0  503  0.61013294979E+02 -0.96907292163E+02 -0.25049155761E+03  0.32430915401E+03  0.17122138157E+03 0.  0.
        -24    2    3    3    0    0  0.45596298616E+02 -0.11024599110E+03 -0.10001632344E+03  0.17238650670E+03  0.74031356456E+02 0.  0.
          6    2    1    2  501    0 -0.61013294979E+02  0.96907292163E+02 -0.35531630008E+03  0.41001459577E+03  0.16955426920E+03 0.  0.
         24    2    5    5    0    0 -0.92782750941E+02  0.75282869897E+02 -0.33712809245E+03  0.36723826040E+03  0.83261274399E+02 0.  0.
          5    1    5    5  501    0  0.31769455963E+02  0.21624422267E+02 -0.18188207633E+02  0.42776335367E+02  0.47000000000E+01 0. -1.
        -11    1    6    6    0    0 -0.49139094757E+02  0.83595965555E+02 -0.18661257516E+03  0.21030261362E+03  0.00000000000E+00 0.  1.
         12    1    6    6    0    0 -0.43643656184E+02 -0.83130956585E+01 -0.15051551729E+03  0.15693564678E+03  0.00000000000E+00 0. -1.
         -5    1    3    3    0  503  0.15416996363E+02  0.13338698938E+02 -0.15047523417E+03  0.15192264731E+03  0.47000000000E+01 0.  1.
         13    1    4    4    0    0  0.14403264492E+01  0.62765943863E+01  0.59845034772E+01  0.87911580147E+01  0.00000000000E+00 0. -1.
        -14    1    4    4    0    0  0.44155972167E+02 -0.11652258549E+03 -0.10600082691E+03  0.16359534869E+03  0.00000000000E+00 0.  1.
</event>
<event>
12    1  0.8219652E-002  0.2371750E+03  0.7818608E-02  0.1122314E+00
         21   -1    0    0  503  502  0.00000000000E+00  0.00000000000E+00  0.10874951036E+03  0.10874951036E+03  0.00000000000E+00 0.  1.
         21   -1    0    0  501  503 -0.00000000000E+00 -0.00000000000E+00 -0.51575987188E+03  0.51575987188E+03  0.00000000000E+00 0.  1.
          6    2    1    2  501    0  0.81630743898E+02  0.14149486622E+03 -0.23688296551E+03  0.33262701290E+03  0.16686166380E+03 0.  0.
         24    2    3    3    0    0  0.11910766844E+03  0.13062223776E+03 -0.19108217670E+03  0.27227358567E+03  0.79822938570E+02 0.  0.
         -6    2    1    2    0  502 -0.81630743898E+02 -0.14149486622E+03 -0.17012739601E+03  0.29188236934E+03  0.17195235137E+03 0.  0.
        -24    2    5    5    0    0 -0.96931129287E+02 -0.16116285740E+03 -0.17179585600E+03  0.26646966722E+03  0.78250603684E+02 0.  0.
          5    1    3    3  501    0 -0.37476924545E+02  0.10872628462E+02 -0.45800788807E+02  0.60353427230E+02  0.47000000000E+01 0. -1.
        -13    1    4    4    0    0  0.58465852486E+02  0.11215616718E+03 -0.15225585214E+03  0.19793712703E+03  0.00000000000E+00 0.  1.
         14    1    4    4    0    0  0.60641815956E+02  0.18466070576E+02 -0.38826324562E+02  0.74336458646E+02  0.00000000000E+00 0. -1.
         -5    1    5    5    0  502  0.15300385389E+02  0.19667991181E+02  0.16684599960E+01  0.25412702118E+02  0.47000000000E+01 0.  1.
         13    1    6    6    0    0  0.22192399373E+01  0.51193728451E+01 -0.19104945385E+02  0.19903063643E+02  0.00000000000E+00 0. -1.
        -14    1    6    6    0    0 -0.99150369224E+02 -0.16628223025E+03 -0.15269091062E+03  0.24656660358E+03  0.00000000000E+00 0.  1.
</event>
<event>
12    1  0.8219652E-002  0.1849533E+03  0.7818608E-02  0.1163203E+00
         21   -1    0    0  503  502  0.00000000000E+00  0.00000000000E+00  0.39386327241E+03  0.39386327241E+03  0.00000000000E+00 0. -1.
         21   -1    0    0  501  503 -0.00000000000E+00 -0.00000000000E+00 -0.86664584119E+02  0.86664584119E+02  0.00000000000E+00 0. -1.
          6    2    1    2  501    0 -0.34456839701E+02 -0.58674033938E+02  0.15804311222E+03  0.24292505552E+03  0.17147898186E+03 0.  0.
         24    2    3    3    0    0 -0.51904091713E+02 -0.14131403681E+02  0.24570582470E+02  0.10106082920E+03  0.81950267652E+02 0.  0.
         -6    2    1    2    0  502  0.34456839701E+02  0.58674033938E+02  0.14915557607E+03  0.23760280101E+03  0.17198194415E+03 0.  0.
        -24    2    5    5    0    0  0.26334170435E+02  0.94616942393E+02  0.58532428846E+02  0.13966141426E+03  0.80208547472E+02 0.  0.
          5    1    3    3  501    0  0.17447252012E+02 -0.44542630257E+02  0.13347252975E+03  0.14186422633E+03  0.47000000000E+01 0. -1.
        -13    1    4    4    0    0 -0.24094685644E+02  0.34351973182E+02  0.75460405749E+01  0.42632788627E+02  0.00000000000E+00 0.  1.
         14    1    4    4    0    0 -0.27809406069E+02 -0.48483376863E+02  0.17024541895E+02  0.58428040568E+02  0.00000000000E+00 0. -1.
         -5    1    5    5    0  502  0.81226692665E+01 -0.35942908456E+02  0.90623147227E+02  0.97941386745E+02  0.47000000000E+01 0.  1.
         11    1    6    6    0    0 -0.24551024432E+02  0.54669775874E+02  0.15295068748E+02  0.61850435106E+02  0.00000000000E+00 0. -1.
        -12    1    6    6    0    0  0.50885194866E+02  0.39947166519E+02  0.43237360098E+02  0.77810979159E+02  0.00000000000E+00 0.  1.
</event>
<event>
12    1  0.8219652E-002  0.1886008E+03  0.7818608E-02  0.1160697E+00
         21   -1    0    0  503  502  0.00000000000E+00  0.00000000000E+00  0.53594033618E+03  0.53594033618E+03  0.00000000000E+00 0. -1.
         21   -1    0    0  501  503 -0.00000000000E+00 -0.00000000000E+00 -0.65988460041E+02  0.65988460041E+02  0.00000000000E+00 0.  1.
          6    2    1    2  501    0 -0.69894663475E+02 -0.35289175877E+02  0.27620906566E+03  0.33445735687E+03  0.17157996881E+03 0.  0.
         24    2    3    3    0    0 -0.10717380364E+03 -0.14117727972E+02  0.25094573592E+03  0.28447445652E+03  0.79160720109E+02 0.  0.
         -6    2    1    2    0  502  0.69894663475E+02  0.35289175877E+02  0.19374281048E+03  0.26747143935E+03  0.16695539626E+03 0.  0.
        -24    2    5    5    0    0  0.56407978550E+02 -0.13182565876E+02  0.19416894683E+03  0.21693756941E+03  0.77489928526E+02 0.  0.
          5    1    3    3  501    0  0.37279140165E+02 -0.21171447904E+02  0.25263329742E+02  0.49982900350E+02  0.47000000000E+01 0. -1.
        -13    1    4    4    0    0 -0.14258252233E+02  0.24289946447E+02  0.27098412666E+02  0.39084820892E+02  0.00000000000E+00 0.  1.
         14    1    4    4    0    0 -0.92915551406E+02 -0.38407674419E+02  0.22384732325E+03  0.24538963563E+03  0.00000000000E+00 0. -1.
         -5    1    5    5    0  502  0.13486684924E+02  0.48471741752E+02 -0.42613634748E+00  0.50533869938E+02  0.47000000000E+01 0.  1.
         11    1    6    6    0    0  0.67674396076E+02 -0.22386473009E+02  0.10703887704E+03  0.12860131903E+03  0.00000000000E+00 0. -1.
        -12    1    6    6    0    0 -0.11266417526E+02  0.92039071337E+01  0.87130069790E+02  0.88336250384E+02  0.00000000000E+00 0.  1.
</event>
<event>
12    1  0.8219652E-002  0.2282784E+03  0.7818608E-02  0.1128742E+00
         21   -1    0    0  503  502  0.00000000000E+00  0.00000000000E+00  0.85363312921E+02  0.85363312921E+02  0.00000000000E+00 0.  1.
         21   -1    0    0  501  503 -0.00000000000E+00 -0.00000000000E+00 -0.87290220966E+03  0.87290220966E+03  0.00000000000E+00 0.  1.
          6    2    1    2  501    0  0.10193310258E+03  0.95816751952E+02 -0.12165728090E+03  0.25434127834E+03  0.17412002905E+03 0.  0.
         24    2    3    3    0    0  0.12723632986E+03  0.60675620918E+02 -0.52262172884E+02  0.17240884631E+03  0.84397043569E+02 0.  0.
         -6    2    1    2    0  502 -0.10193310258E+03 -0.95816751952E+02 -0.66588161584E+03  0.70392424424E+03  0.18038793740E+03 0.  0.
        -24    2    5    5    0    0 -0.92508454220E+02 -0.13422799137E+03 -0.51530271015E+03  0.54816691970E+03  0.91515687126E+02 0.  0.
          5    1    3    3  501    0 -0.25303227283E+02  0.35141131034E+02 -0.69395108018E+02  0.81932432029E+02  0.47000000000E+01 0. -1.
        -11    1    4    4    0    0  0.14422367843E+02  0.45227061754E+02 -0.86306966819E+00  0.47478802621E+02  0.00000000000E+00 0.  1.
         12    1    4    4    0    0  0.11281396202E+03  0.15448559165E+02 -0.51399103216E+02  0.12493004369E+03  0.00000000000E+00 0. -1.
         -5    1    5    5    0  502 -0.94246483557E+01  0.38411239422E+02 -0.15057890569E+03  0.15575732454E+03  0.47000000000E+01 0.  1.
         11    1    6    6    0    0 -0.59244617371E+02 -0.34419958911E+02 -0.11137464715E+03  0.13076303104E+03  0.00000000000E+00 0. -1.
        -12    1    6    6    0    0 -0.33263836849E+02 -0.99808032463E+02 -0.40392806300E+03  0.41740388866E+03  0.00000000000E+00 0.  1.
</event>
<event>
12    1  0.8219652E-002  0.2250989E+03  0.7818608E-02  0.1130887E+00
         21   -1    0    0  501  502  0.00000000000E+00  0.00000000000E+00  0.44920065761E+02  0.44920065761E+02  0.00000000000E+00 0. -1.
         21   -1    0    0  502  503 -0.00000000000E+00 -0.00000000000E+00 -0.11091941356E+04  0.11091941356E+04  0.00000000000E+00 0. -1.
         -6    2    1    2    0  503 -0.72616255550E+02  0.12746199086E+03 -0.54952094493E+03  0.59229547716E+03  0.16529060369E+03 0.  0.
        -24    2    3    3    0    0 -0.11452298598E+02  0.12392126978E+03 -0.45155756599E+03  0.47665603775E+03  0.88369149987E+02 0.  0.
          6    2    1    2  501    0  0.72616255550E+02 -0.12746199086E+03 -0.51475312496E+03  0.56181872424E+03  0.17073318240E+03 0.  0.
         24    2    5    5    0    0  0.10879139594E+03 -0.10949164008E+03 -0.32318137989E+03  0.36597848886E+03  0.75299820171E+02 0.  0.
          5    1    5    5  501    0 -0.36175140395E+02 -0.17970350786E+02 -0.19157174506E+03  0.19584023539E+03  0.47000000000E+01 0. -1.
        -13    1    6    6    0    0  0.79488434666E+02 -0.91214659749E+02 -0.16819504118E+03  0.20719096813E+03  0.00000000000E+00 0.  1.
         14    1    6    6    0    0  0.29302961278E+02 -0.18276980329E+02 -0.15498633871E+03  0.15878752072E+03  0.00000000000E+00 0. -1.
         -5    1    3    3    0  503 -0.61163956952E+02  0.35407210870E+01 -0.97963378937E+02  0.11563943942E+03  0.47000000000E+01 0.  1.
         13    1    4    4    0    0  0.29447949377E+01  0.69540330002E+02 -0.10774192436E+03  0.12826866951E+03  0.00000000000E+00 0. -1.
        -14    1    4    4    0    0 -0.14397093535E+02  0.54380939775E+02 -0.34381564164E+03  0.34838736824E+03  0.00000000000E+00 0.  1.
</event>
<event>
12    1  0.8219652E-002  0.2578783E+03  0.7818608E-02  0.1108496E+00
         21   -1    0    0  503  502  0.00000000000E+00  0.00000000000E+00  0.21551046292E+04  0.21551046292E+04  0.00000000000E+00 0.  1.
         21   -1    0    0  501  503 -0.00000000000E+00 -0.00000000000E+00 -0.50917316088E+02  0.50917316088E+02  0.00000000000E+00 0. -1.
          6    2    1    2  501    0  0.80392552483E+02 -0.17312415980E+03  0.35938026894E+03  0.44232952873E+03  0.17339635832E+03 0.  0.
         24    2    3    3    0    0  0.67543019585E+02 -0.17806770462E+03  0.37013262361E+03  0.42423941370E+03  0.81919192797E+02 0.  0.
         -6    2    1    2    0  502 -0.80392552483E+02  0.17312415980E+03  0.17448070442E+04  0.17636924166E+04  0.17269737009E+03 0.  0.
        -24    2    5    5    0    0 -0.10168266394E+03  0.65583736119E+02  0.85670689688E+03  0.86883925922E+03  0.79337006622E+02 0.  0.
          5    1    3    3  501    0  0.12849532897E+02  0.49435448227E+01 -0.10752354667E+02  0.18090115035E+02  0.47000000000E+01 0. -1.
        -13    1    4    4    0    0  0.71641875036E+02 -0.90352098070E+02  0.25121316620E+03  0.27641294245E+03  0.00000000000E+00 0.  1.
         14    1    4    4    0    0 -0.40988554512E+01 -0.87715606555E+02  0.11891945741E+03  0.14782647125E+03  0.00000000000E+00 0. -1.
         -5    1    5    5    0  502  0.21290111460E+02  0.10754042368E+03  0.88810014730E+03  0.89485315734E+03  0.47000000000E+01 0.  1.
         11    1    6    6    0    0 -0.28422040328E+02 -0.17613623239E+02  0.17263434600E+03  0.17584274087E+03  0.00000000000E+00 0. -1.
        -12    1    6    6    0    0 -0.73260623615E+02  0.83197359358E+02  0.68407255088E+03  0.69299651835E+03  0.00000000000E+00 0.  1.
</event>
<event>
12    1  0.8219652E-002  0.2361903E+03  0.7818608E-02  0.1122616E+00
         21   -1    0    0  503  502  0.00000000000E+00  0.00000000000E+00  0.48897192974E+03  0.48897192974E+03  0.00000000000E+00 0. -1.
         21   -1    0    0  501  503 -0.00000000000E+00 -0.00000000000E+00 -0.13058354562E+03  0.13058354562E+03  0.00000000000E+00 0.  1.
          6    2    1    2  501    0  0.15356846148E+03 -0.46684547202E+02  0.29121225972E+03  0.37399800610E+03  0.17119348424E+03 0.  0.
         24    2    3    3    0    0  0.30875764909E+02 -0.54414034564E+02  0.77077055023E+02  0.12703805255E+03  0.79269126201E+02 0.  0.
         -6    2    1    2    0  502 -0.15356846148E+03  0.46684547202E+02  0.67176124407E+02  0.24555746926E+03  0.17327180876E+03 0.  0.
        -24    2    5    5    0    0 -0.21856410215E+02  0.23836193384E+01  0.66725132788E+02  0.10651456203E+03  0.80060753616E+02 0.  0.
          5    1    3    3  501    0  0.12269269657E+03  0.77294873627E+01  0.21413520470E+03  0.24695995355E+03  0.47000000000E+01 0. -1.
        -11    1    4    4    0    0 -0.22593844601E+02 -0.60010873330E+01  0.39011276235E+02  0.45479385842E+02  0.00000000000E+00 0.  1.
         12    1    4    4    0    0  0.53469609510E+02 -0.48412947231E+02  0.38065778788E+02  0.81558666710E+02  0.00000000000E+00 0. -1.
         -5    1    5    5    0  502 -0.13171205127E+03  0.44300927863E+02  0.45099161916E+00  0.13904290723E+03  0.47000000000E+01 0.  1.
         13    1    6    6    0    0 -0.28956342923E+01  0.22184550475E+02  0.74687635872E+02  0.77966543657E+02  0.00000000000E+00 0. -1.
        -14    1    6    6    0    0 -0.18960775922E+02 -0.19800931136E+02 -0.79625030843E+01  0.28548018369E+02  0.00000000000E+00 0.  1.
</event>
<event>
12    1  0.8219652E-002  0.1862574E+03  0.7818608E-02  0.1161948E+00
         21   -1    0    0  501  502  0.00000000000E+00  0.00000000000E+00  0.34065682584E+02  0.34065682584E+02  0.00000000000E+00 0. -1.
         21   -1    0    0  502  503 -0.00000000000E+00 -0.00000000000E+00 -0.12303094256E+04  0.12303094256E+04  0.00000000000E+00 0. -1.
         -6    2    1    2    0  503  0.74548985820E+01 -0.70201178634E+02 -0.86109514571E+03  0.88094793962E+03  0.17204836924E+03 0.  0.
        -24    2    3    3    0    0 -0.47283013225E+02 -0.24761830833E+02 -0.67108425455E+03  0.67800163618E+03  0.80519006209E+02 0.  0.
          6    2    1    2  501    0 -0.74548985820E+01  0.70201178634E+02 -0.33514859729E+03  0.38342716855E+03  0.17236017615E+03 0.  0.
         24    2    5    5    0    0 -0.52209969795E+02  0.11926519899E+02 -0.25962554239E+03  0.27795312401E+03  0.83572687298E+02 0.  0.
          5    1    5    5  501    0  0.44755071213E+02  0.58274658736E+02 -0.75523054901E+02  0.10547404454E+03  0.47000000000E+01 0. -1.
        -13    1    6    6    0    0 -0.41439430150E+02  0.43918741671E+02 -0.20528414270E+03  0.21398051660E+03  0.00000000000E+00 0.  1.
         14    1    6    6    0    0 -0.10770539645E+02 -0.31992221772E+02 -0.54341399686E+02  0.63972607404E+02  0.00000000000E+00 0. -1.
         -5    1    3    3    0  503  0.54737911807E+02 -0.45439347802E+02 -0.19001089116E+03  0.20294630344E+03  0.47000000000E+01 0.  1.
         11    1    4    4    0    0  0.34217124813E+00  0.40222317343E+01 -0.45011335984E+03  0.45013146095E+03  0.00000000000E+00 0. -1.
        -12    1    4    4    0    0 -0.47625184473E+02 -0.28784062567E+02 -0.22097089471E+03  0.22787017523E+03  0.00000000000E+00 0.  1.
</event>
<event>
12    1  0.8219652E-002  0.2257683E+03  0.7818608E-02  0.1129675E+00
         21   -1    0    0  501  502  0.00000000000E+00  0.00000000000E+00  0.42857001135E+03  0.42857001135E+03  0.00000000000E+00 0.  1.
         21   -1    0    0  502  503 -0.00000000000E+00 -0.00000000000E+00 -0.16749888123E+03  0.16749888123E+03  0.00000000000E+00 0.  1.
         -6    2    1    2    0  503  0.93765608443E+02  0.11269581448E+03 -0.30023378146E+02  0.22775587218E+03  0.17169449074E+03 0.  0.
        -24    2    3    3    0    0  0.88545391971E+02  0.88297246291E+02 -0.82382458964E+02  0.16956563130E+03  0.79554658132E+02 0.  0.
          6    2    1    2  501    0 -0.93765608443E+02 -0.11269581448E+03  0.29109450827E+03  0.36831302040E+03  0.17154046848E+03 0.  0.
         24    2    5    5    0    0 -0.11200511025E+03 -0.11830969208E+03  0.18005604729E+03  0.25554855408E+03  0.79640161754E+02 0.  0.
          5    1    5    5  501    0  0.18239501809E+02  0.56138776009E+01  0.11103846098E+03  0.11276446632E+03  0.47000000000E+01 0. -1.
        -11    1    6    6    0    0  0.11185133455E+01  0.29504792764E+00 -0.68555899722E+01  0.69524987775E+01  0.00000000000E+00 0.  1.
         12    1    6    6    0    0 -0.11312362360E+03 -0.11860474001E+03  0.18691163726E+03  0.24859605530E+03  0.00000000000E+00 0. -1.
         -5    1    3    3    0  503  0.52202164718E+01  0.24398568192E+02  0.52359080819E+02  0.58190240883E+02  0.47000000000E+01 0.  1.
         11    1    4    4    0    0  0.52441769460E+02  0.95062229196E+02 -0.75383667208E+02  0.13217285608E+03  0.00000000000E+00 0. -1.
        -12    1    4    4    0    0  0.36103622511E+02 -0.67649829043E+01 -0.69987917562E+01  0.37392775214E+02  0.00000000000E+00 0.  1.
</event>
<event>
12    1  0.8219652E-002  0.4038074E+03  0.7818608E-02  0.1042471E+00
         21   -1    0    0  501  502  0.00000000000E+00  0.00000000000E+00  0.43464648300E+03  0.43464648300E+03  0.00000000000E+00 0.  1.
         21   -1    0    0  502  503 -0.00000000000E+00 -0.00000000000E+00 -0.43667801939E+03  0.43667801939E+03  0.00000000000E+00 0. -1.
         -6    2    1    2    0  503  0.32459748682E+02 -0.36383370052E+03 -0.16456245419E+03  0.43605184534E+03  0.17213893684E+03 0.  0.
        -24    2    3    3    0    0  0.74097325923E+02 -0.32736398467E+03 -0.12097017853E+03  0.36543949153E+03  0.79086318104E+02 0.  0.
          6    2    1    2  501    0 -0.32459748682E+02  0.36383370052E+03  0.16253091779E+03  0.43527265705E+03  0.17209703607E+03 0.  0.
         24    2    5    5    0    0 -0.21321358822E+02  0.12819456783E+03  0.12324808803E+03  0.19607588597E+03  0.79794826232E+02 0.  0.
          5    1    5    5  501    0 -0.11138389860E+02  0.23563913269E+03  0.39282829764E+02  0.23919677108E+03  0.47000000000E+01 0. -1.
        -11    1    6    6    0    0  0.60921943823E+01  0.98510608306E+02  0.45985989769E+02  0.10888602314E+03  0.00000000000E+00 0.  1.
         12    1    6    6    0    0 -0.27413553204E+02  0.29683959525E+02  0.77262098258E+02  0.87189862826E+02  0.00000000000E+00 0. -1.
         -5    1    3    3    0  503 -0.41637577241E+02 -0.36469715849E+02 -0.43592275659E+02  0.70612353804E+02  0.47000000000E+01 0.  1.
         13    1    4    4    0    0  0.72095054258E+02 -0.19242876893E+03 -0.44234270665E+02  0.21019799871E+03  0.00000000000E+00 0. -1.
        -14    1    4    4    0    0  0.20022716652E+01 -0.13493521574E+03 -0.76735907861E+02  0.15524149282E+03  0.00000000000E+00 0.  1.
</event>
<event>
12    1  0.8219652E-002  0.2056397E+03  0.7818608E-02  0.1145320E+00
         21   -1    0    0  501  502  0.00000000000E+00  0.00000000000E+00  0.13239195181E+04  0.13239195181E+04  0.00000000000E+00 0. -1.
         21   -1    0    0  502  503 -0.00000000000E+00 -0.00000000000E+00 -0.52647373989E+02  0.52647373989E+02  0.00000000000E+00 0.  1.
         -6    2    1    2    0  503  0.93389022100E+02  0.63023774432E+02  0.20314669352E+03  0.28906098793E+03  0.17202956159E+03 0.  0.
        -24    2    3    3    0    0  0.12244557990E+03  0.80355775232E+02  0.18910312660E+03  0.25212870429E+03  0.79742839099E+02 0.  0.
          6    2    1    2  501    0 -0.93389022100E+02 -0.63023774432E+02  0.10681254506E+04  0.10875059042E+04  0.17053916790E+03 0.  0.
         24    2    5    5    0    0 -0.61484336867E+01 -0.31732149400E+02  0.79283092399E+03  0.79699040984E+03  0.74619748033E+02 0.  0.
          5    1    5    5  501    0 -0.87240588413E+02 -0.31291625032E+02  0.27529452661E+03  0.29051549433E+03  0.47000000000E+01 0. -1.
        -11    1    6    6    0    0  0.20065507103E+02  0.10966979500E+02  0.44299007600E+03  0.44357987629E+03  0.00000000000E+00 0.  1.
         12    1    6    6    0    0 -0.26213940790E+02 -0.42699128900E+02  0.34984084799E+03  0.35341053355E+03  0.00000000000E+00 0. -1.
         -5    1    3    3    0  503 -0.29056557799E+02 -0.17332000800E+02  0.14043566920E+02  0.36932283638E+02  0.47000000000E+01 0.  1.
         13    1    4    4    0    0  0.59873764300E+02  0.83309285670E+02  0.13351416131E+03  0.16837854970E+03  0.00000000000E+00 0. -1.
        -14    1    4    4    0    0  0.62571815600E+02 -0.29535104377E+01  0.55588965291E+02  0.83750154587E+02  0.00000000000E+00 0.  1.
</event>
<event>
12    1  0.8219652E-002  0.1757833E+03  0.7818608E-02  0.1171988E+00
         21   -1    0    0  503  502  0.00000000000E+00  0.00000000000E+00  0.68896395947E+03  0.68896395947E+03  0.00000000000E+00 0. -1.
         21   -1    0    0  501  503 -0.00000000000E+00 -0.00000000000E+00 -0.65541306907E+02  0.65541306907E+02  0.00000000000E+00 0. -1.
          6    2    1    2  501    0  0.30291637977E+02  0.21073327917E+02  0.99434265437E+02  0.20181765063E+03  0.17170184181E+03 0.  0.
         24    2    3    3    0    0 -0.49116175156E+02  0.21278336531E+02  0.57513490530E+02  0.11190055446E+03  0.79679145502E+02 0.  0.
         -6    2    1    2    0  502 -0.30291637977E+02 -0.21073327917E+02  0.52398838712E+03  0.55268761575E+03  0.17186652460E+03 0.  0.
        -24    2    5    5    0    0 -0.74683026387E+02  0.21292890661E+02  0.37745402738E+03  0.39375398046E+03  0.80868490243E+02 0.  0.
          5    1    3    3  501    0  0.79407813132E+02 -0.20500861455E+00  0.41920774907E+02  0.89917096170E+02  0.47000000000E+01 0. -1.
        -11    1    4    4    0    0 -0.21912739269E+02  0.23109483817E+02  0.73634419265E+02  0.80226205725E+02  0.00000000000E+00 0.  1.
         12    1    4    4    0    0 -0.27203435886E+02 -0.18311472854E+01 -0.16120928735E+02  0.31674348734E+02  0.00000000000E+00 0. -1.
         -5    1    5    5    0  502  0.44391388410E+02 -0.42366218578E+02  0.14653435974E+03  0.15893363529E+03  0.47000000000E+01 0.  1.
         11    1    6    6    0    0 -0.28225087430E+02  0.46228423626E+02  0.25044713625E+03  0.25623717678E+03  0.00000000000E+00 0. -1.
        -12    1    6    6    0    0 -0.46457938957E+02 -0.24935532965E+02  0.12700689113E+03  0.13751680367E+03  0.00000000000E+00 0.  1.
</event>
<event>
12    1  0.8219652E-002  0.1937538E+03  0.7818608E-02  0.1156535E+00
         21   -1    0    0  503  502  0.00000000000E+00  0.00000000000E+00  0.79758216323E+03  0.79758216323E+03  0.00000000000E+00 0.  1.
         21   -1    0    0  501  503 -0.00000000000E+00 -0.00000000000E+00 -0.57915983394E+02  0.57915983394E+02  0.00000000000E+00 0.  1.
          6    2    1    2  501    0  0.14568863923E+02  0.84042778191E+02  0.16731038185E+03  0.25123687421E+03  0.16688847391E+03 0.  0.
         24    2    3    3    0    0  0.52255109798E+02  0.19552233427E+02  0.14245426692E+03  0.17237496996E+03  0.79416785210E+02 0.  0.
         -6    2    1    2    0  502 -0.14568863923E+02 -0.84042778191E+02  0.57235579798E+03  0.60426127241E+03  0.17396863365E+03 0.  0.
        -24    2    5    5    0    0  0.10537781890E+00 -0.44831653548E+02  0.54906067901E+03  0.55611983252E+03  0.76103552033E+02 0.  0.
          5    1    3    3  501    0 -0.37686245875E+02  0.64490544764E+02  0.24856114933E+02  0.78861904248E+02  0.47000000000E+01 0. -1.
        -11    1    4    4    0    0  0.62571152407E+02  0.33322381681E+02  0.76856910272E+02  0.10455866722E+03  0.00000000000E+00 0.  1.
         12    1    4    4    0    0 -0.10316042609E+02 -0.13770148254E+02  0.65597356647E+02  0.67816302739E+02  0.00000000000E+00 0. -1.
         -5    1    5    5    0  502 -0.14674241742E+02 -0.39211124643E+02  0.23295118977E+02  0.48141439889E+02  0.47000000000E+01 0.  1.
         13    1    6    6    0    0  0.21165853007E+02 -0.59142603880E+02  0.38223346086E+03  0.38736063240E+03  0.00000000000E+00 0. -1.
        -14    1    6    6    0    0 -0.21060475188E+02  0.14310950332E+02  0.16682721814E+03  0.16875920013E+03  0.00000000000E+00 0.  1.
</event>
<event>
12    1  0.8219652E-002  0.2249034E+03  0.7818608E-02  0.1130875E+00
         21   -1    0    0  501  502  0.00000000000E+00  0.00000000000E+00  0.17907785957E+03  0.17907785957E+03  0.00000000000E+00 0.  1.
         21   -1    0    0  502  503 -0.00000000000E+00 -0.00000000000E+00 -0.30757498447E+03  0.30757498447E+03  0.00000000000E+00 0. -1.
         -6    2    1    2    0  503  0.12894922125E+03 -0.59722423560E+02 -0.13880026226E+03  0.26151352121E+03  0.17008568263E+03 0.  0.
        -24    2    3    3    0    0  0.78722562822E+02 -0.79610489588E+02 -0.15045045011E+03  0.20605119828E+03  0.85362090089E+02 0.  0.
          6    2    1    2  501    0 -0.12894922125E+03  0.59722423560E+02  0.10303137362E+02  0.22513932283E+03  0.17431835965E+03 0.  0.
         24    2    5    5    0    0 -0.16171322145E+03  0.61102587133E+02  0.20344854879E+02  0.19052269892E+03  0.77461561665E+02 0.  0.
          5    1    5    5  501    0  0.32764000202E+02 -0.13801635723E+01 -0.10041717517E+02  0.34616623917E+02  0.47000000000E+01 0. -1.
        -13    1    6    6    0    0 -0.29312313727E+02  0.40260124864E+02 -0.14813072774E+02  0.51956871684E+02  0.00000000000E+00 0.  1.
         14    1    6    6    0    0 -0.13240090773E+03  0.20842462268E+02  0.35157927653E+02  0.13856582723E+03  0.00000000000E+00 0. -1.
         -5    1    3    3    0  503  0.50226658429E+02  0.19888066028E+02  0.11650187859E+02  0.55462322926E+02  0.47000000000E+01 0.  1.
         13    1    4    4    0    0  0.68404711634E+02 -0.20795489042E+02 -0.11831708330E+03  0.13824105446E+03  0.00000000000E+00 0. -1.
        -14    1    4    4    0    0  0.10317851188E+02 -0.58815000546E+02 -0.32133366818E+02  0.67810143824E+02  0.00000000000E+00 0.  1.
</event>
<event>
12    1  0.8219652E-002  0.2741969E+03  0.7818608E-02  0.1099434E+00
         21   -1    0    0  501  502  0.00000000000E+00  0.00000000000E+00  0.17722392398E+03  0.17722392398E+03  0.00000000000E+00 0.  1.
         21   -1    0    0  502  503 -0.00000000000E+00 -0.00000000000E+00 -0.86765879312E+03  0.86765879312E+03  0.00000000000E+00 0. -1.
         -6    2    1    2    0  503 -0.20111510391E+03  0.56193770301E+02 -0.71998736443E+03  0.76909784921E+03  0.17182744795E+03 0.  0.
        -24    2    3    3    0    0 -0.10457388722E+03  0.71370251613E+02 -0.26158090083E+03  0.30036646773E+03  0.75934422738E+02 0.  0.
          6    2    1    2  501    0  0.20111510391E+03 -0.56193770301E+02  0.29552495293E+02  0.27578486790E+03  0.17770458223E+03 0.  0.
         24    2    5    5    0    0  0.17505178152E+03 -0.97496322361E+02  0.12541220974E+01  0.21914490404E+03  0.88737010641E+02 0.  0.
          5    1    5    5  501    0  0.26063322389E+02  0.41302552059E+02  0.28298373196E+02  0.56639963860E+02  0.47000000000E+01 0. -1.
        -11    1    6    6    0    0  0.13305448594E+03 -0.35190416856E+02  0.25944996399E+02  0.14005357727E+03  0.00000000000E+00 0.  1.
         12    1    6    6    0    0  0.41997295579E+02 -0.62305905505E+02 -0.24690874302E+02  0.79091326772E+02  0.00000000000E+00 0. -1.
         -5    1    3    3    0  503 -0.96541216694E+02 -0.15176481311E+02 -0.45840646360E+03  0.46873138147E+03  0.47000000000E+01 0.  1.
         13    1    4    4    0    0 -0.50987920678E+01 -0.26526792005E+01 -0.81633388323E+02  0.81835471995E+02  0.00000000000E+00 0. -1.
        -14    1    4    4    0    0 -0.99475095148E+02  0.74022930813E+02 -0.17994751251E+03  0.21853099574E+03  0.00000000000E+00 0.  1.
</event>
<event>
12    1  0.8219652E-002  0.1886501E+03  0.7818608E-02  0.1160153E+00
         21   -1    0    0  501  502  0.00000000000E+00  0.00000000000E+00  0.11504783691E+04  0.11504783691E+04  0.00000000000E+00 0. -1.
         21   -1    0    0  502  503 -0.00000000000E+00 -0.00000000000E+00 -0.12047292032E+03  0.12047292032E+03  0.00000000000E+00 0. -1.
         -6    2    1    2    0  503  0.12126494996E+02 -0.72432064751E+02 -0.34579594631E+02  0.18978054896E+03  0.17154431647E+03 0.  0.
        -24    2    3    3    0    0 -0.76541372392E+01  0.16697304671E+02  0.18359898477E+02  0.84139658033E+02  0.80031308759E+02 0.  0.
          6    2    1    2  501    0 -0.12126494996E+02  0.72432064751E+02  0.10645850435E+04  0.10811707405E+04  0.17376823500E+03 0.  0.
         24    2    5    5    0    0  0.43332543171E+02  0.76189425957E+01  0.34736304373E+03  0.35887860252E+03  0.78721087447E+02 0.  0.
          5    1    5    5  501    0 -0.55459038167E+02  0.64813122155E+02  0.71722199972E+03  0.72229213799E+03  0.47000000000E+01 0. -1.
        -13    1    6    6    0    0  0.46056499898E+02  0.35914467020E+02  0.18356360501E+03  0.19263085737E+03  0.00000000000E+00 0.  1.
         14    1    6    6    0    0 -0.27239567267E+01 -0.28295524424E+02  0.16379943872E+03  0.16624774515E+03  0.00000000000E+00 0. -1.
         -5    1    3    3    0  503  0.19780632235E+02 -0.89129369421E+02 -0.52939493108E+02  0.10564089093E+03  0.47000000000E+01 0.  1.
         11    1    4    4    0    0  0.29479745567E+02  0.67885331553E+01 -0.14525136819E+02  0.33557699276E+02  0.00000000000E+00 0. -1.
        -12    1    4    4    0    0 -0.37133882806E+02  0.99087715153E+01  0.32885035297E+02  0.50581958757E+02  0.00000000000E+00 0.  1.
</event>
<event>
12    1  0.8219652E-002  0.1870278E+03  0.7818608E-02  0.1161184E+00
         21   -1    0    0  501  502  0.00000000000E+00  0.00000000000E+00  0.15586574245E+03  0.15586574245E+03  0.00000000000E+00 0.  1.
         21   -1    0    0  502  503 -0.00000000000E+00 -0.00000000000E+00 -0.23537757125E+03  0.23537757125E+03  0.00000000000E+00 0.  1.
         -6    2    1    2    0  503 -0.16803417134E+02 -0.69198368322E+02 -0.82111562627E+02  0.20425892907E+03  0.17294112404E+03 0.  0.
        -24    2    3    3    0    0 -0.12829929495E+02 -0.34628897401E+02 -0.12047844639E+03  0.15224984627E+03  0.85447012933E+02 0.  0.
          6    2    1    2  501    0  0.16803417134E+02  0.69198368322E+02  0.25997338276E+01  0.18698438464E+03  0.17287461490E+03 0.  0.
         24    2    5    5    0    0  0.55026795627E+02  0.22969818919E+02  0.50039435812E+02  0.11036375577E+03  0.78234599976E+02 0.  0.
          5    1    5    5  501    0 -0.38223378493E+02  0.46228549403E+02 -0.47439701985E+02  0.76620628865E+02  0.47000000000E+01 0. -1.
        -11    1    6    6    0    0  0.10504150939E+02  0.39213521252E+02  0.48085039618E+02  0.62930187279E+02  0.00000000000E+00 0.  1.
         12    1    6    6    0    0  0.44522644688E+02 -0.16243702333E+02  0.19543961947E+01  0.47433568493E+02  0.00000000000E+00 0. -1.
         -5    1    3    3    0  503 -0.39734876387E+01 -0.34569470920E+02  0.38366883765E+02  0.52009082799E+02  0.47000000000E+01 0.  1.
         11    1    4    4    0    0  0.16480953269E+02 -0.43430417742E+02 -0.26644731457E+02  0.53551514641E+02  0.00000000000E+00 0. -1.
        -12    1    4    4    0    0 -0.29310882764E+02  0.88015203402E+01 -0.93833714935E+02  0.98698331633E+02  0.00000000000E+00 0.  1.
</event>
<event>
12    1  0.8219652E-002  0.1909010E+03  0.7818608E-02  0.1159453E+00
         21   -1    0    0  501  502  0.00000000000E+00  0.00000000000E+00  0.55948768832E+02  0.55948768832E+02  0.00000000000E+00 0.  1.
         21   -1    0    0  502  503 -0.00000000000E+00 -0.00000000000E+00 -0.63510901795E+03  0.63510901795E+03  0.00000000000E+00 0.  1.
         -6    2    1    2    0  503 -0.51703273447E+02 -0.62821300885E+02 -0.32757046479E+03  0.37524042434E+03  0.16396103905E+03 0.  0.
        -24    2    3    3    0    0 -0.49313584461E+02 -0.99884359215E+02 -0.29863214942E+03  0.32792344005E+03  0.77096738179E+02 0.  0.
          6    2    1    2  501    0  0.51703273447E+02  0.62821300885E+02 -0.25158978432E+03  0.31581736244E+03  0.17269465107E+03 0.  0.
         24    2    5    5    0    0 -0.30274534384E+02  0.17063067704E+02 -0.17046456195E+03  0.19164986030E+03  0.80397800727E+02 0.  0.
          5    1    5    5  501    0  0.81977807831E+02  0.45758233181E+02 -0.81125222375E+02  0.12416750213E+03  0.47000000000E+01 0. -1.
        -13    1    6    6    0    0  0.20444814019E+01 -0.19252910652E+02 -0.12009841491E+03  0.12164901865E+03  0.00000000000E+00 0.  1.
         14    1    6    6    0    0 -0.32319015786E+02  0.36315978356E+02 -0.50366147034E+02  0.70000841655E+02  0.00000000000E+00 0. -1.
         -5    1    3    3    0  503 -0.23896889858E+01  0.37063058330E+02 -0.28938315370E+02  0.47316984293E+02  0.47000000000E+01 0.  1.
         11    1    4    4    0    0 -0.46490171963E+02 -0.61856100027E+02 -0.10420957002E+03  0.12979656268E+03  0.00000000000E+00 0. -1.
        -12    1    4    4    0    0 -0.28234124982E+01 -0.38028259188E+02 -0.19442257941E+03  0.19812687737E+03  0.00000000000E+00 0.  1.
</event>
<event>
12    1  0.8219652E-002  0.1788401E+03  0.7818608E-02  0.1172970E+00
         21   -1    0    0  503  502  0.00000000000E+00  0.00000000000E+00  0.25703848418E+03  0.25703848418E+03  0.00000000000E+00 0.  1.
         21   -1    0    0  501  503 -0.00000000000E+00 -0.00000000000E+00 -0.11371118036E+03  0.11371118036E+03  0.00000000000E+00 0.  1.
          6    2    1    2  501    0 -0.37969937371E+02 -0.31711936816E+01  0.67653585931E+02  0.17655826751E+03  0.15856872808E+03 0.  0.
         24    2    3    3    0    0 -0.29692152666E+01 -0.41277435994E+02  0.59241955533E+02  0.12392765117E+03  0.10067676230E+03 0.  0.
         -6    2    1    2    0  502  0.37969937371E+02  0.31711936816E+01  0.75673717892E+02  0.19419139702E+03  0.17473412513E+03 0.  0.
        -24    2    5    5    0    0  0.61205584343E+02 -0.49104345132E+02  0.18301852084E+02  0.11303569337E+03  0.79276414660E+02 0.  0.
          5    1    3    3  501    0 -0.35000722105E+02  0.38106242312E+02  0.84116303979E+01  0.52630616346E+02  0.47000000000E+01 0. -1.
        -11    1    4    4    0    0 -0.51503235916E+02 -0.16107816960E+02  0.25536540084E+02  0.59700585898E+02  0.00000000000E+00 0.  1.
         12    1    4    4    0    0  0.48534020650E+02 -0.25169619033E+02  0.33705415450E+02  0.64227065271E+02  0.00000000000E+00 0. -1.
         -5    1    5    5    0  502 -0.23235646972E+02  0.52275538813E+02  0.57371865809E+02  0.81155703649E+02  0.47000000000E+01 0.  1.
         13    1    6    6    0    0  0.39475310022E+02  0.49282772456E-01 -0.22610657557E+02  0.45492245111E+02  0.00000000000E+00 0. -1.
        -14    1    6    6    0    0  0.21730274322E+02 -0.49153627904E+02  0.40912509640E+02  0.67543448263E+02  0.00000000000E+00 0.  1.
</event>
<event>
12    1  0.8219652E-002  0.3637667E+03  0.7818608E-02  0.1057122E+00
         21   -1    0    0  501  502  0.00000000000E+00  0.00000000000E+00  0.39771499897E+03  0.39771499897E+03  0.00000000000E+00 0. -1.
         21   -1    0    0  502  503 -0.00000000000E+00 -0.00000000000E+00 -0.49004167433E+03  0.49004167433E+03  0.00000000000E+00 0. -1.
         -6    2    1    2    0  503 -0.21856553754E+03 -0.23389730730E+03 -0.29782670186E+03  0.47013504499E+03  0.17276391876E+03 0.  0.
        -24    2    3    3    0    0 -0.22836906092E+03 -0.23136431511E+03 -0.24200755779E+03  0.41321060416E+03  0.80582076613E+02 0.  0.
          6    2    1    2  501    0  0.21856553754E+03  0.23389730730E+03  0.20550002650E+03  0.41762162831E+03  0.17233316275E+03 0.  0.
         24    2    5    5    0    0  0.10149971596E+03  0.19447998003E+03  0.16970745508E+03  0.28893079554E+03  0.80967458455E+02 0.  0.
          5    1    5    5  501    0  0.11706582158E+03  0.39417327271E+02  0.35792571419E+02  0.12869083278E+03  0.47000000000E+01 0. -1.
        -11    1    6    6    0    0  0.28378378138E+02  0.96104342649E+02  0.33423737750E+02  0.10563391154E+03  0.00000000000E+00 0.  1.
         12    1    6    6    0    0  0.73121337820E+02  0.98375637379E+02  0.13628371733E+03  0.18329688400E+03  0.00000000000E+00 0. -1.
         -5    1    3    3    0  503  0.98035233737E+01 -0.25329921922E+01 -0.55819144066E+02  0.56924440834E+02  0.47000000000E+01 0.  1.
         11    1    4    4    0    0 -0.15237868576E+03 -0.12116032091E+03 -0.10307219134E+03  0.22027928606E+03  0.00000000000E+00 0. -1.
        -12    1    4    4    0    0 -0.75990375152E+02 -0.11020399419E+03 -0.13893536645E+03  0.19293131810E+03  0.00000000000E+00 0.  1.
</event>
<event>
12    1  0.8219652E-002  0.2462775E+03  0.7818608E-02  0.1115700E+00
         21   -1    0    0  503  502  0.00000000000E+00  0.00000000000E+00  0.21464368057E+03  0.21464368057E+03  0.00000000000E+00 0.  1.
         21   -1    0    0  501  503 -0.00000000000E+00 -0.00000000000E+00 -0.38532710486E+03  0.38532710486E+03  0.00000000000E+00 0.  1.
          6    2    1    2  501    0  0.33039793981E+02 -0.17322899144E+03 -0.24037704546E+03  0.34414203697E+03  0.17190900549E+03 0.  0.
         24    2    3    3    0    0 -0.42483025345E+02 -0.13211101141E+03 -0.16097158181E+03  0.22700236745E+03  0.79750221916E+02 0.  0.
         -6    2    1    2    0  502 -0.33039793981E+02  0.17322899144E+03  0.69693621175E+02  0.25582874846E+03  0.17173012620E+03 0.  0.
        -24    2    5    5    0    0 -0.77143524231E+02  0.66528657792E+02  0.28626127999E+02  0.13319625188E+03  0.80898706238E+02 0.  0.
          5    1    3    3  501    0  0.75522819326E+02 -0.41117980024E+02 -0.79405463645E+02  0.11713966953E+03  0.47000000000E+01 0. -1.
        -13    1    4    4    0    0  0.10207440803E+02 -0.69718375360E+02 -0.39933489156E+02  0.80990908544E+02  0.00000000000E+00 0.  1.
         14    1    4    4    0    0 -0.52690466148E+02 -0.62392636052E+02 -0.12103809266E+03  0.14601145890E+03  0.00000000000E+00 0. -1.
         -5    1    5    5    0  502  0.44103730250E+02  0.10670033364E+03  0.41067493177E+02  0.12263249658E+03  0.47000000000E+01 0.  1.
         11    1    6    6    0    0 -0.54103968946E+02  0.88060461294E+01  0.42685067328E+02  0.69475181734E+02  0.00000000000E+00 0. -1.
        -12    1    6    6    0    0 -0.23039555285E+02  0.57722611663E+02 -0.14058939330E+02  0.63721070141E+02  0.00000000000E+00 0.  1.
</event>
<event>
12    1  0.8219652E-002  0.2390474E+03  0.7818608E-02  0.1120626E+00
         21   -1    0    0  501  502  0.00000000000E+00  0.00000000000E+00  0.15132720389E+02  0.15132720389E+02  0.00000000000E+00 0. -1.
         21   -1    0    0  502  503 -0.00000000000E+00 -0.00000000000E+00 -0.37624892682E+04  0.37624892682E+04  0.00000000000E+00 0.  1.
         -6    2    1    2    0  503  0.16596045340E+03 -0.10907099418E+02 -0.19366690608E+04  0.19512231151E+04  0.17006691881E+03 0.  0.
        -24    2    3    3    0    0  0.12272391919E+03 -0.69134179142E+02 -0.11219214555E+04  0.11332405107E+04  0.75402969150E+02 0.  0.
          6    2    1    2  501    0 -0.16596045340E+03  0.10907099418E+02 -0.18106874870E+04  0.18263988735E+04  0.17170274491E+03 0.  0.
         24    2    5    5    0    0 -0.13591030995E+03 -0.51020144558E+02 -0.11042473305E+04  0.11165976482E+04  0.79708679684E+02 0.  0.
          5    1    5    5  501    0 -0.30050143448E+02  0.61927243976E+02 -0.70644015650E+03  0.70980122526E+03  0.47000000000E+01 0. -1.
        -13    1    6    6    0    0 -0.34574643094E+02  0.88121125946E+01 -0.48208313946E+03  0.48340170937E+03  0.00000000000E+00 0.  1.
         14    1    6    6    0    0 -0.10133566685E+03 -0.59832257152E+02 -0.62216419101E+03  0.63319593883E+03  0.00000000000E+00 0. -1.
         -5    1    3    3    0  503  0.43236534209E+02  0.58227079724E+02 -0.81474760531E+03  0.81798260438E+03  0.47000000000E+01 0.  1.
         13    1    4    4    0    0 -0.32547781182E+01  0.99526451501E+01 -0.10072931945E+03  0.10127213103E+03  0.00000000000E+00 0. -1.
        -14    1    4    4    0    0  0.12597869731E+03 -0.79086824292E+02 -0.10211921360E+04  0.10319683797E+04  0.00000000000E+00 0.  1.
</event>
<event>
12    1  0.8219652E-002  0.1894597E+03  0.7818608E-02  0.1160121E+00
         21   -1    0    0  501  502  0.00000000000E+00  0.00000000000E+00  0.83986526566E+02  0.83986526566E+02  0.00000000000E+00 0. -1.
         21   -1    0    0  502  503 -0.00000000000E+00 -0.00000000000E+00 -0.48542726559E+03  0.48542726559E+03  0.00000000000E+00 0.  1.
         -6    2    1    2    0  503 -0.34709774013E+02 -0.70154375729E+02 -0.31076495227E+03  0.36396407234E+03  0.17253575151E+03 0.  0.
        -24    2    3    3    0    0  0.14870671491E+02  0.12667412580E+02 -0.20608381238E+03  0.22149337274E+03  0.78785634687E+02 0.  0.
          6    2    1    2  501    0  0.34709774013E+02  0.70154375729E+02 -0.90675786756E+02  0.20544971982E+03  0.16691639890E+03 0.  0.
         24    2    5    5    0    0  0.13065963392E+02 -0.18452433519E+02 -0.19826866116E+02  0.89858713510E+02  0.84677459052E+02 0.  0.
          5    1    5    5  501    0  0.21643810621E+02  0.88606809248E+02 -0.70848920640E+02  0.11559100631E+03  0.47000000000E+01 0. -1.
        -11    1    6    6    0    0 -0.14671397206E+01  0.50556464792E+01 -0.49226983928E+02  0.49507656043E+02  0.00000000000E+00 0.  1.
         12    1    6    6    0    0  0.14533103113E+02 -0.23508079998E+02  0.29400117812E+02  0.40351057466E+02  0.00000000000E+00 0. -1.
         -5    1    3    3    0  503 -0.49580445504E+02 -0.82821788308E+02 -0.10468113990E+03  0.14247069960E+03  0.47000000000E+01 0.  1.
         13    1    4    4    0    0 -0.11196052822E+02 -0.18864223030E+02 -0.16246010883E+02  0.27297314501E+02  0.00000000000E+00 0. -1.
        -14    1    4    4    0    0  0.26066724313E+02  0.31531635610E+02 -0.18983780149E+03  0.19419605824E+03  0.00000000000E+00 0.  1.
</event>
<event>
12    1  0.8219652E-002  0.2793180E+03  0.7818608E-02  0.1096217E+00
         21   -1    0    0  503  502  0.00000000000E+00  0.00000000000E+00  0.21058073781E+03  0.21058073781E+03  0.00000000000E+00 0.  1.
         21   -1    0    0  501  503 -0.00000000000E+00 -0.00000000000E+00 -0.45563659956E+03  0.45563659956E+03  0.00000000000E+00 0. -1.
          6    2    1    2  501    0  0.16219252158E+03  0.15108361795E+03 -0.26758390522E+03  0.38599236611E+03  0.16809606388E+03 0.  0.
         24    2    3    3    0    0  0.16586864270E+03  0.11886168181E+03 -0.15441921829E+03  0.26817851547E+03  0.80211689588E+02 0.  0.
         -6    2    1    2    0  502 -0.16219252158E+03 -0.15108361795E+03  0.22528043474E+02  0.28022497127E+03  0.16995837169E+03 0.  0.
        -24    2    5    5    0    0 -0.10503958605E+03 -0.32472536137E+02  0.52096933040E+02  0.14520106228E+03  0.79255774638E+02 0.  0.
          5    1    3    3  501    0 -0.36761211179E+01  0.32221936140E+02 -0.11316468693E+03  0.11781385064E+03  0.47000000000E+01 0. -1.
        -13    1    4    4    0    0  0.50371666611E+01 -0.39967007528E+01  0.68501639838E+01  0.93952866632E+01  0.00000000000E+00 0.  1.
         14    1    4    4    0    0  0.16083147604E+03  0.12285838256E+03 -0.16126938227E+03  0.25878322880E+03  0.00000000000E+00 0. -1.
         -5    1    5    5    0  502 -0.57152935534E+02 -0.11861108181E+03 -0.29568889566E+02  0.13502390899E+03  0.47000000000E+01 0.  1.
         13    1    6    6    0    0 -0.38690728619E+02  0.25012981799E+02  0.73094084794E+01  0.46648142427E+02  0.00000000000E+00 0. -1.
        -14    1    6    6    0    0 -0.66348857431E+02 -0.57485517936E+02  0.44787524560E+02  0.98552919850E+02  0.00000000000E+00 0.  1.
</event>
<event>
12    1  0.8219652E-002  0.2146765E+03  0.7818608E-02  0.1138058E+00
         21   -1    0    0  503  502  0.00000000000E+00  0.00000000000E+00  0.21709283531E+02  0.21709283531E+02  0.00000000000E+00 0.  1.
         21   -1    0    0  501  503 -0.00000000000E+00 -0.00000000000E+00 -0.24335083800E+04  0.24335083800E+04  0.00000000000E+00 0. -1.
          6    2    1    2  501    0  0.12018937186E+02  0.12657591610E+03 -0.76034999992E+03  0.78987381721E+03  0.17205408264E+03 0.  0.
         24    2    3    3    0    0 -0.69501397314E+01  0.96474432638E+02 -0.24833069497E+03  0.27659827344E+03  0.74046270772E+02 0.  0.
         -6    2    1    2    0  502 -0.12018937186E+02 -0.12657591610E+03 -0.16514490965E+04  0.16653438463E+04  0.17297424833E+03 0.  0.
        -24    2    5    5    0    0 -0.24844156003E+02 -0.13774669620E+03 -0.94396333771E+03  0.95763807305E+03  0.80078159319E+02 0.  0.
          5    1    3    3  501    0  0.18969076917E+02  0.30101483467E+02 -0.51201930495E+03  0.51327554377E+03  0.47000000000E+01 0. -1.
        -13    1    4    4    0    0 -0.39143708086E+02  0.65076664197E+02 -0.13925742014E+03  0.15861850829E+03  0.00000000000E+00 0.  1.
         14    1    4    4    0    0  0.32193568355E+02  0.31397768440E+02 -0.10907327482E+03  0.11797976516E+03  0.00000000000E+00 0. -1.
         -5    1    5    5    0  502  0.12825218817E+02  0.11170780097E+02 -0.70748575881E+03  0.70770577325E+03  0.47000000000E+01 0.  1.
         11    1    6    6    0    0  0.97620328984E+00 -0.25643460495E+02 -0.43845487791E+03  0.43920521400E+03  0.00000000000E+00 0. -1.
        -12    1    6    6    0    0 -0.25820359293E+02 -0.11210323571E+03 -0.50550845980E+03  0.51843285905E+03  0.00000000000E+00 0.  1.
</event>
<event>
12    1  0.8219652E-002  0.2243743E+03  0.7818608E-02  0.1131138E+00
         21   -1    0    0  503  502  0.00000000000E+00  0.00000000000E+00  0.66870087980E+02  0.66870087980E+02  0.00000000000E+00 0. -1.
         21   -1    0    0  501  503 -0.00000000000E+00 -0.00000000000E+00 -0.98751388230E+03  0.98751388230E+03  0.00000000000E+00 0.  1.
          6    2    1    2  501    0  0.13158889446E+03  0.59023971152E+02 -0.72403368239E+03  0.75800302742E+03  0.17188469982E+03 0.  0.
         24    2    3    3    0    0  0.61165510440E+02 -0.17709214672E+02 -0.21036377411E+03  0.23385963149E+03  0.79891012217E+02 0.  0.
         -6    2    1    2    0  502 -0.13158889446E+03 -0.59023971152E+02 -0.19661011193E+03  0.29638094286E+03  0.16848341420E+03 0.  0.
        -24    2    5    5    0    0 -0.11556834721E+03  0.14467209384E+02 -0.96543822946E+02  0.17110938287E+03  0.79952286602E+02 0.  0.
          5    1    3    3  501    0  0.70423384023E+02  0.76733185824E+02 -0.51366990828E+03  0.52414339593E+03  0.47000000000E+01 0. -1.
        -11    1    4    4    0    0 -0.10777774377E+02  0.12129938457E+02 -0.82981187619E+02  0.84552784260E+02  0.00000000000E+00 0.  1.
         12    1    4    4    0    0  0.71943284817E+02 -0.29839153129E+02 -0.12738258649E+03  0.14930684723E+03  0.00000000000E+00 0. -1.
         -5    1    5    5    0  502 -0.16020547255E+02 -0.73491180536E+02 -0.10006628899E+03  0.12527155999E+03  0.47000000000E+01 0.  1.
         11    1    6    6    0    0 -0.84846168633E+02 -0.39248136889E+01 -0.20977734857E+02  0.87489095629E+02  0.00000000000E+00 0. -1.
        -12    1    6    6    0    0 -0.30722178575E+02  0.18392023073E+02 -0.75566088088E+02  0.83620287240E+02  0.00000000000E+00 0.  1.
</event>
<event>
12    1  0.8219652E-002  0.1915525E+03  0.7818608E-02  0.1161375E+00
         21   -1    0    0  501  502  0.00000000000E+00  0.00000000000E+00  0.29987015798E+03  0.29987015798E+03  0.00000000000E+00 0.  1.
         21   -1    0    0  502  503 -0.00000000000E+00 -0.00000000000E+00 -0.16687881319E+03  0.16687881319E+03  0.00000000000E+00 0.  1.
         -6    2    1    2    0  503 -0.27449428144E+02 -0.27056960664E+02 -0.66275987462E+02  0.20269403655E+03  0.18763479345E+03 0.  0.
        -24    2    3    3    0    0 -0.80284727359E+02 -0.42665568315E+02 -0.80438783139E+02  0.14561626279E+03  0.80422074021E+02 0.  0.
          6    2    1    2  501    0  0.27449428144E+02  0.27056960664E+02  0.19926733226E+03  0.26405493462E+03  0.16891414555E+03 0.  0.
         24    2    5    5    0    0  0.47117284038E+02 -0.20172776368E+01  0.18583379236E+02  0.79932918645E+02  0.61804705607E+02 0.  0.
          5    1    5    5  501    0 -0.19667855894E+02  0.29074238301E+02  0.18068395302E+03  0.18412201598E+03  0.47000000000E+01 0. -1.
        -13    1    6    6    0    0  0.43359943501E+02  0.21734565776E+02  0.25652409051E+02  0.54868225231E+02  0.00000000000E+00 0.  1.
         14    1    6    6    0    0  0.37573405370E+01 -0.23751843413E+02 -0.70690298154E+01  0.25064693414E+02  0.00000000000E+00 0. -1.
         -5    1    3    3    0  503  0.52835299215E+02  0.15608607651E+02  0.14162795677E+02  0.57077773759E+02  0.47000000000E+01 0.  1.
         11    1    4    4    0    0  0.16062813146E+01 -0.38394098090E+02 -0.17398347286E+02  0.42182809248E+02  0.00000000000E+00 0. -1.
        -12    1    4    4    0    0 -0.81891008674E+02 -0.42714702255E+01 -0.63040435853E+02  0.10343345354E+03  0.00000000000E+00 0.  1.
</event>
<event>
12    1  0.8219652E-002  0.1908129E+03  0.7818608E-02  0.1157985E+00
         21   -1    0    0  503  502  0.00000000000E+00  0.00000000000E+00  0.11368181640E+03  0.11368181640E+03  0.00000000000E+00 0. -1.
         21   -1    0    0  501  503 -0.00000000000E+00 -0.00000000000E+00 -0.58681925261E+03  0.58681925261E+03  0.00000000000E+00 0. -1.
          6    2    1    2  501    0  0.66107622550E+02 -0.41680580043E+02 -0.47307933298E+03  0.50968816878E+03  0.17283080046E+03 0.  0.
         24    2    3    3    0    0  0.32784410775E+02  0.37730725385E+02 -0.13940535662E+03  0.16504777014E+03  0.72859369652E+02 0.  0.
         -6    2    1    2    0  502 -0.66107622550E+02  0.41680580043E+02 -0.58103228901E-01  0.19081290023E+03  0.17407490057E+03 0.  0.
        -24    2    5    5    0    0  0.30647154772E+02  0.43799997080E+02  0.14928430521E+02  0.92768700726E+02  0.74333612564E+02 0.  0.
          5    1    3    3  501    0  0.33323211775E+02 -0.79411305428E+02 -0.33367397636E+03  0.34464039864E+03  0.47000000000E+01 0. -1.
        -11    1    4    4    0    0 -0.21398878831E+02  0.12089760048E+02 -0.20976343424E+02  0.32312246853E+02  0.00000000000E+00 0.  1.
         12    1    4    4    0    0  0.54183289606E+02  0.25640965338E+02 -0.11842901319E+03  0.13273552329E+03  0.00000000000E+00 0. -1.
         -5    1    5    5    0  502 -0.96754777322E+02 -0.21194170373E+01 -0.14986533749E+02  0.98044199507E+02  0.47000000000E+01 0.  1.
         13    1    6    6    0    0  0.58001372714E+01  0.53067596488E+02  0.31027358857E+02  0.61745513092E+02  0.00000000000E+00 0. -1.
        -14    1    6    6    0    0  0.24847017500E+02 -0.92675994072E+01 -0.16098928336E+02  0.31023187634E+02  0.00000000000E+00 0.  1.
</event>
<event>
12    1  0.8219652E-002  0.2065393E+03  0.7818608E-02  0.1144471E+00
         21   -1    0    0  503  502  0.00000000000E+00  0.00000000000E+00  0.45298373963E+02  0.45298373963E+02  0.00000000000E+00 0.  1.
         21   -1    0    0  501  503 -0.00000000000E+00 -0.00000000000E+00 -0.12045949681E+04  0.12045949681E+04  0.00000000000E+00 0.  1.
          6    2    1    2  501    0 -0.21700757926E+02 -0.11024962543E+03 -0.87399113510E+03  0.89806403087E+03  0.17329915321E+03 0.  0.
         24    2    3    3    0    0 -0.29546692482E+02 -0.12253097608E+03 -0.86934601325E+03  0.88206223660E+03  0.79902761890E+02 0.  0.
         -6    2    1    2    0  502  0.21700757926E+02  0.11024962543E+03 -0.28530545900E+03  0.35182931116E+03  0.17250726493E+03 0.  0.
        -24    2    5    5    0    0  0.39444641545E+02 -0.59219070490E+01 -0.10946473583E+03  0.14028092357E+03  0.78136165751E+02 0.  0.
          5    1    3    3  501    0  0.78459345565E+01  0.12281350647E+02 -0.46451218590E+01  0.16001794271E+02  0.47000000000E+01 0. -1.
        -13    1    4    4    0    0 -0.50709137462E+02 -0.59308655711E+02 -0.35918768707E+03  0.36756595029E+03  0.00000000000E+00 0.  1.
         14    1    4    4    0    0  0.21162444979E+02 -0.63222320369E+02 -0.51015832617E+03  0.51449628632E+03  0.00000000000E+00 0. -1.
         -5    1    5    5    0  502 -0.17743883619E+02  0.11617153248E+03 -0.17584072318E+03  0.21154838759E+03  0.47000000000E+01 0.  1.
         11    1    6    6    0    0  0.13852423832E+02 -0.17937658631E+02 -0.10969053464E+03  0.11200742222E+03  0.00000000000E+00 0. -1.
        -12    1    6    6    0    0  0.25592217712E+02  0.12015751582E+02  0.22579881043E+00  0.28273501351E+02  0.00000000000E+00 0.  1.
</event>
<event>
12    1  0.8219652E-002  0.1796662E+03  0.7818608E-02  0.1168223E+00
         21   -1    0    0  503  502  0.00000000000E+00  0.00000000000E+00  0.36634591674E+03  0.36634591674E+03  0.00000000000E+00 0.  1.
         21   -1    0    0  501  503 -0.00000000000E+00 -0.00000000000E+00 -0.99675642984E+02  0.99675642984E+02  0.00000000000E+00 0.  1.
          6    2    1    2  501    0 -0.29182314824E+02  0.45192645324E+02  0.21322884796E+03  0.27857579054E+03  0.17100861610E+03 0.  0.
         24    2    3    3    0    0 -0.15438332407E+02  0.32330331362E+02  0.28702071885E+02  0.93031840860E+02  0.80916760006E+02 0.  0.
         -6    2    1    2    0  502  0.29182314824E+02 -0.45192645324E+02  0.53441425792E+02  0.18744576918E+03  0.17142329977E+03 0.  0.
        -24    2    5    5    0    0  0.38137689159E+02 -0.93316201824E+02  0.22473523707E+02  0.12933229072E+03  0.77842053526E+02 0.  0.
          5    1    3    3  501    0 -0.13743982417E+02  0.12862313962E+02  0.18452677608E+03  0.18554394968E+03  0.47000000000E+01 0. -1.
        -11    1    4    4    0    0 -0.22931070700E+02 -0.22562520693E+02  0.17084459395E+02  0.36424992742E+02  0.00000000000E+00 0.  1.
         12    1    4    4    0    0  0.74927382930E+01  0.54892852055E+02  0.11617612489E+02  0.56606848118E+02  0.00000000000E+00 0. -1.
         -5    1    5    5    0  502 -0.89553743347E+01  0.48123556500E+02  0.30967902084E+02  0.58113478464E+02  0.47000000000E+01 0.  1.
         11    1    6    6    0    0  0.94268025005E+01  0.21323835174E+01  0.27884841786E+02  0.29512303642E+02  0.00000000000E+00 0. -1.
        -12    1    6    6    0    0  0.28710886658E+02 -0.95448585342E+02 -0.54113180784E+01  0.99819987076E+02  0.00000000000E+00 0.  1.
</event>
<event>
12    1  0.8219652E-002  0.2039101E+03  0.7818608E-02  0.1146554E+00
         21   -1    0    0  503  502  0.00000000000E+00  0.00000000000E+00  0.21840929788E+03  0.21840929788E+03  0.00000000000E+00 0.  1.
         21   -1    0    0  501  503 -0.00000000000E+00 -0.00000000000E+00 -0.38893279142E+03  0.38893279142E+03  0.00000000000E+00 0. -1.
          6    2    1    2  501    0  0.45011705019E+02 -0.99994895171E+02 -0.30245390882E+03  0.36477074986E+03  0.17191364210E+03 0.  0.
         24    2    3    3    0    0 -0.42042259940E+02 -0.45288908067E+02 -0.15519848393E+03  0.18511166158E+03  0.79756636242E+02 0.  0.
         -6    2    1    2    0  502 -0.45011705019E+02  0.99994895171E+02  0.13193041528E+03  0.24257133944E+03  0.17149398704E+03 0.  0.
        -24    2    5    5    0    0 -0.14875070292E+02  0.12252750576E+03  0.53369063873E+02  0.15533653430E+03  0.77761973528E+02 0.  0.
          5    1    3    3  501    0  0.87053964959E+02 -0.54705987104E+02 -0.14725542489E+03  0.17965908828E+03  0.47000000000E+01 0. -1.
        -11    1    4    4    0    0  0.36292042008E+00 -0.34922592273E+02 -0.14532067126E+02  0.37827240677E+02  0.00000000000E+00 0.  1.
         12    1    4    4    0    0 -0.42405180360E+02 -0.10366315793E+02 -0.14066641681E+03  0.14728442091E+03  0.00000000000E+00 0. -1.
         -5    1    5    5    0  502 -0.30136634727E+02 -0.22532610585E+02  0.78561351406E+02  0.87234805136E+02  0.47000000000E+01 0.  1.
         13    1    6    6    0    0 -0.16808631459E+02 -0.56164640522E+01  0.64824342742E+01  0.18870525009E+02  0.00000000000E+00 0. -1.
        -14    1    6    6    0    0  0.19335611676E+01  0.12814396981E+03  0.46886629598E+02  0.13646600929E+03  0.00000000000E+00 0.  1.
</event>
<event>
12    1  0.8219652E-002  0.2344883E+03  0.7818608E-02  0.1123704E+00
         21   -1    0    0  501  502  0.00000000000E+00  0.00000000000E+00  0.57900357064E+03  0.57900357064E+03  0.00000000000E+00 0. -1.
         21   -1    0    0  502  503 -0.00000000000E+00 -0.00000000000E+00 -0.15826867012E+03  0.15826867012E+03  0.00000000000E+00 0. -1.
         -6    2    1    2    0  503  0.15817067723E+03 -0.20452891377E+02 -0.23856749136E+02  0.23463272831E+03  0.17043206510E+03 0.  0.
        -24    2    3    3    0    0  0.13776709789E+03 -0.51047410950E+02 -0.66867215219E+02  0.17784962457E+03  0.74656902313E+02 0.  0.
          6    2    1    2  501    0 -0.15817067723E+03  0.20452891377E+02  0.44459164965E+03  0.50263951244E+03  0.17189665683E+03 0.  0.
         24    2    5    5    0    0 -0.34337217513E+01  0.27277752815E+02  0.13951375910E+03  0.16046307633E+03  0.74353504594E+02 0.  0.
          5    1    5    5  501    0 -0.15473695548E+03 -0.68248614377E+01  0.30507789056E+03  0.34217643611E+03  0.47000000000E+01 0. -1.
        -11    1    6    6    0    0  0.10668070319E+02 -0.30493291224E+01  0.12238453009E+03  0.12288644896E+03  0.00000000000E+00 0.  1.
         12    1    6    6    0    0 -0.14101792070E+02  0.30327081937E+02  0.17129229005E+02  0.37576627373E+02  0.00000000000E+00 0. -1.
         -5    1    3    3    0  503  0.20403579333E+02  0.30594519573E+02  0.43010466083E+02  0.56783103738E+02  0.47000000000E+01 0.  1.
         13    1    4    4    0    0  0.15491324459E+02 -0.93868917609E+01 -0.42764251598E+02  0.46442180022E+02  0.00000000000E+00 0. -1.
        -14    1    4    4    0    0  0.12227577343E+03 -0.41660519189E+02 -0.24102963620E+02  0.13140744455E+03  0.00000000000E+00 0.  1.
</event>
<event>
12    1  0.8219652E-002  0.1744634E+03  0.7818608E-02  0.1173874E+00
         21   -1    0    0  503  502  0.00000000000E+00  0.00000000000E+00  0.51480169365E+02  0.51480169365E+02  0.00000000000E+00 0.  1.
         21   -1    0    0  501  503 -0.00000000000E+00 -0.00000000000E+00 -0.58908931764E+03  0.58908931764E+03  0.00000000000E+00 0.  1.
          6    2    1    2  501    0 -0.12844820558E+02  0.10628444073E+02 -0.30257484929E+03  0.34926926992E+03  0.17366499432E+03 0.  0.
         24    2    3    3    0    0  0.28111933804E+02  0.56903140052E+02 -0.12906204996E+03  0.16502056641E+03  0.80910607638E+02 0.  0.
         -6    2    1    2    0  502  0.12844820558E+02 -0.10628444073E+02 -0.23503429899E+03  0.29130021709E+03  0.17127971723E+03 0.  0.
        -24    2    5    5    0    0 -0.55819835651E+01 -0.70241432759E+02 -0.17541546460E+03  0.20487249616E+03  0.78975547137E+02 0.  0.
          5    1    3    3  501    0 -0.40956754362E+02 -0.46274695979E+02 -0.17351279932E+03  0.18424870351E+03  0.47000000000E+01 0. -1.
        -11    1    4    4    0    0  0.87366783324E+01  0.25352667172E+01  0.10560644708E+02  0.13938591832E+02  0.00000000000E+00 0.  1.
         12    1    4    4    0    0  0.19375255471E+02  0.54367873335E+02 -0.13962269467E+03  0.15108197458E+03  0.00000000000E+00 0. -1.
         -5    1    5    5    0  502  0.18426804123E+02  0.59612988686E+02 -0.59618834394E+02  0.86427720928E+02  0.47000000000E+01 0.  1.
         11    1    6    6    0    0  0.45920217435E+01  0.14055833551E+02 -0.72098740868E+01  0.16451000117E+02  0.00000000000E+00 0. -1.
        -12    1    6    6    0    0 -0.10174005309E+02 -0.84297266310E+02 -0.16820559051E+03  0.18842149604E+03  0.00000000000E+00 0.  1.
</event>
<event>
12    1  0.8219652E-002  0.4563415E+03  0.7818608E-02  0.1025900E+00
         21   -1    0    0  501  502  0.00000000000E+00  0.00000000000E+00  0.41316091084E+03  0.41316091084E+03  0.00000000000E+00 0. -1.
         21   -1    0    0  502  503 -0.00000000000E+00 -0.00000000000E+00 -0.52856800182E+03  0.52856800182E+03  0.00000000000E+00 0.  1.
         -6    2    1    2    0  503  0.15307259176E+03  0.39339435136E+03 -0.16070662111E+03  0.48314452275E+03  0.17149833167E+03 0.  0.
        -24    2    3    3    0    0  0.18280376678E+03  0.34406875595E+03 -0.13517396761E+03  0.41997044955E+03  0.79389237308E+02 0.  0.
          6    2    1    2  501    0 -0.15307259176E+03 -0.39339435136E+03  0.45299530125E+02  0.45858438992E+03  0.17337030085E+03 0.  0.
         24    2    5    5    0    0 -0.40328339813E+02 -0.20918501162E+03  0.75624496958E+02  0.24044214090E+03  0.81906132257E+02 0.  0.
          5    1    5    5  501    0 -0.11274425194E+03 -0.18420933974E+03 -0.30324966832E+02  0.21814224902E+03  0.47000000000E+01 0. -1.
        -11    1    6    6    0    0  0.17877183302E+02 -0.21421541726E+02 -0.43125296791E+01  0.28232499800E+02  0.00000000000E+00 0.  1.
         12    1    6    6    0    0 -0.58205523115E+02 -0.18776346990E+03  0.79937026637E+02  0.21220964110E+03  0.00000000000E+00 0. -1.
         -5    1    3    3    0  503 -0.29731175022E+02  0.49325595405E+02 -0.25532653499E+02  0.63174073202E+02  0.47000000000E+01 0.  1.
         11    1    4    4    0    0  0.13076388683E+03  0.16280365266E+03 -0.64075134894E+02  0.21842583714E+03  0.00000000000E+00 0. -1.
        -12    1    4    4    0    0  0.52039879954E+02  0.18126510329E+03 -0.71098832714E+02  0.20154461241E+03  0.00000000000E+00 0.  1.
</event>
<event>
12    1  0.8219652E-002  0.1763164E+03  0.7818608E-02  0.1171906E+00
         21   -1    0    0  503  502  0.00000000000E+00  0.00000000000E+00  0.26340223205E+04  0.26340223205E+04  0.00000000000E+00 0.  1.
         21   -1    0    0  501  503 -0.00000000000E+00 -0.00000000000E+00 -0.31755093904E+02  0.31755093904E+02  0.00000000000E+00 0.  1.
          6    2    1    2  501    0  0.14850406965E+02  0.29406124858E+02  0.23847279848E+03  0.29541635427E+03  0.17122001049E+03 0.  0.
         24    2    3    3    0    0  0.30439731431E+02  0.46738126725E+02  0.56930062689E+02  0.11232271636E+03  0.79147525762E+02 0.  0.
         -6    2    1    2    0  502 -0.14850406965E+02 -0.29406124858E+02  0.23637944281E+04  0.23703610601E+04  0.17321143785E+03 0.  0.
        -24    2    5    5    0    0 -0.61572739005E+02 -0.50549496997E+02  0.10934393514E+04  0.10989625666E+04  0.75912144483E+02 0.  0.
          5    1    3    3  501    0 -0.15589324466E+02 -0.17332001867E+02  0.18154273579E+03  0.18309363791E+03  0.47000000000E+01 0. -1.
        -13    1    4    4    0    0 -0.24302934206E+02  0.89706509754E+01  0.18546190518E+01  0.25972000342E+02  0.00000000000E+00 0.  1.
         14    1    4    4    0    0  0.54742665637E+02  0.37767475750E+02  0.55075443637E+02  0.86350716021E+02  0.00000000000E+00 0. -1.
         -5    1    5    5    0  502  0.46722332040E+02  0.21143372139E+02  0.12703550767E+04  0.12713984935E+04  0.47000000000E+01 0.  1.
         11    1    6    6    0    0  0.11734236495E+02  0.78707376011E+01  0.23404295232E+03  0.23446906906E+03  0.00000000000E+00 0. -1.
        -12    1    6    6    0    0 -0.73306975500E+02 -0.58420234598E+02  0.85939639910E+03  0.86449349752E+03  0.00000000000E+00 0.  1.
</event>
<event>
12    1  0.8219652E-002  0.1876533E+03  0.7818608E-02  0.1160712E+00
         21   -1    0    0  503  502  0.00000000000E+00  0.00000000000E+00  0.49725432136E+02  0.49725432136E+02  0.00000000000E+00 0. -1.
         21   -1    0    0  501  503 -0.00000000000E+00 -0.00000000000E+00 -0.70972296907E+03  0.70972296907E+03  0.00000000000E+00 0. -1.
          6    2    1    2  501    0  0.62026559697E+02  0.43734013627E+02 -0.30294750891E+03  0.35608938723E+03  0.17106285537E+03 0.  0.
         24    2    3    3    0    0 -0.31236828519E+02  0.25927200237E+02 -0.17493366861E+03  0.19663790404E+03  0.80104417622E+02 0.  0.
         -6    2    1    2    0  502 -0.62026559697E+02 -0.43734013627E+02 -0.35705002802E+03  0.40335901397E+03  0.17162113386E+03 0.  0.
        -24    2    5    5    0    0 -0.53914495824E+02 -0.84616114411E+02 -0.32833133780E+03  0.35252590554E+03  0.80039908898E+02 0.  0.
          5    1    3    3  501    0  0.93263388216E+02  0.17806813390E+02 -0.12801384030E+03  0.15945148319E+03  0.47000000000E+01 0. -1.
        -13    1    4    4    0    0 -0.36119072492E+02 -0.21349132914E+02 -0.73796497889E+02  0.84889905022E+02  0.00000000000E+00 0.  1.
         14    1    4    4    0    0  0.48822439727E+01  0.47276333151E+02 -0.10113717072E+03  0.11174799902E+03  0.00000000000E+00 0. -1.
         -5    1    5    5    0  502 -0.81120638730E+01  0.40882100784E+02 -0.28718690219E+02  0.50833108430E+02  0.47000000000E+01 0.  1.
         13    1    6    6    0    0  0.35806054999E+01 -0.66030510736E+02 -0.14200802553E+03  0.15664969964E+03  0.00000000000E+00 0. -1.
        -14    1    6    6    0    0 -0.57495101323E+02 -0.18585603675E+02 -0.18632331227E+03  0.19587620590E+03  0.00000000000E+00 0.  1.
</event>
<event>
12    1  0.8219652E-002  0.2023906E+03  0.7818608E-02  0.1148052E+00
         21   -1    0    0  501  502  0.00000000000E+00  0.00000000000E+00  0.22446694319E+02  0.22446694319E+02  0.00000000000E+00 0. -1.
         21   -1    0    0  502  503 -0.00000000000E+00 -0.00000000000E+00 -0.18450321904E+04  0.18450321904E+04  0.00000000000E+00 0. -1.
         -6    2    1    2    0  503  0.10461332880E+03  0.21114549399E+02 -0.10342111475E+04  0.10535402643E+04  0.17018994697E+03 0.  0.
        -24    2    3    3    0    0  0.24608416316E+02 -0.25445529725E+02 -0.27732398767E+03  0.29099919015E+03  0.80739614784E+02 0.  0.
          6    2    1    2  501    0 -0.10461332880E+03 -0.21114549399E+02 -0.78837434854E+03  0.81393862042E+03  0.17196566987E+03 0.  0.
         24    2    5    5    0    0 -0.18587450615E+02  0.10242452387E+02 -0.58374802889E+03  0.58971165065E+03  0.80917665113E+02 0.  0.
          5    1    5    5  501    0 -0.86025878181E+02 -0.31357001786E+02 -0.20462631966E+03  0.22422696977E+03  0.47000000000E+01 0. -1.
        -11    1    6    6    0    0 -0.43207286708E+02  0.24076201943E+00 -0.49965579330E+03  0.50152052736E+03  0.00000000000E+00 0.  1.
         12    1    6    6    0    0  0.24619836094E+02  0.10001690367E+02 -0.84092235591E+02  0.88191123285E+02  0.00000000000E+00 0. -1.
         -5    1    3    3    0  503  0.80004912480E+02  0.46560079124E+02 -0.75688715987E+03  0.76254107415E+03  0.47000000000E+01 0.  1.
         13    1    4    4    0    0  0.44223382553E+02  0.10884911188E+02 -0.17038462424E+03  0.17636640562E+03  0.00000000000E+00 0. -1.
        -14    1    4    4    0    0 -0.19614966237E+02 -0.36330440913E+02 -0.10693936344E+03  0.11463278453E+03  0.00000000000E+00 0.  1.
</event>
<event>
12    1  0.8219652E-002  0.1919095E+03  0.7818608E-02  0.1158376E+00
         21   -1    0    0  503  502  0.00000000000E+00  0.00000000000E+00  0.60994187733E+02  0.60994187733E+02  0.00000000000E+00 0.  1.
         21   -1    0    0  501  503 -0.00000000000E+00 -0.00000000000E+00 -0.73311642013E+03  0.73311642013E+03  0.00000000000E+00 0.  1.
          6    2    1    2  501    0 -0.85237819155E+02 -0.51211326325E+01 -0.51153108075E+03  0.54387320346E+03  0.16383620800E+03 0.  0.
         24    2    3    3    0    0 -0.10296351700E+03  0.30571593152E+02 -0.46457018264E+03  0.48210276563E+03  0.71144317352E+02 0.  0.
         -6    2    1    2    0  502  0.85237819155E+02  0.51211326325E+01 -0.16059115165E+03  0.25023740441E+03  0.17186485610E+03 0.  0.
        -24    2    5    5    0    0  0.86770147496E+02 -0.54389315012E+01 -0.34407966066E+02  0.12351665114E+03  0.80708205952E+02 0.  0.
          5    1    3    3  501    0  0.17725697843E+02 -0.35692725784E+02 -0.46960898111E+02  0.61770437827E+02  0.47000000000E+01 0. -1.
        -11    1    4    4    0    0 -0.45589327490E+02 -0.21263253146E+02 -0.15185659428E+03  0.15997167856E+03  0.00000000000E+00 0.  1.
         12    1    4    4    0    0 -0.57374189507E+02  0.51834846298E+02 -0.31271358836E+03  0.32213108707E+03  0.00000000000E+00 0. -1.
         -5    1    5    5    0  502 -0.15323283417E+01  0.10560064134E+02 -0.12618318558E+03  0.12672075326E+03  0.47000000000E+01 0.  1.
         13    1    6    6    0    0 -0.13147016297E+02 -0.46468127566E+01  0.67005968259E+01  0.15470452616E+02  0.00000000000E+00 0. -1.
        -14    1    6    6    0    0  0.99917163794E+02 -0.79211874457E+00 -0.41108562892E+02  0.10804619853E+03  0.00000000000E+00 0.  1.
</event>
<event>
12    1  0.8219652E-002  0.1778476E+03  0.7818608E-02  0.1169971E+00
         21   -1    0    0  501  502  0.00000000000E+00  0.00000000000E+00  0.62658804108E+03  0.62658804108E+03  0.00000000000E+00 0. -1.
         21   -1    0    0  502  503 -0.00000000000E+00 -0.00000000000E+00 -0.20645081412E+03  0.20645081412E+03  0.00000000000E+00 0.  1.
         -6    2    1    2    0  503  0.24296791025E+02  0.38335863891E+02 -0.15209669679E+03  0.23380481692E+03  0.17167211400E+03 0.  0.
        -24    2    3    3    0    0  0.28196452026E+02  0.73494270614E+02 -0.42984898062E+02  0.11900588164E+03  0.78219247522E+02 0.  0.
          6    2    1    2  501    0 -0.24296791025E+02 -0.38335863891E+02  0.57223392376E+03  0.59923403828E+03  0.17195870615E+03 0.  0.
         24    2    5    5    0    0  0.69719263771E+01 -0.88136193091E+02  0.31519020782E+03  0.33550810595E+03  0.73513439367E+02 0.  0.
          5    1    5    5  501    0 -0.31268717402E+02  0.49800329200E+02  0.25704371594E+03  0.26372593233E+03  0.47000000000E+01 0. -1.
        -13    1    6    6    0    0 -0.14435769364E+02  0.42603067135E+01  0.17540906507E+02  0.23113308970E+02  0.00000000000E+00 0.  1.
         14    1    6    6    0    0  0.21407695741E+02 -0.92396499805E+02  0.29764930131E+03  0.31239479698E+03  0.00000000000E+00 0. -1.
         -5    1    3    3    0  503 -0.38996610012E+01 -0.35158406723E+02 -0.10911179873E+03  0.11479893528E+03  0.47000000000E+01 0.  1.
         11    1    4    4    0    0  0.25099621478E+02  0.36388691824E+02 -0.62822392366E+02  0.76816540365E+02  0.00000000000E+00 0. -1.
        -12    1    4    4    0    0  0.30968305482E+01  0.37105578790E+02  0.19837494304E+02  0.42189341273E+02  0.00000000000E+00 0.  1.
</event>
<event>
12    1  0.8219652E-002  0.1980366E+03  0.7818608E-02  0.1151645E+00
         21   -1    0    0  501  502  0.00000000000E+00  0.00000000000E+00  0.10983752262E+03  0.10983752262E+03  0.00000000000E+00 0. -1.
         21   -1    0    0  502  503 -0.00000000000E+00 -0.00000000000E+00 -0.44260782718E+03  0.44260782718E+03  0.00000000000E+00 0. -1.
         -6    2    1    2    0  503 -0.53166171723E+02  0.80048208211E+02 -0.28961902344E+03  0.35085275503E+03  0.17315923168E+03 0.  0.
        -24    2    3    3    0    0 -0.44666878592E+02  0.11808285243E+03 -0.26716457652E+03  0.30562926189E+03  0.78061800494E+02 0.  0.
          6    2    1    2  501    0  0.53166171723E+02 -0.80048208211E+02 -0.43151281116E+02  0.20159259477E+03  0.17188130716E+03 0.  0.
         24    2    5    5    0    0  0.80073798864E+02 -0.87215318106E+02 -0.72414789774E+02  0.16092527618E+03  0.81453776819E+02 0.  0.
          5    1    5    5  501    0 -0.26907627140E+02  0.71671098956E+01  0.29263508658E+02  0.40667318593E+02  0.47000000000E+01 0. -1.
        -11    1    6    6    0    0  0.60329133720E+02 -0.98053017002E+01 -0.16170182857E+02  0.63223596311E+02  0.00000000000E+00 0.  1.
         12    1    6    6    0    0  0.19744665144E+02 -0.77410016406E+02 -0.56244606917E+02  0.97701679867E+02  0.00000000000E+00 0. -1.
         -5    1    3    3    0  503 -0.84992931318E+01 -0.38034644221E+02 -0.22454446927E+02  0.45223493138E+02  0.47000000000E+01 0.  1.
         11    1    4    4    0    0 -0.19179571740E+00  0.23352643772E+02 -0.57578488181E+01  0.24052766572E+02  0.00000000000E+00 0. -1.
        -12    1    4    4    0    0 -0.44475082874E+02  0.94730208660E+02 -0.26140672770E+03  0.28157649532E+03  0.00000000000E+00 0.  1.
</event>
<event>
12    1  0.8219652E-002  0.1883253E+03  0.7818608E-02  0.1160404E+00
         21   -1    0    0  503  502  0.00000000000E+00  0.00000000000E+00  0.25561737171E+03  0.25561737171E+03  0.00000000000E+00 0. -1.
         21   -1    0    0  501  503 -0.00000000000E+00 -0.00000000000E+00 -0.14260963191E+03  0.14260963191E+03  0.00000000000E+00 0.  1.
          6    2    1    2  501    0  0.28651795383E+02  0.67003538063E+02  0.94330245012E+02  0.20897774909E+03  0.17164820127E+03 0.  0.
         24    2    3    3    0    0 -0.16553526392E+02  0.10162636449E+03  0.57814828607E+02  0.14117120912E+03  0.77361609873E+02 0.  0.
         -6    2    1    2    0  502 -0.28651795383E+02 -0.67003538063E+02  0.18677494795E+02  0.18924925453E+03  0.17365492229E+03 0.  0.
        -24    2    5    5    0    0 -0.14970679504E+02  0.15829847760E+02  0.61095442395E+02  0.95069028276E+02  0.69503681420E+02 0.  0.
          5    1    3    3  501    0  0.45205321776E+02 -0.34622826430E+02  0.36515416404E+02  0.67806539965E+02  0.47000000000E+01 0. -1.
        -11    1    4    4    0    0 -0.23481945407E+02  0.14026289700E+00 -0.13015791698E+01  0.23518408579E+02  0.00000000000E+00 0.  1.
         12    1    4    4    0    0  0.69284190146E+01  0.10148610160E+03  0.59116407777E+02  0.11765280054E+03  0.00000000000E+00 0. -1.
         -5    1    5    5    0  502 -0.13681115879E+02 -0.82833385823E+02 -0.42417947600E+02  0.94180226254E+02  0.47000000000E+01 0.  1.
         13    1    6    6    0    0  0.69306293789E+01  0.84343825853E-01  0.67081768555E+02  0.67438893896E+02  0.00000000000E+00 0. -1.
        -14    1    6    6    0    0 -0.21901308883E+02  0.15745503935E+02 -0.59863261605E+01  0.27630134380E+02  0.00000000000E+00 0.  1.
</event>
<event>
12    1  0.8219652E-002  0.2207791E+03  0.7818608E-02  0.1133320E+00
         21   -1    0    0  501  502  0.00000000000E+00  0.00000000000E+00  0.20255002061E+03  0.20255002061E+03  0.00000000000E+00 0.  1.
         21   -1    0    0  502  503 -0.00000000000E+00 -0.00000000000E+00 -0.33075778027E+03  0.33075778027E+03  0.00000000000E+00 0.  1.
         -6    2    1    2    0  503  0.12752451194E+03  0.54195848492E+02 -0.20336729265E+03  0.30016939332E+03  0.17188286077E+03 0.  0.
        -24    2    3    3    0    0  0.42166342311E+02  0.64619876223E+02 -0.18031463859E+03  0.21101675828E+03  0.77852261097E+02 0.  0.
          6    2    1    2  501    0 -0.12752451194E+03 -0.54195848492E+02  0.75159532995E+02  0.23313840755E+03  0.17176981847E+03 0.  0.
         24    2    5    5    0    0 -0.83771756681E+02 -0.94644187137E+02  0.19148699783E+02  0.15122580090E+03  0.80791959858E+02 0.  0.
          5    1    5    5  501    0 -0.43752755257E+02  0.40448338645E+02  0.56010833212E+02  0.81912606654E+02  0.47000000000E+01 0. -1.
        -13    1    6    6    0    0 -0.95174174476E+02 -0.95888209541E+02  0.26397476904E+02  0.13765717926E+03  0.00000000000E+00 0.  1.
         14    1    6    6    0    0  0.11402417795E+02  0.12440224036E+01 -0.72487771208E+01  0.13568621634E+02  0.00000000000E+00 0. -1.
         -5    1    3    3    0  503  0.85358169627E+02 -0.10424027731E+02 -0.23052654069E+02  0.89152635047E+02  0.47000000000E+01 0.  1.
         11    1    4    4    0    0  0.10033394589E+02  0.31428099323E+02 -0.98895937500E+01  0.34441232536E+02  0.00000000000E+00 0. -1.
        -12    1    4    4    0    0  0.32132947722E+02  0.33191776899E+02 -0.17042504484E+03  0.17657552574E+03  0.00000000000E+00 0.  1.
</event>
<event>
12    1  0.8219652E-002  0.2503378E+03  0.7818608E-02  0.1115278E+00
         21   -1    0    0  503  502  0.00000000000E+00  0.00000000000E+00  0.29607241647E+03  0.29607241647E+03  0.00000000000E+00 0.  1.
         21   -1    0    0  501  503 -0.00000000000E+00 -0.00000000000E+00 -0.20114820303E+03  0.20114820303E+03  0.00000000000E+00 0. -1.
          6    2    1    2  501    0  0.17784715211E+03  0.23107406514E+02  0.31403804548E+02  0.23894970152E+03  0.15474882606E+03 0.  0.
         24    2    3    3    0    0  0.15500774222E+03  0.60406135800E+02  0.15744234749E+02  0.19225766819E+03  0.95072754561E+02 0.  0.
         -6    2    1    2    0  502 -0.17784715211E+03 -0.23107406514E+02  0.63520408891E+02  0.25827091797E+03  0.17465813172E+03 0.  0.
        -24    2    5    5    0    0 -0.49984353314E+02  0.25603385814E+02 -0.16894094926E+02  0.99493655654E+02  0.80371687370E+02 0.  0.
          5    1    3    3  501    0  0.22839409898E+02 -0.37298729286E+02  0.15659569799E+02  0.46692033337E+02  0.47000000000E+01 0. -1.
        -13    1    4    4    0    0  0.10335437290E+02  0.88442847100E+01 -0.29214695590E+02  0.32226403374E+02  0.00000000000E+00 0.  1.
         14    1    4    4    0    0  0.14467230493E+03  0.51561851090E+02  0.44958930339E+02  0.16003126481E+03  0.00000000000E+00 0. -1.
         -5    1    5    5    0  502 -0.12786279880E+03 -0.48710792327E+02  0.80414503817E+02  0.15877726232E+03  0.47000000000E+01 0.  1.
         11    1    6    6    0    0  0.11575041121E+02 -0.17879709682E+02 -0.10796194858E+02  0.23879351304E+02  0.00000000000E+00 0. -1.
        -12    1    6    6    0    0 -0.61559394435E+02  0.43483095496E+02 -0.60979000678E+01  0.75614304350E+02  0.00000000000E+00 0.  1.
</event>
<event>
12    1  0.8219652E-002  0.1913072E+03  0.7818608E-02  0.1159314E+00
         21   -1    0    0  501  502  0.00000000000E+00  0.00000000000E+00  0.62486538072E+02  0.62486538072E+02  0.00000000000E+00 0.  1.
         21   -1    0    0  502  503 -0.00000000000E+00 -0.00000000000E+00 -0.65626566858E+03  0.65626566858E+03  0.00000000000E+00 0.  1.
         -6    2    1    2    0  503 -0.14173730479E+02  0.56986344875E+02 -0.44123250980E+03  0.48092056681E+03  0.18207175986E+03 0.  0.
        -24    2    3    3    0    0  0.62526972839E+02  0.19819060614E+02 -0.19064027959E+03  0.21618870105E+03  0.78047554488E+02 0.  0.
          6    2    1    2  501    0  0.14173730479E+02 -0.56986344875E+02 -0.15254662071E+03  0.23783163985E+03  0.17275728431E+03 0.  0.
         24    2    5    5    0    0 -0.21232112657E+02 -0.84063055121E+02 -0.54838260693E+02  0.13033403251E+03  0.80388589676E+02 0.  0.
          5    1    5    5  501    0  0.35405843136E+02  0.27076710246E+02 -0.97708360016E+02  0.10749760734E+03  0.47000000000E+01 0. -1.
        -11    1    6    6    0    0  0.98831511839E+01  0.96680653854E+01  0.51825855300E+01  0.14765072245E+02  0.00000000000E+00 0.  1.
         12    1    6    6    0    0 -0.31115263841E+02 -0.93731120506E+02 -0.60020846223E+02  0.11556896026E+03  0.00000000000E+00 0. -1.
         -5    1    3    3    0  503 -0.76700703318E+02  0.37167284261E+02 -0.25059223021E+03  0.26473186576E+03  0.47000000000E+01 0.  1.
         11    1    4    4    0    0  0.67295569148E+02  0.31610789770E+02 -0.99738676954E+02  0.12440152466E+03  0.00000000000E+00 0. -1.
        -12    1    4    4    0    0 -0.47685963094E+01 -0.11791729156E+02 -0.90901602638E+02  0.91787176389E+02  0.00000000000E+00 0.  1.
</event>
<event>
12    1  0.8219652E-002  0.2320548E+03  0.7818608E-02  0.1125321E+00
         21   -1    0    0  503  502  0.00000000000E+00  0.00000000000E+00  0.75278545999E+02  0.75278545999E+02  0.00000000000E+00 0. -1.
         21   -1    0    0  501  503 -0.00000000000E+00 -0.00000000000E+00 -0.80005256495E+03  0.80005256495E+03  0.00000000000E+00 0.  1.
          6    2    1    2  501    0 -0.97426823690E+02  0.12056162505E+03 -0.50609203124E+03  0.55647182601E+03  0.17176919878E+03 0.  0.
         24    2    3    3    0    0 -0.10878897775E+03  0.50838983590E+02 -0.41527208866E+03  0.44131672518E+03  0.88825111145E+02 0.  0.
         -6    2    1    2    0  502  0.97426823690E+02 -0.12056162505E+03 -0.21868198770E+03  0.31885928493E+03  0.17269146022E+03 0.  0.
        -24    2    5    5    0    0  0.73325154310E+02 -0.34512041751E+02 -0.39427945056E+02  0.11851078092E+03  0.76958320301E+02 0.  0.
          5    1    3    3  501    0  0.11362154064E+02  0.69722641460E+02 -0.90819942580E+02  0.11515510083E+03  0.47000000000E+01 0. -1.
        -11    1    4    4    0    0 -0.48837457951E+01  0.25293108617E+02 -0.19210455472E+03  0.19382402395E+03  0.00000000000E+00 0.  1.
         12    1    4    4    0    0 -0.10390523196E+03  0.25545874973E+02 -0.22316753394E+03  0.24749270123E+03  0.00000000000E+00 0. -1.
         -5    1    5    5    0  502  0.24101669380E+02 -0.86049583299E+02 -0.17925404265E+03  0.20034850401E+03  0.47000000000E+01 0.  1.
         13    1    6    6    0    0  0.16531633876E+02  0.24417250974E+02 -0.59253386124E+01  0.30076680359E+02  0.00000000000E+00 0. -1.
        -14    1    6    6    0    0  0.56793520433E+02 -0.58929292724E+02 -0.33502606444E+02  0.88434100565E+02  0.00000000000E+00 0.  1.
</event>
<event>
12    1  0.8219652E-002  0.2806006E+03  0.7818608E-02  0.1095618E+00
         21   -1    0    0  503  502  0.00000000000E+00  0.00000000000E+00  0.15496065160E+04  0.15496065160E+04  0.00000000000E+00 0. -1.
         21   -1    0    0  501  503 -0.00000000000E+00 -0.00000000000E+00 -0.70219478061E+02  0.70219478061E+02  0.00000000000E+00 0. -1.
          6    2    1    2  501    0 -0.20291335221E+03  0.82134784341E+02  0.31197307506E+03  0.41959971629E+03  0.17554706219E+03 0.  0.
         24    2    3    3    0    0 -0.49989868102E+02  0.16600859013E+02  0.48271860184E+02  0.10776529214E+03  0.80675958443E+02 0.  0.
         -6    2    1    2    0  502  0.20291335221E+03 -0.82134784341E+02  0.11674139628E+04  0.12002262777E+04  0.17253349189E+03 0.  0.
        -24    2    5    5    0    0  0.11770316763E+03  0.18276224584E+02  0.49509555594E+03  0.51511513600E+03  0.77691297902E+02 0.  0.
          5    1    3    3  501    0 -0.15292348411E+03  0.65533925328E+02  0.26370121487E+03  0.31183442415E+03  0.47000000000E+01 0. -1.
        -11    1    4    4    0    0  0.16346557836E+02  0.23803099089E+02  0.85675050023E+01  0.30119754668E+02  0.00000000000E+00 0.  1.
         12    1    4    4    0    0 -0.66336425938E+02 -0.72022400756E+01  0.39704355181E+02  0.77645537468E+02  0.00000000000E+00 0. -1.
         -5    1    5    5    0  502  0.85210184576E+02 -0.10041100892E+03  0.67231840689E+03  0.68511114173E+03  0.47000000000E+01 0.  1.
         11    1    6    6    0    0  0.55265421041E+02 -0.22739055970E+02  0.13957248324E+03  0.15182822368E+03  0.00000000000E+00 0. -1.
        -12    1    6    6    0    0  0.62437746591E+02  0.41015280554E+02  0.35552307270E+03  0.36328691232E+03  0.00000000000E+00 0.  1.
</event>
<event>
12    1  0.8219652E-002  0.1806871E+03  0.7818608E-02  0.1168618E+00
         21   -1    0    0  501  502  0.00000000000E+00  0.00000000000E+00  0.86885268691E+03  0.86885268691E+03  0.00000000000E+00 0.  1.
         21   -1    0    0  502  503 -0.00000000000E+00 -0.00000000000E+00 -0.37003061644E+02  0.37003061644E+02  0.00000000000E+00 0.  1.
         -6    2    1    2    0  503  0.34530556043E+02 -0.39719595839E+02  0.46995671111E+03  0.50136308015E+03  0.16654015198E+03 0.  0.
        -24    2    3    3    0    0 -0.21928572381E+02 -0.37644507852E+02  0.11104180682E+03  0.13799833544E+03  0.69392265167E+02 0.  0.
          6    2    1    2  501    0 -0.34530556043E+02  0.39719595839E+02  0.36189291415E+03  0.40449266840E+03  0.17285205201E+03 0.  0.
         24    2    5    5    0    0  0.10667666367E+02 -0.17439185599E+02  0.87706905592E+02  0.12074971625E+03  0.80436735305E+02 0.  0.
          5    1    5    5  501    0 -0.45198222409E+02  0.57158781438E+02  0.27418600856E+03  0.28374295215E+03  0.47000000000E+01 0. -1.
        -11    1    6    6    0    0 -0.32823668573E+02 -0.13680150245E+02  0.21844304953E+02  0.41733839845E+02  0.00000000000E+00 0.  1.
         12    1    6    6    0    0  0.43491334939E+02 -0.37590353540E+01  0.65862600639E+02  0.79015876408E+02  0.00000000000E+00 0. -1.
         -5    1    3    3    0  503  0.56459128424E+02 -0.20750879867E+01  0.35891490429E+03  0.36336474470E+03  0.47000000000E+01 0.  1.
         11    1    4    4    0    0  0.24631390479E+02 -0.68314484199E+01  0.42497703100E+02  0.49592629022E+02  0.00000000000E+00 0. -1.
        -12    1    4    4    0    0 -0.46559962861E+02 -0.30813059432E+02  0.68544103722E+02  0.88405706423E+02  0.00000000000E+00 0.  1.
</event>
<event>
12    1  0.8219652E-002  0.1787112E+03  0.7818608E-02  0.1169201E+00
         21   -1    0    0  501  502  0.00000000000E+00  0.00000000000E+00  0.20190550589E+04  0.20190550589E+04  0.00000000000E+00 0. -1.
         21   -1    0    0  502  503 -0.00000000000E+00 -0.00000000000E+00 -0.18617525842E+02  0.18617525842E+02  0.00000000000E+00 0. -1.
         -6    2    1    2    0  503  0.88129591319E+01 -0.42423234821E+02  0.13975602843E+04  0.14088652430E+04  0.17276899424E+03 0.  0.
        -24    2    3    3    0    0 -0.36752558657E+01 -0.36164543752E+02  0.34236629985E+03  0.35356833611E+03  0.80464298245E+02 0.  0.
          6    2    1    2  501    0 -0.88129591319E+01  0.42423234821E+02  0.60287724874E+03  0.62880734180E+03  0.17337905568E+03 0.  0.
         24    2    5    5    0    0  0.58361052538E+02  0.51352350029E+02  0.36284972261E+03  0.37935317719E+03  0.78777125713E+02 0.  0.
          5    1    5    5  501    0 -0.67174011670E+02 -0.89291152077E+01  0.24002752613E+03  0.24945416462E+03  0.47000000000E+01 0. -1.
        -11    1    6    6    0    0 -0.12058359931E+02  0.13632462077E+02  0.18861601497E+02  0.26210838932E+02  0.00000000000E+00 0.  1.
         12    1    6    6    0    0  0.70419412470E+02  0.37719887951E+02  0.34398812111E+03  0.35314233825E+03  0.00000000000E+00 0. -1.
         -5    1    3    3    0  503  0.12488214998E+02 -0.62586910688E+01  0.10551939845E+04  0.10552969069E+04  0.47000000000E+01 0.  1.
         11    1    4    4    0    0 -0.22431323575E+02 -0.42260869742E+02  0.32078316364E+03  0.32433159492E+03  0.00000000000E+00 0. -1.
        -12    1    4    4    0    0  0.18756067709E+02  0.60963259900E+01  0.21583136215E+02  0.29236741189E+02  0.00000000000E+00 0.  1.
</event>
<event>
12    1  0.8219652E-002  0.1764924E+03  0.7818608E-02  0.1171507E+00
         21   -1    0    0  501  502  0.00000000000E+00  0.00000000000E+00  0.11257793174E+03  0.11257793174E+03  0.00000000000E+00 0.  1.
         21   -1    0    0  502  503 -0.00000000000E+00 -0.00000000000E+00 -0.37198140512E+03  0.37198140512E+03  0.00000000000E+00 0.  1.
         -6    2    1    2    0  503  0.12677152734E+02  0.32178616475E+02 -0.25368231870E+03  0.30903767372E+03  0.17307048101E+03 0.  0.
        -24    2    3    3    0    0 -0.55914744229E+02  0.38887428491E+01 -0.10219777784E+03  0.14029283261E+03  0.78077603348E+02 0.  0.
          6    2    1    2  501    0 -0.12677152734E+02 -0.32178616475E+02 -0.57211546716E+01  0.17552166314E+03  0.17198531641E+03 0.  0.
         24    2    5    5    0    0 -0.37104240180E+02 -0.21618273477E+02  0.56551650267E+02  0.10763797084E+03  0.80893567309E+02 0.  0.
          5    1    5    5  501    0  0.24427087446E+02 -0.10560342998E+02 -0.62272804939E+02  0.67883692300E+02  0.47000000000E+01 0. -1.
        -11    1    6    6    0    0 -0.32133918385E+02  0.27443143064E+02  0.25129835079E+02  0.49165266430E+02  0.00000000000E+00 0.  1.
         12    1    6    6    0    0 -0.49703217943E+01 -0.49061416541E+02  0.31421815188E+02  0.58472704414E+02  0.00000000000E+00 0. -1.
         -5    1    3    3    0  503  0.68591896963E+02  0.28289873626E+02 -0.15148454087E+03  0.16874484111E+03  0.47000000000E+01 0.  1.
         13    1    4    4    0    0 -0.21573524001E+02  0.32552050758E+02 -0.14154501733E+02  0.41537968965E+02  0.00000000000E+00 0. -1.
        -14    1    4    4    0    0 -0.34341220228E+02 -0.28663307909E+02 -0.88043276102E+02  0.98754863646E+02  0.00000000000E+00 0.  1.
</event>
<event>
12    1  0.8219652E-002  0.2023928E+03  0.7818608E-02  0.1150333E+00
         21   -1    0    0  503  502  0.00000000000E+00  0.00000000000E+00  0.20296406693E+03  0.20296406693E+03  0.00000000000E+00 0. -1.
         21   -1    0    0  501  503 -0.00000000000E+00 -0.00000000000E+00 -0.18995113296E+03  0.18995113296E+03  0.00000000000E+00 0. -1.
          6    2    1    2  501    0  0.81829069868E+02 -0.56698507393E+01  0.80110404945E+01  0.19046061400E+03  0.17170592545E+03 0.  0.
         24    2    3    3    0    0 -0.94623994425E+01  0.31451436542E+02  0.27516803954E+02  0.89888813051E+02  0.79019582055E+02 0.  0.
         -6    2    1    2    0  502 -0.81829069868E+02  0.56698507393E+01  0.50018934849E+01  0.20245458589E+03  0.18502620497E+03 0.  0.
        -24    2    5    5    0    0 -0.12186508605E+03 -0.18052956102E+02  0.30497851306E+02  0.14918369307E+03  0.78413308322E+02 0.  0.
          5    1    3    3  501    0  0.91291469311E+02 -0.37121287281E+02 -0.19505763459E+02  0.10057180095E+03  0.47000000000E+01 0. -1.
        -11    1    4    4    0    0 -0.23498790172E+02 -0.17103354698E+02  0.26506334583E+02  0.39335780843E+02  0.00000000000E+00 0.  1.
         12    1    4    4    0    0  0.14036390729E+02  0.48554791240E+02  0.10104693706E+01  0.50553032208E+02  0.00000000000E+00 0. -1.
         -5    1    5    5    0  502  0.40036016183E+02  0.23722806841E+02 -0.25495957821E+02  0.53270892816E+02  0.47000000000E+01 0.  1.
         13    1    6    6    0    0 -0.24634699315E+02  0.20647027347E+02 -0.14510221960E+02  0.35266339333E+02  0.00000000000E+00 0. -1.
        -14    1    6    6    0    0 -0.97230386736E+02 -0.38699983449E+02  0.45008073266E+02  0.11391735374E+03  0.00000000000E+00 0.  1.
</event>
<event>
12    1  0.8219652E-002  0.2191014E+03  0.7818608E-02  0.1134560E+00
         21   -1    0    0  503  502  0.00000000000E+00  0.00000000000E+00  0.16167673001E+03  0.16167673001E+03  0.00000000000E+00 0. -1.
         21   -1    0    0  501  503 -0.00000000000E+00 -0.00000000000E+00 -0.31715023854E+03  0.31715023854E+03  0.00000000000E+00 0. -1.
          6    2    1    2  501    0 -0.11053999349E+03  0.77732418745E+02 -0.13825379808E+03  0.25904992138E+03  0.17242775298E+03 0.  0.
         24    2    3    3    0    0 -0.51501962189E+02  0.10597519772E+03 -0.53885003301E+02  0.15216995489E+03  0.79805431828E+02 0.  0.
         -6    2    1    2    0  502  0.11053999349E+03 -0.77732418745E+02 -0.17219710446E+02  0.21977704717E+03  0.17246452664E+03 0.  0.
        -24    2    5    5    0    0  0.38055611585E+02 -0.99285563485E+02  0.22452507110E+02  0.13425220567E+03  0.78826943117E+02 0.  0.
          5    1    3    3  501    0 -0.59038031304E+02 -0.28242778971E+02 -0.84368794783E+02  0.10687996649E+03  0.47000000000E+01 0. -1.
        -11    1    4    4    0    0 -0.18409495797E+00  0.46329559901E+01 -0.37044635682E+02  0.37333673875E+02  0.00000000000E+00 0.  1.
         12    1    4    4    0    0 -0.51317867231E+02  0.10134224173E+03 -0.16840367619E+02  0.11483628101E+03  0.00000000000E+00 0. -1.
         -5    1    5    5    0  502  0.72484381908E+02  0.21553144740E+02 -0.39672217556E+02  0.85524841506E+02  0.47000000000E+01 0.  1.
         11    1    6    6    0    0 -0.62948930159E+00 -0.44840452454E+01  0.31164282200E+02  0.31491513199E+02  0.00000000000E+00 0. -1.
        -12    1    6    6    0    0  0.38685100886E+02 -0.94801518239E+02 -0.87117750899E+01  0.10276069247E+03  0.00000000000E+00 0.  1.
</event>
<event>
12    1  0.8219652E-002  0.1866801E+03  0.7818608E-02  0.1161553E+00
         21   -1    0    0  501  502  0.00000000000E+00  0.00000000000E+00  0.79972929052E+02  0.79972929052E+02  0.00000000000E+00 0.  1.
         21   -1    0    0  502  503 -0.00000000000E+00 -0.00000000000E+00 -0.45685609564E+03  0.45685609564E+03  0.00000000000E+00 0. -1.
         -6    2    1    2    0  503 -0.53632328550E+01 -0.71970398521E+02 -0.24710824556E+03  0.30969653005E+03  0.17216548194E+03 0.  0.
        -24    2    3    3    0    0 -0.68350459370E+01  0.32304052828E+02 -0.87598842257E+02  0.11906424743E+03  0.73569478509E+02 0.  0.
          6    2    1    2  501    0  0.53632328550E+01  0.71970398521E+02 -0.12977492103E+03  0.22713249464E+03  0.17186953617E+03 0.  0.
         24    2    5    5    0    0 -0.60416443649E+02  0.17861137126E+02 -0.77876398131E+02  0.12728098144E+03  0.78527370819E+02 0.  0.
          5    1    5    5  501    0  0.65779676504E+02  0.54109261395E+02 -0.51898522899E+02  0.99851513202E+02  0.47000000000E+01 0. -1.
        -11    1    6    6    0    0 -0.49476806048E+02 -0.12127176078E+02 -0.94989819305E+01  0.51819430661E+02  0.00000000000E+00 0.  1.
         12    1    6    6    0    0 -0.10939637601E+02  0.29988313204E+02 -0.68377416200E+02  0.75461550778E+02  0.00000000000E+00 0. -1.
         -5    1    3    3    0  503  0.14718130820E+01 -0.10427445135E+03 -0.15950940330E+03  0.19063228263E+03  0.47000000000E+01 0.  1.
         11    1    4    4    0    0  0.12004928647E+02 -0.10238052367E+02 -0.65833700049E+02  0.67697947460E+02  0.00000000000E+00 0. -1.
        -12    1    4    4    0    0 -0.18839974584E+02  0.42542105196E+02 -0.21765142208E+02  0.51366299965E+02  0.00000000000E+00 0.  1.
</event>
<event>
12    1  0.8219652E-002  0.1906103E+03  0.7818608E-02  0.1159134E+00
         21   -1    0    0  501  502  0.00000000000E+00  0.00000000000E+00  0.54695689139E+02  0.54695689139E+02  0.00000000000E+00 0.  1.
         21   -1    0    0  502  503 -0.00000000000E+00 -0.00000000000E+00 -0.80465252820E+03  0.80465252820E+03  0.00000000000E+00 0.  1.
         -6    2    1    2    0  503 -0.19750548594E+02  0.66569806098E+02 -0.57021897727E+03  0.60123369940E+03  0.17751241083E+03 0.  0.
        -24    2    3    3    0    0 -0.69508728773E+02 -0.18064558112E+02 -0.24484060524E+03  0.26133367426E+03  0.56485181205E+02 0.  0.
          6    2    1    2  501    0  0.19750548594E+02 -0.66569806098E+02 -0.17973786180E+03  0.25811451794E+03  0.17174336132E+03 0.  0.
         24    2    5    5    0    0  0.44491551876E+02 -0.77966637001E+01 -0.17026660401E+03  0.19347556502E+03  0.80011197136E+02 0.  0.
          5    1    5    5  501    0 -0.24741003281E+02 -0.58773142398E+02 -0.94712577866E+01  0.64638952921E+02  0.47000000000E+01 0. -1.
        -13    1    6    6    0    0 -0.39736528363E+01 -0.19785130901E+02 -0.49414826989E+01  0.20776418674E+02  0.00000000000E+00 0.  1.
         14    1    6    6    0    0  0.48465204712E+02  0.11988467201E+02 -0.16532512131E+03  0.17269914635E+03  0.00000000000E+00 0. -1.
         -5    1    3    3    0  503  0.49758180178E+02  0.84634364210E+02 -0.32537837203E+03  0.33990002514E+03  0.47000000000E+01 0.  1.
         11    1    4    4    0    0 -0.10932218422E+02  0.18878697968E+02 -0.50019273974E+02  0.54569647291E+02  0.00000000000E+00 0. -1.
        -12    1    4    4    0    0 -0.58576510350E+02 -0.36943256080E+02 -0.19482133126E+03  0.20676402697E+03  0.00000000000E+00 0.  1.
</event>
<event>
12    1  0.8219652E-002  0.2629306E+03  0.7818608E-02  0.1105485E+00
         21   -1    0    0  503  502  0.00000000000E+00  0.00000000000E+00  0.34949511831E+03  0.34949511831E+03  0.00000000000E+00 0. -1.
         21   -1    0    0  501  503 -0.00000000000E+00 -0.00000000000E+00 -0.53704059150E+03  0.53704059150E+03  0.00000000000E+00 0.  1.
          6    2    1    2  501    0 -0.17774791778E+03 -0.88977292666E+02 -0.44634837428E+03  0.51803412018E+03  0.17210809848E+03 0.  0.
         24    2    3    3    0    0 -0.18858966395E+03 -0.96887695346E+02 -0.45017898716E+03  0.50330722215E+03  0.75523191995E+02 0.  0.
         -6    2    1    2    0  502  0.17774791778E+03  0.88977292666E+02  0.25880290109E+03  0.36850158963E+03  0.17118177199E+03 0.  0.
        -24    2    5    5    0    0  0.87021829019E+02 -0.19800427283E+02  0.11291338173E+03  0.16510626668E+03  0.80906068230E+02 0.  0.
          5    1    3    3  501    0  0.10841746169E+02  0.79104026805E+01  0.38306128789E+01  0.14726898030E+02  0.47000000000E+01 0. -1.
        -13    1    4    4    0    0 -0.14744827243E+03 -0.42450282177E+02 -0.34933707975E+03  0.38154870565E+03  0.00000000000E+00 0.  1.
         14    1    4    4    0    0 -0.41141391522E+02 -0.54437413169E+02 -0.10084190742E+03  0.12175851650E+03  0.00000000000E+00 0. -1.
         -5    1    5    5    0  502  0.90726088762E+02  0.10877771995E+03  0.14588951936E+03  0.20339532295E+03  0.47000000000E+01 0.  1.
         13    1    6    6    0    0 -0.69769078445E+01  0.12832585885E+02  0.37532486134E+02  0.40274557961E+02  0.00000000000E+00 0. -1.
        -14    1    6    6    0    0  0.93998736863E+02 -0.32633013168E+02  0.75380895592E+02  0.12483170871E+03  0.00000000000E+00 0.  1.
</event>
<event>
12    1  0.8219652E-002  0.1722877E+03  0.7818608E-02  0.1175958E+00
         21   -1    0    0  503  502  0.00000000000E+00  0.00000000000E+00  0.49328492328E+03  0.49328492328E+03  0.00000000000E+00 0. -1.
         21   -1    0    0  501  503 -0.00000000000E+00 -0.00000000000E+00 -0.16001137548E+03  0.16001137548E+03  0.00000000000E+00 0. -1.
          6    2    1    2  501    0  0.11486530371E+01 -0.16494939797E+02 -0.92542210200E+02  0.19394664282E+03  0.16964031699E+03 0.  0.
         24    2    3    3    0    0 -0.51056589110E+02  0.13485906029E+02 -0.93606932872E+02  0.13355242076E+03  0.79280175677E+02 0.  0.
         -6    2    1    2    0  502 -0.11486530371E+01  0.16494939797E+02  0.42581575800E+03  0.45934965594E+03  0.17149240276E+03 0.  0.
        -24    2    5    5    0    0 -0.16362243696E+02  0.13843168805E+02  0.43372007102E+03  0.44137596977E+03  0.78995508349E+02 0.  0.
          5    1    3    3  501    0  0.52205242147E+02 -0.29980845825E+02  0.10647226722E+01  0.60394222061E+02  0.47000000000E+01 0. -1.
        -11    1    4    4    0    0 -0.48651518990E+02  0.11779320516E+02 -0.11459595973E+02  0.51352166767E+02  0.00000000000E+00 0.  1.
         12    1    4    4    0    0 -0.24050701201E+01  0.17065855131E+01 -0.82147336899E+02  0.82200253990E+02  0.00000000000E+00 0. -1.
         -5    1    5    5    0  502  0.15213590659E+02  0.26517709912E+01 -0.79043130231E+01  0.17973686169E+02  0.47000000000E+01 0.  1.
         13    1    6    6    0    0  0.71424975202E+01 -0.20962006470E+02  0.30863438596E+03  0.30942786750E+03  0.00000000000E+00 0. -1.
        -14    1    6    6    0    0 -0.23504741216E+02  0.34805175275E+02  0.12508568506E+03  0.13194810227E+03  0.00000000000E+00 0.  1.
</event>
<event>
12    1  0.8219652E-002  0.3813273E+03  0.7818608E-02  0.1050507E+00
         21   -1    0    0  503  502  0.00000000000E+00  0.00000000000E+00  0.18622161627E+03  0.18622161627E+03  0.00000000000E+00 0. -1.
         21   -1    0    0  501  503 -0.00000000000E+00 -0.00000000000E+00 -0.12939797597E+04  0.12939797597E+04  0.00000000000E+00 0. -1.
          6    2    1    2  501    0 -0.33857992242E+03 -0.27621720695E+02 -0.10202747348E+04  0.10889675763E+04  0.17172805415E+03 0.  0.
         24    2    3    3    0    0 -0.12079483576E+03 -0.50158176897E+02 -0.31362160074E+03  0.34915748067E+03  0.80282020369E+02 0.  0.
         -6    2    1    2    0  502  0.33857992242E+03  0.27621720695E+02 -0.87483408709E+02  0.39123379969E+03  0.17323745525E+03 0.  0.
        -24    2    5    5    0    0  0.21827257674E+03 -0.31941436392E+02 -0.10222357457E+03  0.25610057063E+03  0.80465333918E+02 0.  0.
          5    1    3    3  501    0 -0.21778508666E+03  0.22536456202E+02 -0.70665313402E+03  0.73981009566E+03  0.47000000000E+01 0. -1.
        -11    1    4    4    0    0 -0.12380184000E+03 -0.22751667911E+02 -0.25497260744E+03  0.28435112893E+03  0.00000000000E+00 0.  1.
         12    1    4    4    0    0  0.30070042386E+01 -0.27406508986E+02 -0.58648993306E+02  0.64806351734E+02  0.00000000000E+00 0. -1.
         -5    1    5    5    0  502  0.12030734567E+03  0.59563157086E+02  0.14740165866E+02  0.13513322905E+03  0.47000000000E+01 0.  1.
         11    1    6    6    0    0  0.15449299588E+03  0.10670977563E+01 -0.10041694575E+03  0.18426282171E+03  0.00000000000E+00 0. -1.
        -12    1    6    6    0    0  0.63779580869E+02 -0.33008534148E+02 -0.18066288285E+01  0.71837748922E+02  0.00000000000E+00 0.  1.
</event>
<event>
12    1  0.8219652E-002  0.2347343E+03  0.7818608E-02  0.1124363E+00
         21   -1    0    0  503  502  0.00000000000E+00  0.00000000000E+00  0.11885435094E+03  0.11885435094E+03  0.00000000000E+00 0. -1.
         21   -1    0    0  501  503 -0.00000000000E+00 -0.00000000000E+00 -0.57990126074E+03  0.57990126074E+03  0.00000000000E+00 0. -1.
          6    2    1    2  501    0  0.45919323973E+02 -0.14389884443E+03 -0.39675210999E+03  0.46099072025E+03  0.17967956375E+03 0.  0.
         24    2    3    3    0    0 -0.29946645176E+02 -0.26456301573E+02 -0.10249178908E+03  0.13516926207E+03  0.78545688164E+02 0.  0.
         -6    2    1    2    0  502 -0.45919323973E+02  0.14389884443E+03 -0.64294799800E+02  0.23776489143E+03  0.17199668769E+03 0.  0.
        -24    2    5    5    0    0 -0.13398648486E+02  0.81744031113E+02  0.32701223892E+02  0.11796867378E+03  0.77366837504E+02 0.  0.
          5    1    3    3  501    0  0.75865969149E+02 -0.11744254285E+03 -0.29426032091E+03  0.32582145817E+03  0.47000000000E+01 0. -1.
        -13    1    4    4    0    0 -0.26525979100E+02 -0.48521660947E+01 -0.10904947352E+03  0.11233413888E+03  0.00000000000E+00 0.  1.
         14    1    4    4    0    0 -0.34206660760E+01 -0.21604135479E+02  0.65576844332E+01  0.22835123194E+02  0.00000000000E+00 0. -1.
         -5    1    5    5    0  502 -0.32520675487E+02  0.62154813314E+02 -0.96996023692E+02  0.11979621765E+03  0.47000000000E+01 0.  1.
         13    1    6    6    0    0 -0.12638192383E+02  0.62893326232E+02 -0.15680124430E+02  0.66039084589E+02  0.00000000000E+00 0. -1.
        -14    1    6    6    0    0 -0.76045610270E+00  0.18850704881E+02  0.48381348322E+02  0.51929589190E+02  0.00000000000E+00 0.  1.
</event>
<event>
12    1  0.8219652E-002  0.2128646E+03  0.7818608E-02  0.1139322E+00
         21   -1    0    0  503  502  0.00000000000E+00  0.00000000000E+00  0.30632232080E+03  0.30632232080E+03  0.00000000000E+00 0.  1.
         21   -1    0    0  501  503 -0.00000000000E+00 -0.00000000000E+00 -0.24522863193E+03  0.24522863193E+03  0.00000000000E+00 0. -1.
          6    2    1    2  501    0 -0.82684843237E+02 -0.94353499130E+02 -0.14318565046E+03  0.25652319817E+03  0.17193793824E+03 0.  0.
         24    2    3    3    0    0 -0.10728625230E+03 -0.96219403574E+02 -0.15795785969E+03  0.22738526598E+03  0.77361878141E+02 0.  0.
         -6    2    1    2    0  502  0.82684843237E+02  0.94353499130E+02  0.20427933932E+03  0.29502775456E+03  0.17196500046E+03 0.  0.
        -24    2    5    5    0    0  0.35692876769E+02  0.16029359055E+02  0.20280270168E+02  0.89551081228E+02  0.77956301781E+02 0.  0.
          5    1    3    3  501    0  0.24601409058E+02  0.18659044438E+01  0.14772209234E+02  0.29137932197E+02  0.47000000000E+01 0. -1.
        -11    1    4    4    0    0  0.11045905846E+02 -0.19519428592E+02 -0.24770452321E+02  0.33415496955E+02  0.00000000000E+00 0.  1.
         12    1    4    4    0    0 -0.11833215814E+03 -0.76699974981E+02 -0.13318740737E+03  0.19396976902E+03  0.00000000000E+00 0. -1.
         -5    1    5    5    0  502  0.46991966469E+02  0.78324140074E+02  0.18399906916E+03  0.20547667333E+03  0.47000000000E+01 0.  1.
         11    1    6    6    0    0 -0.37606863372E+00 -0.14254250894E+02  0.36938737883E+02  0.39595396861E+02  0.00000000000E+00 0. -1.
        -12    1    6    6    0    0  0.36068945403E+02  0.30283609950E+02 -0.16658467715E+02  0.49955684368E+02  0.00000000000E+00 0.  1.
</event>
<event>
12    1  0.8219652E-002  0.2162571E+03  0.7818608E-02  0.1136735E+00
         21   -1    0    0  503  502  0.00000000000E+00  0.00000000000E+00  0.36780587361E+03  0.36780587361E+03  0.00000000000E+00 0. -1.
         21   -1    0    0  501  503 -0.00000000000E+00 -0.00000000000E+00 -0.32207669758E+03  0.32207669758E+03  0.00000000000E+00 0. -1.
          6    2    1    2  501    0 -0.52590006218E+02 -0.12073401629E+03 -0.24555247206E+03  0.32709869222E+03  0.17133337817E+03 0.  0.
         24    2    3    3    0    0 -0.47112572174E+02 -0.52022372307E+02 -0.46777268892E+02  0.11665876327E+03  0.80593005188E+02 0.  0.
         -6    2    1    2    0  502  0.52590006218E+02  0.12073401629E+03  0.29128164809E+03  0.36278387898E+03  0.17153638940E+03 0.  0.
        -24    2    5    5    0    0  0.71773898911E+02  0.10891048218E+02  0.15430990064E+03  0.18610097383E+03  0.74511204038E+02 0.  0.
          5    1    3    3  501    0 -0.54774340432E+01 -0.68711643980E+02 -0.19877520317E+03  0.21043992895E+03  0.47000000000E+01 0. -1.
        -11    1    4    4    0    0 -0.55161133945E+02 -0.51308626428E+02 -0.63214250602E+02  0.98343110197E+02  0.00000000000E+00 0.  1.
         12    1    4    4    0    0  0.80485617707E+01 -0.71374587895E+00  0.16436981710E+02  0.18315653073E+02  0.00000000000E+00 0. -1.
         -5    1    5    5    0  502 -0.19183892693E+02  0.10984296807E+03  0.13697174745E+03  0.17668290515E+03  0.47000000000E+01 0.  1.
         11    1    6    6    0    0  0.20485388333E+02 -0.52260956426E+01  0.12105177436E+03  0.12288407255E+03  0.00000000000E+00 0. -1.
        -12    1    6    6    0    0  0.51288510578E+02  0.16117143860E+02  0.33258126287E+02  0.63216901282E+02  0.00000000000E+00 0.  1.
</event>
<event>
12    1  0.8219652E-002  0.2048879E+03  0.7818608E-02  0.1146180E+00
         21   -1    0    0  503  502  0.00000000000E+00  0.00000000000E+00  0.26654285682E+03  0.26654285682E+03  0.00000000000E+00 0. -1.
         21   -1    0    0  501  503 -0.00000000000E+00 -0.00000000000E+00 -0.17972715978E+03  0.17972715978E+03  0.00000000000E+00 0. -1.
          6    2    1    2  501    0  0.92316984450E+01  0.10462591224E+03  0.12488827306E+03  0.23787477192E+03  0.17307663216E+03 0.  0.
         24    2    3    3    0    0 -0.13325478184E+02  0.39168403361E+02 -0.56405728418E+01  0.90045879955E+02  0.79779146675E+02 0.  0.
         -6    2    1    2    0  502 -0.92316984450E+01 -0.10462591224E+03 -0.38072576026E+02  0.20839524468E+03  0.17591830829E+03 0.  0.
        -24    2    5    5    0    0 -0.21475536290E+02 -0.14086110217E+03 -0.14376430036E+02  0.16315700986E+03  0.78169555218E+02 0.  0.
          5    1    3    3  501    0  0.22557176629E+02  0.65457508882E+02  0.13052884591E+03  0.14782889197E+03  0.47000000000E+01 0. -1.
        -11    1    4    4    0    0  0.23499586901E+02  0.46541839567E+02 -0.60483025424E+01  0.52487668823E+02  0.00000000000E+00 0.  1.
         12    1    4    4    0    0 -0.36825065085E+02 -0.73734362054E+01  0.40772970066E+00  0.37558211133E+02  0.00000000000E+00 0. -1.
         -5    1    5    5    0  502  0.12243837845E+02  0.36235189928E+02 -0.23696145990E+02  0.45238234814E+02  0.47000000000E+01 0.  1.
         13    1    6    6    0    0 -0.29264181690E+02 -0.63963442355E+02 -0.40990522963E+02  0.81412144430E+02  0.00000000000E+00 0. -1.
        -14    1    6    6    0    0  0.77886453996E+01 -0.76897659817E+02  0.26614092927E+02  0.81744865434E+02  0.00000000000E+00 0.  1.
</event>
<event>
12    1  0.8219652E-002  0.2266667E+03  0.7818608E-02  0.1129081E+00
         21   -1    0    0  501  502  0.00000000000E+00  0.00000000000E+00  0.15692329635E+03  0.15692329635E+03  0.00000000000E+00 0. -1.
         21   -1    0    0  502  503 -0.00000000000E+00 -0.00000000000E+00 -0.42015806821E+03  0.42015806821E+03  0.00000000000E+00 0. -1.
         -6    2    1    2    0  503  0.14242188945E+03  0.36255084225E+02 -0.26770398658E+03  0.35077514742E+03  0.17256695481E+03 0.  0.
        -24    2    3    3    0    0  0.12595474030E+03  0.27051465881E+02 -0.10366692768E+03  0.18559003827E+03  0.84264179823E+02 0.  0.
          6    2    1    2  501    0 -0.14242188945E+03 -0.36255084225E+02  0.44692147148E+01  0.22630621715E+03  0.17203518336E+03 0.  0.
         24    2    5    5    0    0 -0.39952656815E+02  0.39538126723E+02  0.10207287498E+02  0.98636448050E+02  0.80408220442E+02 0.  0.
          5    1    5    5  501    0 -0.10246923263E+03 -0.75793210948E+02 -0.57380727827E+01  0.12766976910E+03  0.47000000000E+01 0. -1.
        -13    1    6    6    0    0  0.24666901897E+02  0.15498157844E+02  0.19392157569E+01  0.29196052875E+02  0.00000000000E+00 0.  1.
         14    1    6    6    0    0 -0.64619558711E+02  0.24039968879E+02  0.82680717406E+01  0.69440395175E+02  0.00000000000E+00 0. -1.
         -5    1    3    3    0  503  0.16467149146E+02  0.92036183438E+01 -0.16403705890E+03  0.16518510915E+03  0.47000000000E+01 0.  1.
         11    1    4    4    0    0  0.75507528341E+02 -0.21571558106E+02 -0.30382475144E+02  0.84201031770E+02  0.00000000000E+00 0. -1.
        -12    1    4    4    0    0  0.50447211958E+02  0.48623023987E+02 -0.73284452537E+02  0.10138900650E+03  0.00000000000E+00 0.  1.
</event>
<event>
12    1  0.8219652E-002  0.2866272E+03  0.7818608E-02  0.1092197E+00
         21   -1    0    0  503  502  0.00000000000E+00  0.00000000000E+00  0.28684937580E+03  0.28684937580E+03  0.00000000000E+00 0.  1.
         21   -1    0    0  501  503 -0.00000000000E+00 -0.00000000000E+00 -0.32375665693E+03  0.32375665693E+03  0.00000000000E+00 0. -1.
          6    2    1    2  501    0 -0.12327824530E+03  0.19230340635E+03 -0.12290473135E+03  0.31135574569E+03  0.17221701870E+03 0.  0.
         24    2    3    3    0    0 -0.57813545581E+02  0.11251303091E+03  0.12442604068E+01  0.14984044278E+03  0.80305802593E+02 0.  0.
         -6    2    1    2    0  502  0.12327824530E+03 -0.19230340635E+03  0.85997450220E+02  0.29925028703E+03  0.17313880843E+03 0.  0.
        -24    2    5    5    0    0  0.40552742332E+02 -0.25072243483E+02  0.60480590944E+02  0.11088104648E+03  0.79771939205E+02 0.  0.
          5    1    3    3  501    0 -0.65464699722E+02  0.79790375444E+02 -0.12414899175E+03  0.16151530292E+03  0.47000000000E+01 0. -1.
        -11    1    4    4    0    0  0.74466693177E+00  0.16993734934E+02  0.29715249550E+02  0.34239416053E+02  0.00000000000E+00 0.  1.
         12    1    4    4    0    0 -0.58558212513E+02  0.95519295977E+02 -0.28470989143E+02  0.11560102672E+03  0.00000000000E+00 0. -1.
         -5    1    5    5    0  502  0.82725502971E+02 -0.16723116287E+03  0.25516859276E+02  0.18836924055E+03  0.47000000000E+01 0.  1.
         11    1    6    6    0    0  0.96239291183E+01 -0.43194229329E+02  0.46011020210E+01  0.44491927344E+02  0.00000000000E+00 0. -1.
        -12    1    6    6    0    0  0.30928813214E+02  0.18121985846E+02  0.55879488923E+02  0.66389119140E+02  0.00000000000E+00 0.  1.
</event>
<event>
12    1  0.8219652E-002  0.2481447E+03  0.7818608E-02  0.1114596E+00
         21   -1    0    0  503  502  0.00000000000E+00  0.00000000000E+00  0.78951402095E+03  0.78951402095E+03  0.00000000000E+00 0.  1.
         21   -1    0    0  501  503 -0.00000000000E+00 -0.00000000000E+00 -0.17394411243E+03  0.17394411243E+03  0.00000000000E+00 0.  1.
          6    2    1    2  501    0  0.42209236578E+02 -0.17325363551E+03 -0.50612669819E+02  0.25256079600E+03  0.17154262286E+03 0.  0.
         24    2    3    3    0    0  0.75723983506E+02 -0.14470826022E+03 -0.83272500181E+02  0.19754415096E+03  0.73585188971E+02 0.  0.
         -6    2    1    2    0  502 -0.42209236578E+02  0.17325363551E+03  0.66618257834E+03  0.71089733739E+03  0.17256116236E+03 0.  0.
        -24    2    5    5    0    0 -0.69487592142E+02  0.16500056581E+03  0.42468830415E+03  0.46768180272E+03  0.79450618183E+02 0.  0.
          5    1    3    3  501    0 -0.33514746928E+02 -0.28545375291E+02  0.32659830362E+02  0.55016645039E+02  0.47000000000E+01 0. -1.
        -11    1    4    4    0    0  0.57978908458E+02 -0.51072565541E+02 -0.63962246124E+02  0.10030518285E+03  0.00000000000E+00 0.  1.
         12    1    4    4    0    0  0.17745075048E+02 -0.93635694683E+02 -0.19310254057E+02  0.97238968109E+02  0.00000000000E+00 0. -1.
         -5    1    5    5    0  502  0.27278355564E+02  0.82530697025E+01  0.24149427419E+03  0.24321553467E+03  0.47000000000E+01 0.  1.
         13    1    6    6    0    0 -0.78886269745E+02  0.15192632464E+03  0.41492488558E+03  0.44885110265E+03  0.00000000000E+00 0. -1.
        -14    1    6    6    0    0  0.93986776034E+01  0.13074241172E+02  0.97634185678E+01  0.18830700068E+02  0.00000000000E+00 0.  1.
</event>
<event>
12    1  0.8219652E-002  0.1934351E+03  0.7818608E-02  0.1155473E+00
         21   -1    0    0  501  502  0.00000000000E+00  0.00000000000E+00  0.81576698774E+02  0.81576698774E+02  0.00000000000E+00 0. -1.
         21   -1    0    0  502  503 -0.00000000000E+00 -0.00000000000E+00 -0.58608744610E+03  0.58608744610E+03  0.00000000000E+00 0. -1.
         -6    2    1    2    0  503 -0.86912078897E+02  0.19083079156E+02 -0.40822015436E+03  0.45158776281E+03  0.17137660203E+03 0.  0.
        -24    2    3    3    0    0 -0.22898661600E+02  0.61215131945E+02 -0.15221833167E+03  0.18432038603E+03  0.80820437574E+02 0.  0.
          6    2    1    2  501    0  0.86912078897E+02 -0.19083079156E+02 -0.96290592965E+02  0.21607638207E+03  0.17175346059E+03 0.  0.
         24    2    5    5    0    0  0.12325676888E+03 -0.35846673862E+02 -0.64980162164E+02  0.16504318038E+03  0.80867884925E+02 0.  0.
          5    1    5    5  501    0 -0.36344689985E+02  0.16763594706E+02 -0.31310430801E+02  0.51033201687E+02  0.47000000000E+01 0. -1.
        -13    1    6    6    0    0  0.55283666462E+02 -0.44136824216E+02 -0.14396522430E+00  0.70741527799E+02  0.00000000000E+00 0.  1.
         14    1    6    6    0    0  0.67973102420E+02  0.82901503544E+01 -0.64836196940E+02  0.94301652579E+02  0.00000000000E+00 0. -1.
         -5    1    3    3    0  503 -0.64013417298E+02 -0.42132052789E+02 -0.25600182270E+03  0.26726737678E+03  0.47000000000E+01 0.  1.
         13    1    4    4    0    0  0.21372129505E+02  0.20838859136E+02 -0.12623253152E+02  0.32409450625E+02  0.00000000000E+00 0. -1.
        -14    1    4    4    0    0 -0.44270791104E+02  0.40376272809E+02 -0.13959507852E+03  0.15191093541E+03  0.00000000000E+00 0.  1.
</event>
<event>
12    1  0.8219652E-002  0.2046699E+03  0.7818608E-02  0.1145911E+00
         21   -1    0    0  503  502  0.00000000000E+00  0.00000000000E+00  0.78094422733E+02  0.78094422733E+02  0.00000000000E+00 0. -1.
         21   -1    0    0  501  503 -0.00000000000E+00 -0.00000000000E+00 -0.63891665593E+03  0.63891665593E+03  0.00000000000E+00 0.  1.
          6    2    1    2  501    0  0.35767374329E+02 -0.10403423666E+03 -0.42464192610E+03  0.47139211997E+03  0.17259008634E+03 0.  0.
         24    2    3    3    0    0 -0.26398300199E+01  0.14479491312E+01 -0.26189947487E+03  0.27363266938E+03  0.79211347393E+02 0.  0.
         -6    2    1    2    0  502 -0.35767374329E+02  0.10403423666E+03 -0.13618030709E+03  0.24561895869E+03  0.17228223751E+03 0.  0.
        -24    2    5    5    0    0 -0.52227464172E+02  0.13648708177E+03 -0.88971553917E+02  0.18582867444E+03  0.72525356492E+02 0.  0.
          5    1    3    3  501    0  0.38407204349E+02 -0.10548218579E+03 -0.16274245124E+03  0.19775945060E+03  0.47000000000E+01 0. -1.
        -13    1    4    4    0    0  0.35180659624E+02 -0.13129146588E+02 -0.14965336010E+03  0.15429251923E+03  0.00000000000E+00 0.  1.
         14    1    4    4    0    0 -0.37820489644E+02  0.14577095720E+02 -0.11224611477E+03  0.11934015015E+03  0.00000000000E+00 0. -1.
         -5    1    5    5    0  502  0.16460089843E+02 -0.32452845112E+02 -0.47208753172E+02  0.59790284240E+02  0.47000000000E+01 0.  1.
         11    1    6    6    0    0 -0.13982833459E+02  0.75445599739E+02 -0.75250831083E+01  0.77098541019E+02  0.00000000000E+00 0. -1.
        -12    1    6    6    0    0 -0.38244630713E+02  0.61041482036E+02 -0.81446470809E+02  0.10873013343E+03  0.00000000000E+00 0.  1.
</event>
<event>
12    1  0.8219652E-002  0.1891896E+03  0.7818608E-02  0.1159491E+00
         21   -1    0    0  501  502  0.00000000000E+00  0.00000000000E+00  0.19866048321E+03  0.19866048321E+03  0.00000000000E+00 0. -1.
         21   -1    0    0  502  503 -0.00000000000E+00 -0.00000000000E+00 -0.32952330049E+03  0.32952330049E+03  0.00000000000E+00 0. -1.
         -6    2    1    2    0  503  0.75040098342E+02  0.11146518614E+02 -0.24383984316E+03  0.30782834766E+03  0.17188705964E+03 0.  0.
        -24    2    3    3    0    0  0.30988269368E+02  0.53341851544E+02 -0.22209288186E+03  0.24289738368E+03  0.76604600778E+02 0.  0.
          6    2    1    2  501    0 -0.75040098342E+02 -0.11146518614E+02  0.11297702588E+03  0.22035543604E+03  0.17331315178E+03 0.  0.
         24    2    5    5    0    0  0.17966020822E+02  0.23792329886E+02  0.26761311846E+02  0.88726789149E+02  0.79167053977E+02 0.  0.
          5    1    5    5  501    0 -0.93006119164E+02 -0.34938848499E+02  0.86215714036E+02  0.13162864689E+03  0.47000000000E+01 0. -1.
        -13    1    6    6    0    0  0.18613117662E+02  0.34794900645E+02 -0.17461421266E+02  0.43151297693E+02  0.00000000000E+00 0.  1.
         14    1    6    6    0    0 -0.64709683920E+00 -0.11002570759E+02  0.44222733111E+02  0.45575491456E+02  0.00000000000E+00 0. -1.
         -5    1    3    3    0  503  0.44051828974E+02 -0.42195332930E+02 -0.21746961301E+02  0.64930963976E+02  0.47000000000E+01 0.  1.
         11    1    4    4    0    0 -0.15533935661E+02  0.11744649732E+02 -0.10155966399E+02  0.21963233094E+02  0.00000000000E+00 0. -1.
        -12    1    4    4    0    0  0.46522205029E+02  0.41597201812E+02 -0.21193691546E+03  0.22093415059E+03  0.00000000000E+00 0.  1.
</event>
<event>
12    1  0.8219652E-002  0.2670899E+03  0.7818608E-02  0.1103080E+00
         21   -1    0    0  503  502  0.00000000000E+00  0.00000000000E+00  0.10552700896E+04  0.10552700896E+04  0.00000000000E+00 0. -1.
         21   -1    0    0  501  503 -0.00000000000E+00 -0.00000000000E+00 -0.67449270011E+02  0.67449270011E+02  0.00000000000E+00 0. -1.
          6    2    1    2  501    0 -0.12098470916E+03 -0.16487326035E+03  0.51186164739E+03  0.57735547430E+03  0.17180368391E+03 0.  0.
         24    2    3    3    0    0 -0.74815461512E+02 -0.32925398472E+02  0.32044905654E+03  0.34028437185E+03  0.80152484298E+02 0.  0.
         -6    2    1    2    0  502  0.12098470916E+03  0.16487326035E+03  0.47595917225E+03  0.54536388536E+03  0.17048208698E+03 0.  0.
        -24    2    5    5    0    0  0.13048757708E+03  0.13923851181E+03  0.29758238049E+03  0.36484293181E+03  0.90225942908E+02 0.  0.
          5    1    3    3  501    0 -0.46169247650E+02 -0.13194786187E+03  0.19141259085E+03  0.23707110245E+03  0.47000000000E+01 0. -1.
        -13    1    4    4    0    0 -0.62688769251E+02  0.14668492696E+02  0.15934487049E+03  0.17185992616E+03  0.00000000000E+00 0.  1.
         14    1    4    4    0    0 -0.12126692261E+02 -0.47593891168E+02  0.16110418605E+03  0.16842444569E+03  0.00000000000E+00 0. -1.
         -5    1    5    5    0  502 -0.95028679213E+01  0.25634748533E+02  0.17837679176E+03  0.18052095355E+03  0.47000000000E+01 0.  1.
         11    1    6    6    0    0  0.11749081343E+03  0.10799339379E+03  0.28867747595E+03  0.32985049562E+03  0.00000000000E+00 0. -1.
        -12    1    6    6    0    0  0.12996763655E+02  0.31245118027E+02  0.89049045414E+01  0.34992436196E+02  0.00000000000E+00 0.  1.
</event>
<event>
12    1  0.8219652E-002  0.2179186E+03  0.7818608E-02  0.1135534E+00
         21   -1    0    0  501  502  0.00000000000E+00  0.00000000000E+00  0.42619532986E+03  0.42619532986E+03  0.00000000000E+00 0.  1.
         21   -1    0    0  502  503 -0.00000000000E+00 -0.00000000000E+00 -0.11378517307E+03  0.11378517307E+03  0.00000000000E+00 0. -1.
         -6    2    1    2    0  503 -0.34932163938E+01  0.13237270918E+03  0.11520321247E+03  0.24607731600E+03  0.17247471869E+03 0.  0.
        -24    2    3    3    0    0 -0.52685821981E+02  0.13765606075E+03  0.93168159249E+02  0.19171317507E+03  0.79678407975E+02 0.  0.
          6    2    1    2  501    0  0.34932163938E+01 -0.13237270918E+03  0.19720694432E+03  0.29390318694E+03  0.17307156817E+03 0.  0.
         24    2    5    5    0    0  0.60563060529E+02 -0.42587476092E+02  0.73378680153E+02  0.13058177316E+03  0.78648530573E+02 0.  0.
          5    1    5    5  501    0 -0.57069844135E+02 -0.89785233090E+02  0.12382826416E+03  0.16332141377E+03  0.47000000000E+01 0. -1.
        -11    1    6    6    0    0 -0.23229166732E+01 -0.29849861746E+02  0.56963015389E+02  0.64352119704E+02  0.00000000000E+00 0.  1.
         12    1    6    6    0    0  0.62885977202E+02 -0.12737614346E+02  0.16415664764E+02  0.66229653461E+02  0.00000000000E+00 0. -1.
         -5    1    3    3    0  503  0.49192605587E+02 -0.52833515725E+01  0.22035053223E+02  0.54364140928E+02  0.47000000000E+01 0.  1.
         13    1    4    4    0    0 -0.27549977814E+02  0.98009204855E+01 -0.35250784294E+01  0.29453106760E+02  0.00000000000E+00 0. -1.
        -14    1    4    4    0    0 -0.25135844167E+02  0.12785514027E+03  0.96693237678E+02  0.16226006831E+03  0.00000000000E+00 0.  1.
</event>
<event>
12    1  0.8219652E-002  0.1757072E+03  0.7818608E-02  0.1172077E+00
         21   -1    0    0  501  502  0.00000000000E+00  0.00000000000E+00  0.21445383464E+03  0.21445383464E+03  0.00000000000E+00 0. -1.
         21   -1    0    0  502  503 -0.00000000000E+00 -0.00000000000E+00 -0.15001529924E+03  0.15001529924E+03  0.00000000000E+00 0.  1.
         -6    2    1    2    0  503  0.31548440965E+02 -0.74430396463E+01  0.69378592181E+02  0.18890850982E+03  0.17269143889E+03 0.  0.
        -24    2    3    3    0    0 -0.18939366993E+02 -0.60676914060E+02  0.27432176638E+02  0.10426540075E+03  0.77963850313E+02 0.  0.
          6    2    1    2  501    0 -0.31548440965E+02  0.74430396463E+01 -0.49400567813E+01  0.17556062406E+03  0.17247152111E+03 0.  0.
         24    2    5    5    0    0  0.12339120543E+01 -0.49920525510E+02 -0.39480175660E+02  0.10085874264E+03  0.78231836803E+02 0.  0.
          5    1    5    5  501    0 -0.32782353019E+02  0.57363565157E+02  0.34540118879E+02  0.74701881430E+02  0.47000000000E+01 0. -1.
        -13    1    6    6    0    0 -0.12881568035E+02 -0.59793972694E+01 -0.51289332327E+02  0.53219203275E+02  0.00000000000E+00 0.  1.
         14    1    6    6    0    0  0.14115480089E+02 -0.43941128241E+02  0.11809156666E+02  0.47639539360E+02  0.00000000000E+00 0. -1.
         -5    1    3    3    0  503  0.50487807958E+02  0.53233874414E+02  0.41946415543E+02  0.84643109078E+02  0.47000000000E+01 0.  1.
         11    1    4    4    0    0 -0.36408139778E+02 -0.45616655277E+02 -0.11049200682E+02  0.59401319147E+02  0.00000000000E+00 0. -1.
        -12    1    4    4    0    0  0.17468772785E+02 -0.15060258783E+02  0.38481377320E+02  0.44864081598E+02  0.00000000000E+00 0.  1.
</event>
<event>
12    1  0.8219652E-002  0.2332258E+03  0.7818608E-02  0.1124804E+00
         21   -1    0    0  503  502  0.00000000000E+00  0.00000000000E+00  0.14014819135E+03  0.14014819135E+03  0.00000000000E+00 0.  1.
         21   -1    0    0  501  503 -0.00000000000E+00 -0.00000000000E+00 -0.79595272622E+03  0.79595272622E+03  0.00000000000E+00 0. -1.
          6    2    1    2  501    0  0.39427016368E+02  0.15501750356E+03 -0.66537139736E+03  0.70506266978E+03  0.16973319024E+03 0.  0.
         24    2    3    3    0    0 -0.12182733503E+02  0.11026473474E+02 -0.24251801390E+03  0.25536937772E+03  0.78284927648E+02 0.  0.
         -6    2    1    2    0  502 -0.39427016368E+02 -0.15501750356E+03  0.95668624926E+01  0.23103824778E+03  0.16643987218E+03 0.  0.
        -24    2    5    5    0    0 -0.26533966068E+02 -0.20757212200E+02 -0.45393432799E+02  0.85316661737E+02  0.63901923406E+02 0.  0.
          5    1    3    3  501    0  0.51609749870E+02  0.14399103008E+03 -0.42285338346E+03  0.44969329206E+03  0.47000000000E+01 0. -1.
        -13    1    4    4    0    0  0.14863157290E+02 -0.19946298063E+02 -0.30292047446E+02  0.39196637477E+02  0.00000000000E+00 0.  1.
         14    1    4    4    0    0 -0.27045890793E+02  0.30972771537E+02 -0.21222596646E+03  0.21617274024E+03  0.00000000000E+00 0. -1.
         -5    1    5    5    0  502 -0.12893050299E+02 -0.13426029136E+03  0.54960295292E+02  0.14572158605E+03  0.47000000000E+01 0.  1.
         11    1    6    6    0    0 -0.47303500059E+02 -0.20267236155E+02 -0.32486806140E+02  0.60858644024E+02  0.00000000000E+00 0. -1.
        -12    1    6    6    0    0  0.20769533991E+02 -0.48997604473E+00 -0.12906626659E+02  0.24458017713E+02  0.00000000000E+00 0.  1.
</event>
<event>
12    1  0.8219652E-002  0.2248971E+03  0.7818608E-02  0.1131609E+00
         21   -1    0    0  501  502  0.00000000000E+00  0.00000000000E+00  0.34664144787E+03  0.34664144787E+03  0.00000000000E+00 0. -1.
         21   -1    0    0  502  503 -0.00000000000E+00 -0.00000000000E+00 -0.21386301081E+03  0.21386301081E+03  0.00000000000E+00 0. -1.
         -6    2    1    2    0  503 -0.70319806225E+02  0.11359090074E+03 -0.97570393227E+02  0.23857392434E+03  0.17190045917E+03 0.  0.
        -24    2    3    3    0    0  0.27325325608E+02  0.39978167479E+02 -0.28113122967E+02  0.97862131440E+02  0.80260337605E+02 0.  0.
          6    2    1    2  501    0  0.70319806225E+02 -0.11359090074E+03  0.23034883029E+03  0.32193053434E+03  0.18091687994E+03 0.  0.
         24    2    5    5    0    0  0.44899790118E+02 -0.88886098490E+02  0.49518582797E+02  0.13759884178E+03  0.81022352230E+02 0.  0.
          5    1    5    5  501    0  0.25420016108E+02 -0.24704802252E+02  0.18083024749E+03  0.18433169256E+03  0.47000000000E+01 0. -1.
        -11    1    6    6    0    0  0.80371068018E+01  0.15388904385E+02  0.10656279447E+02  0.20370806454E+02  0.00000000000E+00 0.  1.
         12    1    6    6    0    0  0.36862683316E+02 -0.10427500288E+03  0.38862303350E+02  0.11722803533E+03  0.00000000000E+00 0. -1.
         -5    1    3    3    0  503 -0.97645131833E+02  0.73612733262E+02 -0.69457270260E+02  0.14071179290E+03  0.47000000000E+01 0.  1.
         11    1    4    4    0    0 -0.17967617140E+02  0.43417665607E+02 -0.22485420009E+02  0.52091487457E+02  0.00000000000E+00 0. -1.
        -12    1    4    4    0    0  0.45292942748E+02 -0.34394981276E+01 -0.56277029575E+01  0.45770643984E+02  0.00000000000E+00 0.  1.
</event>
<event>
12    1  0.8219652E-002  0.2181815E+03  0.7818608E-02  0.1135492E+00
         21   -1    0    0  503  502  0.00000000000E+00  0.00000000000E+00  0.63731070429E+02  0.63731070429E+02  0.00000000000E+00 0.  1.
         21   -1    0    0  501  503 -0.00000000000E+00 -0.00000000000E+00 -0.85307542835E+03  0.85307542835E+03  0.00000000000E+00 0. -1.
          6    2    1    2  501    0 -0.13286824598E+03  0.79368568268E+01 -0.55869054912E+03  0.59930952152E+03  0.17123027894E+03 0.  0.
         24    2    3    3    0    0 -0.12293840390E+03 -0.48844059334E+02 -0.34637922336E+03  0.37926211016E+03  0.79759567061E+02 0.  0.
         -6    2    1    2    0  502  0.13286824598E+03 -0.79368568268E+01 -0.23065380881E+03  0.31749697726E+03  0.17287621747E+03 0.  0.
        -24    2    5    5    0    0  0.11813277789E+03 -0.62504582634E+02 -0.13407682199E+03  0.20549708841E+03  0.79939246243E+02 0.  0.
          5    1    3    3  501    0 -0.99298420780E+01  0.56780916161E+02 -0.21231132575E+03  0.22004741136E+03  0.47000000000E+01 0. -1.
        -11    1    4    4    0    0 -0.40078071231E+02 -0.12859545475E+02 -0.34073990732E+02  0.54154007680E+02  0.00000000000E+00 0.  1.
         12    1    4    4    0    0 -0.82860332672E+02 -0.35984513859E+02 -0.31230523263E+03  0.32510810248E+03  0.00000000000E+00 0. -1.
         -5    1    5    5    0  502  0.14735468095E+02  0.54567725807E+02 -0.96576986816E+02  0.11199988885E+03  0.47000000000E+01 0.  1.
         11    1    6    6    0    0  0.67186782654E+02 -0.95627544693E+01 -0.10796374773E+03  0.12752129572E+03  0.00000000000E+00 0. -1.
        -12    1    6    6    0    0  0.50945995232E+02 -0.52941828164E+02 -0.26113074257E+02  0.77975792697E+02  0.00000000000E+00 0.  1.
</event>
<event>
12    1  0.8219652E-002  0.2190312E+03  0.7818608E-02  0.1135762E+00
         21   -1    0    0  501  502  0.00000000000E+00  0.00000000000E+00  0.20663424534E+04  0.20663424534E+04  0.00000000000E+00 0. -1.
         21   -1    0    0  502  503 -0.00000000000E+00 -0.00000000000E+00 -0.25297306092E+02  0.25297306092E+02  0.00000000000E+00 0. -1.
         -6    2    1    2    0  503  0.30574806340E+02  0.12146052593E+03  0.69048614224E+03  0.72439340095E+03  0.17968641731E+03 0.  0.
        -24    2    3    3    0    0 -0.37702499572E+02  0.63617036797E+02  0.52295089707E+03  0.53439916916E+03  0.81463030919E+02 0.  0.
          6    2    1    2  501    0 -0.30574806340E+02 -0.12146052593E+03  0.13505590051E+04  0.13672463586E+04  0.17223675753E+03 0.  0.
         24    2    5    5    0    0 -0.82830190700E+02 -0.72769194486E+02  0.72979890731E+03  0.74237304345E+03  0.79718845769E+02 0.  0.
          5    1    5    5  501    0  0.52255384359E+02 -0.48691331448E+02  0.62076009777E+03  0.62487331511E+03  0.47000000000E+01 0. -1.
        -11    1    6    6    0    0  0.99426911141E+01 -0.29035280077E+02  0.11247889822E+03  0.11659076781E+03  0.00000000000E+00 0.  1.
         12    1    6    6    0    0 -0.92772881814E+02 -0.43733914408E+02  0.61732000910E+03  0.62578227564E+03  0.00000000000E+00 0. -1.
         -5    1    3    3    0  503  0.68277305912E+02  0.57843489137E+02  0.16753524517E+03  0.18999423179E+03  0.47000000000E+01 0.  1.
         11    1    4    4    0    0  0.22978997583E+02  0.37320457828E+01  0.80006585176E+02  0.83324763229E+02  0.00000000000E+00 0. -1.
        -12    1    4    4    0    0 -0.60681497155E+02  0.59884991014E+02  0.44294431190E+03  0.45107440593E+03  0.00000000000E+00 0.  1.
</event>
<event>
12    1  0.8219652E-002  0.2541577E+03  0.7818608E-02  0.1110896E+00
         21   -1    0    0  501  502  0.00000000000E+00  0.00000000000E+00  0.81731041312E+03  0.81731041312E+03  0.00000000000E+00 0. -1.
         21   -1    0    0  502  503 -0.00000000000E+00 -0.00000000000E+00 -0.15918474325E+03  0.15918474325E+03  0.00000000000E+00 0. -1.
         -6    2    1    2    0  503  0.90274073325E+02 -0.16250606369E+03 -0.18608536751E+02  0.25360835328E+03  0.17150303252E+03 0.  0.
        -24    2    3    3    0    0 -0.17816268033E+02 -0.92983555845E+02 -0.17808760813E+02  0.12500185798E+03  0.79655203676E+02 0.  0.
          6    2    1    2  501    0 -0.90274073325E+02  0.16250606369E+03  0.67673420662E+03  0.72288680309E+03  0.17331622722E+03 0.  0.
         24    2    5    5    0    0 -0.31494645858E+02  0.14860931885E+02  0.15869017322E+03  0.18099583935E+03  0.79775702888E+02 0.  0.
          5    1    5    5  501    0 -0.58779427467E+02  0.14764513180E+03  0.51804403340E+03  0.54189096374E+03  0.47000000000E+01 0. -1.
        -11    1    6    6    0    0  0.81634968434E+01  0.34194061539E+02  0.10908096788E+03  0.11460599495E+03  0.00000000000E+00 0.  1.
         12    1    6    6    0    0 -0.39658142701E+02 -0.19333129655E+02  0.49609205341E+02  0.66389844399E+02  0.00000000000E+00 0. -1.
         -5    1    3    3    0  503  0.10809034136E+03 -0.69522507845E+02 -0.79977593752E+00  0.12860649530E+03  0.47000000000E+01 0.  1.
         11    1    4    4    0    0  0.25617255711E+02 -0.96006997114E+01 -0.14417602316E+02  0.30923849722E+02  0.00000000000E+00 0. -1.
        -12    1    4    4    0    0 -0.43433523744E+02 -0.83382856133E+02 -0.33911584968E+01  0.94078008258E+02  0.00000000000E+00 0.  1.
</event>
<event>
12    1  0.8219652E-002  0.2079760E+03  0.7818608E-02  0.1146130E+00
         21   -1    0    0  501  502  0.00000000000E+00  0.00000000000E+00  0.15532958621E+03  0.15532958621E+03  0.00000000000E+00 0.  1.
         21   -1    0    0  502  503 -0.00000000000E+00 -0.00000000000E+00 -0.43507986708E+03  0.43507986708E+03  0.00000000000E+00 0. -1.
         -6    2    1    2    0  503  0.46929918693E+02 -0.10739597819E+03 -0.33012155696E+03  0.39017208616E+03  0.17180716239E+03 0.  0.
        -24    2    3    3    0    0 -0.17920286189E+02 -0.70466631124E+02 -0.28068527998E+03  0.30053190974E+03  0.79047578150E+02 0.  0.
          6    2    1    2  501    0 -0.46929918693E+02  0.10739597819E+03  0.50371276099E+02  0.20023736712E+03  0.15434190726E+03 0.  0.
         24    2    5    5    0    0 -0.46120455017E+02  0.13166693523E+03  0.23122599407E+02  0.16343634855E+03  0.81935994642E+02 0.  0.
          5    1    5    5  501    0 -0.80946367616E+00 -0.24270957039E+02  0.27248676692E+02  0.36801018579E+02  0.47000000000E+01 0. -1.
        -11    1    6    6    0    0 -0.59601311062E+02  0.93202570886E+02  0.42236762928E+02  0.11841866256E+03  0.00000000000E+00 0.  1.
         12    1    6    6    0    0  0.13480856045E+02  0.38464364347E+02 -0.19114163521E+02  0.45017685985E+02  0.00000000000E+00 0. -1.
         -5    1    3    3    0  503  0.64850204882E+02 -0.36929347070E+02 -0.49436276982E+02  0.89640176428E+02  0.47000000000E+01 0.  1.
         11    1    4    4    0    0  0.68922595164E+01 -0.74487920397E+02 -0.24952492799E+03  0.26049691594E+03  0.00000000000E+00 0. -1.
        -12    1    4    4    0    0 -0.24812545705E+02  0.40212892729E+01 -0.31160351989E+02  0.40034993792E+02  0.00000000000E+00 0.  1.
</event>
<event>
12    1  0.8219652E-002  0.2351812E+03  0.7818608E-02  0.1123330E+00
         21   -1    0    0  501  502  0.00000000000E+00  0.00000000000E+00  0.26065741126E+03  0.26065741126E+03  0.00000000000E+00 0. -1.
         21   -1    0    0  502  503 -0.00000000000E+00 -0.00000000000E+00 -0.23917499491E+03  0.23917499491E+03  0.00000000000E+00 0.  1.
         -6    2    1    2    0  503  0.15715377644E+03  0.33842137303E+02 -0.75525956865E+02  0.24542956111E+03  0.16937797850E+03 0.  0.
        -24    2    3    3    0    0  0.22316100950E+02 -0.71552734559E+01  0.29910307048E+02  0.69358887323E+02  0.58024326649E+02 0.  0.
          6    2    1    2  501    0 -0.15715377644E+03 -0.33842137303E+02  0.97008373220E+02  0.25440284506E+03  0.17166124604E+03 0.  0.
         24    2    5    5    0    0 -0.14815377343E+03  0.26281884684E+02  0.51027834766E+02  0.17803401640E+03  0.80324299141E+02 0.  0.
          5    1    5    5  501    0 -0.90000030137E+01 -0.60124021987E+02  0.45980538454E+02  0.76368828658E+02  0.47000000000E+01 0. -1.
        -13    1    6    6    0    0 -0.57911605023E+02 -0.84539140106E+01 -0.15644242490E+02  0.60580235898E+02  0.00000000000E+00 0.  1.
         14    1    6    6    0    0 -0.90242168403E+02  0.34735798694E+02  0.66672077256E+02  0.11745378050E+03  0.00000000000E+00 0. -1.
         -5    1    3    3    0  503  0.13483767549E+03  0.40997410759E+02 -0.10543626391E+03  0.17607067379E+03  0.47000000000E+01 0.  1.
         11    1    4    4    0    0 -0.11367043803E+02 -0.19292668950E+02  0.24428186302E+02  0.33138392328E+02  0.00000000000E+00 0. -1.
        -12    1    4    4    0    0  0.33683144753E+02  0.12137395494E+02  0.54821207453E+01  0.36220494995E+02  0.00000000000E+00 0.  1.
</event>
<event>
12    1  0.8219652E-002  0.2147082E+03  0.7818608E-02  0.1137949E+00
         21   -1    0    0  503  502  0.00000000000E+00  0.00000000000E+00  0.83496051298E+03  0.83496051298E+03  0.00000000000E+00 0. -1.
         21   -1    0    0  501  503 -0.00000000000E+00 -0.00000000000E+00 -0.75889315866E+02  0.75889315866E+02  0.00000000000E+00 0. -1.
          6    2    1    2  501    0 -0.12541868035E+03 -0.35838000045E+02  0.14155879760E+03  0.25717410989E+03  0.17054448685E+03 0.  0.
         24    2    3    3    0    0 -0.20437095174E+02 -0.55142923830E+02  0.31804460127E+02  0.10400127319E+03  0.79663820107E+02 0.  0.
         -6    2    1    2    0  502  0.12541868035E+03  0.35838000045E+02  0.61751239951E+03  0.65367571895E+03  0.17016513853E+03 0.  0.
        -24    2    5    5    0    0  0.60751787481E+02  0.84606596697E+02  0.41977348273E+03  0.43994001238E+03  0.80550492276E+02 0.  0.
          5    1    3    3  501    0 -0.10498158518E+03  0.19304923784E+02  0.10975433748E+03  0.15317283670E+03  0.47000000000E+01 0. -1.
        -11    1    4    4    0    0 -0.34890517764E+02 -0.38403545765E+02  0.52427493971E+02  0.73761932467E+02  0.00000000000E+00 0.  1.
         12    1    4    4    0    0  0.14453422591E+02 -0.16739378065E+02 -0.20623033844E+02  0.30239340726E+02  0.00000000000E+00 0. -1.
         -5    1    5    5    0  502  0.64666892869E+02 -0.48768596652E+02  0.19773891678E+03  0.21373570657E+03  0.47000000000E+01 0.  1.
         13    1    6    6    0    0  0.30909941222E+01 -0.73825727550E+00  0.16642255217E+03  0.16645289166E+03  0.00000000000E+00 0. -1.
        -14    1    6    6    0    0  0.57660793359E+02  0.85344853973E+02  0.25335093056E+03  0.27348712073E+03  0.00000000000E+00 0.  1.
</event>
<event>
12    1  0.8219652E-002  0.2122323E+03  0.7818608E-02  0.1141249E+00
         21   -1    0    0  503  502  0.00000000000E+00  0.00000000000E+00  0.47726019647E+02  0.47726019647E+02  0.00000000000E+00 0. -1.
         21   -1    0    0  501  503 -0.00000000000E+00 -0.00000000000E+00 -0.12932269829E+04  0.12932269829E+04  0.00000000000E+00 0. -1.
          6    2    1    2  501    0 -0.11337305924E+03 -0.33907908484E+02 -0.99440683618E+03  0.10168025821E+04  0.17617984651E+03 0.  0.
         24    2    3    3    0    0 -0.48564898442E+02  0.10135543295E+02 -0.82320000898E+03  0.82845770951E+03  0.78883731365E+02 0.  0.
         -6    2    1    2    0  502  0.11337305924E+03  0.33907908484E+02 -0.25109412705E+03  0.32415042042E+03  0.16739784228E+03 0.  0.
        -24    2    5    5    0    0  0.82255921708E+02  0.18646740513E+02 -0.62510598676E+02  0.13235100262E+03  0.80594511963E+02 0.  0.
          5    1    3    3  501    0 -0.64808160797E+02 -0.44043451780E+02 -0.17120682720E+03  0.18834487259E+03  0.47000000000E+01 0. -1.
        -13    1    4    4    0    0  0.20527874569E+02  0.68154569107E+01 -0.28707531153E+03  0.28788900392E+03  0.00000000000E+00 0.  1.
         14    1    4    4    0    0 -0.69092773010E+02  0.33200863846E+01 -0.53612469745E+03  0.54056870559E+03  0.00000000000E+00 0. -1.
         -5    1    5    5    0  502  0.31117137530E+02  0.15261167971E+02 -0.18858352837E+03  0.19179941780E+03  0.47000000000E+01 0.  1.
         13    1    6    6    0    0  0.87929723215E+01  0.37272649663E+02 -0.83377252210E+01  0.39192913097E+02  0.00000000000E+00 0. -1.
        -14    1    6    6    0    0  0.73462949387E+02 -0.18625909151E+02 -0.54172873455E+02  0.93158089518E+02  0.00000000000E+00 0.  1.
</event>
<event>
12    1  0.8219652E-002  0.2648529E+03  0.7818608E-02  0.1104376E+00
         21   -1    0    0  501  502  0.00000000000E+00  0.00000000000E+00  0.10642957819E+03  0.10642957819E+03  0.00000000000E+00 0. -1.
         21   -1    0    0  502  503 -0.00000000000E+00 -0.00000000000E+00 -0.71484937522E+03  0.71484937522E+03  0.00000000000E+00 0.  1.
         -6    2    1    2    0  503  0.30402188742E+02 -0.19861696397E+03 -0.42127067893E+03  0.49761031552E+03  0.17255158568E+03 0.  0.
        -24    2    3    3    0    0  0.62820068741E+01 -0.15993656334E+02 -0.13751467712E+03  0.15927229780E+03  0.78499157765E+02 0.  0.
          6    2    1    2  501    0 -0.30402188742E+02  0.19861696397E+03 -0.18714911810E+03  0.32366863790E+03  0.17135811418E+03 0.  0.
         24    2    5    5    0    0  0.13573932547E+02  0.19988675740E+03 -0.17469033319E+03  0.27770318413E+03  0.80395139998E+02 0.  0.
          5    1    5    5  501    0 -0.43976121289E+02 -0.12697934273E+01 -0.12458784905E+02  0.45965453770E+02  0.47000000000E+01 0. -1.
        -13    1    6    6    0    0 -0.14865543639E+02  0.20974972544E+02 -0.54616921596E+02  0.60365072563E+02  0.00000000000E+00 0.  1.
         14    1    6    6    0    0  0.28439476186E+02  0.17891178486E+03 -0.12007341159E+03  0.21733811157E+03  0.00000000000E+00 0. -1.
         -5    1    3    3    0  503  0.24120181868E+02 -0.18262330764E+03 -0.28375600181E+03  0.33833801772E+03  0.47000000000E+01 0.  1.
         13    1    4    4    0    0 -0.24532158499E+02  0.20205561661E+02 -0.42941569052E+02  0.53423495536E+02  0.00000000000E+00 0. -1.
        -14    1    4    4    0    0  0.30814165373E+02 -0.36199217995E+02 -0.94573108069E+02  0.10584880226E+03  0.00000000000E+00 0.  1.
</event>
<event>
12    1  0.8219652E-002  0.1993864E+03  0.7818608E-02  0.1150397E+00
         21   -1    0    0  503  502  0.00000000000E+00  0.00000000000E+00  0.17606610176E+03  0.17606610176E+03  0.00000000000E+00 0.  1.
         21   -1    0    0  501  503 -0.00000000000E+00 -0.00000000000E+00 -0.25407829816E+03  0.25407829816E+03  0.00000000000E+00 0.  1.
          6    2    1    2  501    0 -0.79474585118E+02  0.31352010923E+02 -0.11164260020E+03  0.22794166573E+03  0.17942735167E+03 0.  0.
         24    2    3    3    0    0  0.22419576157E+02  0.37083160289E+02 -0.44725895429E+02  0.10581385746E+03  0.85547463650E+02 0.  0.
         -6    2    1    2    0  502  0.79474585118E+02 -0.31352010923E+02  0.33630403804E+02  0.20220273419E+03  0.18015488721E+03 0.  0.
        -24    2    5    5    0    0  0.43973138620E+02 -0.47373451092E+02  0.87091902150E+02  0.13589088718E+03  0.81874617615E+02 0.  0.
          5    1    3    3  501    0 -0.10189416128E+03 -0.57311493655E+01 -0.66916704770E+02  0.12212780827E+03  0.47000000000E+01 0. -1.
        -11    1    4    4    0    0 -0.18489585956E+02  0.13187665345E+02 -0.53054169101E+02  0.57710693681E+02  0.00000000000E+00 0.  1.
         12    1    4    4    0    0  0.40909162113E+02  0.23895494944E+02  0.83282736719E+01  0.48103163781E+02  0.00000000000E+00 0. -1.
         -5    1    5    5    0  502  0.35501446498E+02  0.16021440169E+02 -0.53461498346E+02  0.66311847010E+02  0.47000000000E+01 0.  1.
         13    1    6    6    0    0  0.21674097943E+02  0.16418768403E+02  0.54409282068E+02  0.60825261633E+02  0.00000000000E+00 0. -1.
        -14    1    6    6    0    0  0.22299040677E+02 -0.63792219495E+02  0.32682620082E+02  0.75065625546E+02  0.00000000000E+00 0.  1.
</event>
<event>
12    1  0.8219652E-002  0.1985883E+03  0.7818608E-02  0.1151110E+00
         21   -1    0    0  503  502  0.00000000000E+00  0.00000000000E+00  0.54171435521E+02  0.54171435521E+02  0.00000000000E+00 0. -1.
         21   -1    0    0  501  503 -0.00000000000E+00 -0.00000000000E+00 -0.72507084081E+03  0.72507084081E+03  0.00000000000E+00 0. -1.
          6    2    1    2  501    0  0.41278878656E+02  0.88999638664E+02 -0.33831135539E+03  0.39187665501E+03  0.17172029016E+03 0.  0.
         24    2    3    3    0    0 -0.29513933851E+02  0.24151163348E+02 -0.93947891352E+02  0.12928849913E+03  0.80218194543E+02 0.  0.
         -6    2    1    2    0  502 -0.41278878656E+02 -0.88999638664E+02 -0.33258804990E+03  0.38736562131E+03  0.17266276998E+03 0.  0.
        -24    2    5    5    0    0 -0.66863500568E+02 -0.57758082027E+02 -0.32506168859E+03  0.34602140946E+03  0.79113783052E+02 0.  0.
          5    1    3    3  501    0  0.70792812507E+02  0.64848475315E+02 -0.24436346404E+03  0.26258815588E+03  0.47000000000E+01 0. -1.
        -13    1    4    4    0    0 -0.98888096756E+01  0.24818414412E+02 -0.10389597522E+03  0.10727588694E+03  0.00000000000E+00 0.  1.
         14    1    4    4    0    0 -0.19625124176E+02 -0.66725106355E+00  0.99480838710E+01  0.22012612194E+02  0.00000000000E+00 0. -1.
         -5    1    5    5    0  502  0.25584621912E+02 -0.31241556637E+02 -0.75263613101E+01  0.41344211857E+02  0.47000000000E+01 0.  1.
         11    1    6    6    0    0 -0.32508664464E+02 -0.18691044383E+02 -0.26013119655E+03  0.26282010544E+03  0.00000000000E+00 0. -1.
        -12    1    6    6    0    0 -0.34354836104E+02 -0.39067037644E+02 -0.64930492037E+02  0.83201304017E+02  0.00000000000E+00 0.  1.
</event>
<event>
12    1  0.8219652E-002  0.2036354E+03  0.7818608E-02  0.1147118E+00
         21   -1    0    0  503  502  0.00000000000E+00  0.00000000000E+00  0.21702208755E+03  0.21702208755E+03  0.00000000000E+00 0. -1.
         21   -1    0    0  501  503 -0.00000000000E+00 -0.00000000000E+00 -0.21297931807E+03  0.21297931807E+03  0.00000000000E+00 0. -1.
          6    2    1    2  501    0  0.62537465127E+02 -0.80754127117E+02 -0.69799240474E+02  0.21339109620E+03  0.17387254636E+03 0.  0.
         24    2    3    3    0    0  0.77587208178E+02  0.54077701420E+01 -0.21488411503E+02  0.11335913380E+03  0.79621118663E+02 0.  0.
         -6    2    1    2    0  502 -0.62537465127E+02  0.80754127117E+02  0.73842009947E+02  0.21661030942E+03  0.17616815865E+03 0.  0.
        -24    2    5    5    0    0  0.23965152838E+02  0.24931356373E+02  0.74118596812E+02  0.11355182530E+03  0.78768963147E+02 0.  0.
          5    1    3    3  501    0 -0.15049743051E+02 -0.86161897259E+02 -0.48310828970E+02  0.10003196240E+03  0.47000000000E+01 0. -1.
        -13    1    4    4    0    0  0.51502406535E+02  0.34648994136E+02 -0.35782933463E+02  0.71648230968E+02  0.00000000000E+00 0.  1.
         14    1    4    4    0    0  0.26084801643E+02 -0.29241223994E+02  0.14294521960E+02  0.41710902837E+02  0.00000000000E+00 0. -1.
         -5    1    5    5    0  502 -0.86502617965E+02  0.55822770743E+02 -0.27658686525E+00  0.10305848412E+03  0.47000000000E+01 0.  1.
         11    1    6    6    0    0  0.16608439945E+02  0.26774187928E+02 -0.68381482835E+01  0.32240621714E+02  0.00000000000E+00 0. -1.
        -12    1    6    6    0    0  0.73567128932E+01 -0.18428315542E+01  0.80956745095E+02  0.81311203589E+02  0.00000000000E+00 0.  1.
</event>
<event>
12    1  0.8219652E-002  0.1847809E+03  0.7818608E-02  0.1165930E+00
         21   -1    0    0  503  502  0.00000000000E+00  0.00000000000E+00  0.28888094949E+03  0.28888094949E+03  0.00000000000E+00 0. -1.
         21   -1    0    0  501  503 -0.00000000000E+00 -0.00000000000E+00 -0.13227049931E+03  0.13227049931E+03  0.00000000000E+00 0.  1.
          6    2    1    2  501    0 -0.45825679965E+02 -0.46290980668E+02 -0.77025363440E+01  0.17388089654E+03  0.16103536655E+03 0.  0.
         24    2    3    3    0    0  0.16159610150E+02 -0.65910684218E+02  0.12546852311E+02  0.10562229490E+03  0.79958078902E+02 0.  0.
         -6    2    1    2    0  502  0.45825679965E+02  0.46290980668E+02  0.16431298653E+03  0.24727055226E+03  0.17291940503E+03 0.  0.
        -24    2    5    5    0    0  0.54512763324E+02  0.82687406689E+02  0.69144999507E+02  0.14490258365E+03  0.80042983454E+02 0.  0.
          5    1    3    3  501    0 -0.61985290115E+02  0.19619703550E+02 -0.20249388655E+02  0.68258601648E+02  0.47000000000E+01 0. -1.
        -13    1    4    4    0    0  0.84440906185E+01 -0.94961905328E+01 -0.31284015422E+02  0.33766402265E+02  0.00000000000E+00 0.  1.
         14    1    4    4    0    0  0.77155195315E+01 -0.56414493685E+02  0.43830867733E+02  0.71855892630E+02  0.00000000000E+00 0. -1.
         -5    1    5    5    0  502 -0.86870833593E+01 -0.36396426020E+02  0.95167987022E+02  0.10236796861E+03  0.47000000000E+01 0.  1.
         11    1    6    6    0    0 -0.13103332983E+02  0.31478498118E+01  0.30919321862E+02  0.33728485856E+02  0.00000000000E+00 0. -1.
        -12    1    6    6    0    0  0.67616096307E+02  0.79539556877E+02  0.38225677645E+02  0.11117409779E+03  0.00000000000E+00 0.  1.
</event>
<event>
12    1  0.8219652E-002  0.1980570E+03  0.7818608E-02  0.1151494E+00
         21   -1    0    0  501  502  0.00000000000E+00  0.00000000000E+00  0.51160664346E+03  0.51160664346E+03  0.00000000000E+00 0. -1.
         21   -1    0    0  502  503 -0.00000000000E+00 -0.00000000000E+00 -0.80346207420E+02  0.80346207420E+02  0.00000000000E+00 0. -1.
         -6    2    1    2    0  503 -0.87307532373E+02 -0.43855390941E+02  0.15097947866E+03  0.24904088818E+03  0.17228076064E+03 0.  0.
        -24    2    3    3    0    0 -0.60461581880E+02 -0.93443728300E+01  0.10834764598E+02  0.10215880517E+03  0.81093212810E+02 0.  0.
          6    2    1    2  501    0  0.87307532373E+02  0.43855390941E+02  0.28028095738E+03  0.34291196270E+03  0.17171283752E+03 0.  0.
         24    2    5    5    0    0  0.74734882312E+02 -0.19698408014E+02  0.24460597448E+03  0.26880426204E+03  0.80313875706E+02 0.  0.
          5    1    5    5  501    0  0.12572650061E+02  0.63553798956E+02  0.35674982905E+02  0.74107700656E+02  0.47000000000E+01 0. -1.
        -13    1    6    6    0    0 -0.12091946863E+02  0.13726821586E+02  0.45193874145E+02  0.48755790118E+02  0.00000000000E+00 0.  1.
         14    1    6    6    0    0  0.86826829175E+02 -0.33425229600E+02  0.19941210033E+03  0.22004847193E+03  0.00000000000E+00 0. -1.
         -5    1    3    3    0  503 -0.26845950493E+02 -0.34511018111E+02  0.14014471406E+03  0.14688208301E+03  0.47000000000E+01 0.  1.
         13    1    4    4    0    0 -0.29825118048E+02 -0.31134511770E+02 -0.25319784908E+02  0.49999869975E+02  0.00000000000E+00 0. -1.
        -14    1    4    4    0    0 -0.30636463832E+02  0.21790138940E+02  0.36154549506E+02  0.52158935199E+02  0.00000000000E+00 0.  1.
</event>
<event>
12    1  0.8219652E-002  0.1969453E+03  0.7818608E-02  0.1153840E+00
         21   -1    0    0  501  502  0.00000000000E+00  0.00000000000E+00  0.61617505167E+03  0.61617505167E+03  0.00000000000E+00 0. -1.
         21   -1    0    0  502  503 -0.00000000000E+00 -0.00000000000E+00 -0.90127206315E+02  0.90127206315E+02  0.00000000000E+00 0. -1.
         -6    2    1    2    0  503 -0.20957108439E+02  0.92010340954E+02  0.58409956301E+02  0.19888464529E+03  0.16504022510E+03 0.  0.
        -24    2    3    3    0    0 -0.14740351929E+02 -0.13022355003E+02  0.41002208015E+02  0.92134305795E+02  0.80129205271E+02 0.  0.
          6    2    1    2  501    0  0.20957108439E+02 -0.92010340954E+02  0.46763788905E+03  0.50741761270E+03  0.17286507791E+03 0.  0.
         24    2    5    5    0    0 -0.24559685520E+01  0.14154517884E+02  0.27113391410E+03  0.28279559330E+03  0.79078227444E+02 0.  0.
          5    1    5    5  501    0  0.23413076991E+02 -0.10616485884E+03  0.19650397496E+03  0.22462201940E+03  0.47000000000E+01 0. -1.
        -13    1    6    6    0    0 -0.30432259607E+02  0.63181072130E+01  0.44341742266E+02  0.54150078585E+02  0.00000000000E+00 0.  1.
         14    1    6    6    0    0  0.27976291055E+02  0.78364106707E+01  0.22679217183E+03  0.22864551471E+03  0.00000000000E+00 0. -1.
         -5    1    3    3    0  503 -0.62167565094E+01  0.10503269596E+03  0.17407748286E+02  0.10675033949E+03  0.47000000000E+01 0.  1.
         11    1    4    4    0    0 -0.15664607007E+02  0.93905125557E+01  0.60012785834E+02  0.62730344350E+02  0.00000000000E+00 0. -1.
        -12    1    4    4    0    0  0.92425507823E+00 -0.22412867559E+02 -0.19010577819E+02  0.29403961445E+02  0.00000000000E+00 0.  1.
</event>
<event>
12    1  0.8219652E-002  0.2086920E+03  0.7818608E-02  0.1143396E+00
         21   -1    0    0  501  502  0.00000000000E+00  0.00000000000E+00  0.16861941010E+02  0.16861941010E+02  0.00000000000E+00 0. -1.
         21   -1    0    0  502  503 -0.00000000000E+00 -0.00000000000E+00 -0.26217572643E+04  0.26217572643E+04  0.00000000000E+00 0.  1.
         -6    2    1    2    0  503  0.53247532846E+02  0.10476292477E+03 -0.10738520067E+04  0.10939426389E+04  0.17245809562E+03 0.  0.
        -24    2    3    3    0    0  0.69311589146E+02  0.40994903446E+02 -0.36986778547E+03  0.38687808160E+03  0.79923668548E+02 0.  0.
          6    2    1    2  501    0 -0.53247532846E+02 -0.10476292477E+03 -0.15310433165E+04  0.15446765664E+04  0.16769462541E+03 0.  0.
         24    2    5    5    0    0 -0.94160612703E+02 -0.44309916871E+02 -0.10273548505E+04  0.10357044580E+04  0.79975907394E+02 0.  0.
          5    1    5    5  501    0  0.40913079857E+02 -0.60453007898E+02 -0.50368846607E+03  0.50897210839E+03  0.47000000000E+01 0. -1.
        -11    1    6    6    0    0 -0.98449209871E+02 -0.58778154177E+02 -0.84815241796E+03  0.85586777157E+03  0.00000000000E+00 0.  1.
         12    1    6    6    0    0  0.42885971685E+01  0.14468237307E+02 -0.17920243251E+03  0.17983668640E+03  0.00000000000E+00 0. -1.
         -5    1    3    3    0  503 -0.16064056301E+02  0.63768021323E+02 -0.70398422128E+03  0.70706455735E+03  0.47000000000E+01 0.  1.
         11    1    4    4    0    0  0.74322057294E+02  0.57439832381E+02 -0.33619862784E+03  0.34907394619E+03  0.00000000000E+00 0. -1.
        -12    1    4    4    0    0 -0.50104681478E+01 -0.16444928935E+02 -0.33669157629E+02  0.37804135411E+02  0.00000000000E+00 0.  1.
</event>
<event>
12    1  0.8219652E-002  0.1685260E+03  0.7818608E-02  0.1179473E+00
         21   -1    0    0  501  502  0.00000000000E+00  0.00000000000E+00  0.23055542203E+04  0.23055542203E+04  0.00000000000E+00 0.  1.
         21   -1    0    0  502  503 -0.00000000000E+00 -0.00000000000E+00 -0.18760505202E+02  0.18760505202E+02  0.00000000000E+00 0.  1.
         -6    2    1    2    0  503  0.18676461482E+02 -0.14249810072E+02  0.46189787953E+03  0.49168146875E+03  0.16688064087E+03 0.  0.
        -24    2    3    3    0    0  0.26603880385E+02  0.35627867578E+01  0.10673480256E+03  0.13595259191E+03  0.79814342495E+02 0.  0.
          6    2    1    2  501    0 -0.18676461482E+02  0.14249810072E+02  0.18248958355E+04  0.18326332567E+04  0.16657723670E+03 0.  0.
         24    2    5    5    0    0  0.20103762117E+02  0.54679378948E+02  0.76060459708E+03  0.76685824011E+03  0.78474273430E+02 0.  0.
          5    1    5    5  501    0 -0.38780223600E+02 -0.40429568876E+02  0.10642912384E+04  0.10657750166E+04  0.47000000000E+01 0. -1.
        -13    1    6    6    0    0  0.48848405394E+02  0.20526469225E+02  0.43087336390E+03  0.43411906013E+03  0.00000000000E+00 0.  1.
         14    1    6    6    0    0 -0.28744643276E+02  0.34152909723E+02  0.32973123318E+03  0.33273917998E+03  0.00000000000E+00 0. -1.
         -5    1    3    3    0  503 -0.79274189026E+01 -0.17812596830E+02  0.35516307697E+03  0.35572887684E+03  0.47000000000E+01 0.  1.
         13    1    4    4    0    0  0.36381335376E+02 -0.18970674203E+02  0.10330007172E+03  0.11115031651E+03  0.00000000000E+00 0. -1.
        -14    1    4    4    0    0 -0.97774549909E+01  0.22533460961E+02  0.34347308439E+01  0.24802275399E+02  0.00000000000E+00 0.  1.
</event>
<event>
12    1  0.8219652E-002  0.2586450E+03  0.7818608E-02  0.1107965E+00
         21   -1    0    0  501  502  0.00000000000E+00  0.00000000000E+00  0.51722217575E+03  0.51722217575E+03  0.00000000000E+00 0. -1.
         21   -1    0    0  502  503 -0.00000000000E+00 -0.00000000000E+00 -0.18097737031E+03  0.18097737031E+03  0.00000000000E+00 0.  1.
         -6    2    1    2    0  503  0.18218468947E+03 -0.63246644109E+02 -0.18375251361E+02  0.25929690455E+03  0.17235380987E+03 0.  0.
        -24    2    3    3    0    0  0.87388037032E+02 -0.43358478312E+02 -0.75658008836E+02  0.14666765099E+03  0.79187365713E+02 0.  0.
          6    2    1    2  501    0 -0.18218468947E+03  0.63246644109E+02  0.35462005681E+03  0.43890264151E+03  0.17230422215E+03 0.  0.
         24    2    5    5    0    0 -0.14987756321E+03  0.11105123837E+02  0.33317886135E+03  0.37375432299E+03  0.78086699093E+02 0.  0.
          5    1    5    5  501    0 -0.32307126262E+02  0.52141520272E+02  0.21441195454E+02  0.65148318520E+02  0.47000000000E+01 0. -1.
        -13    1    6    6    0    0 -0.47596157815E+02 -0.18004230039E+02  0.50320070554E+02  0.71565746266E+02  0.00000000000E+00 0.  1.
         14    1    6    6    0    0 -0.10228140539E+03  0.29109353877E+02  0.28285879080E+03  0.30218857673E+03  0.00000000000E+00 0. -1.
         -5    1    3    3    0  503  0.94796652440E+02 -0.19888165797E+02  0.57282757476E+02  0.11262925356E+03  0.47000000000E+01 0.  1.
         13    1    4    4    0    0 -0.50785323429E+01  0.10479177952E+02 -0.26443541188E+02  0.28894039729E+02  0.00000000000E+00 0. -1.
        -14    1    4    4    0    0  0.92466569375E+02 -0.53837656264E+02 -0.49214467649E+02  0.11777361126E+03  0.00000000000E+00 0.  1.
</event>
<event>
12    1  0.8219652E-002  0.2166978E+03  0.7818608E-02  0.1136572E+00
         21   -1    0    0  503  502  0.00000000000E+00  0.00000000000E+00  0.11961323652E+03  0.11961323652E+03  0.00000000000E+00 0. -1.
         21   -1    0    0  501  503 -0.00000000000E+00 -0.00000000000E+00 -0.39369900477E+03  0.39369900477E+03  0.00000000000E+00 0. -1.
          6    2    1    2  501    0 -0.76432593923E+02  0.10625853067E+03 -0.15927164507E+03  0.26807720492E+03  0.17136252250E+03 0.  0.
         24    2    3    3    0    0  0.14742127939E+02  0.27787391079E+02 -0.10968441983E+03  0.13787915362E+03  0.77398447070E+02 0.  0.
         -6    2    1    2    0  502  0.76432593923E+02 -0.10625853067E+03 -0.11481412318E+03  0.24523503637E+03  0.17269951774E+03 0.  0.
        -24    2    5    5    0    0  0.69541404872E+02 -0.86773772824E+02 -0.85693727819E+01  0.13689676399E+03  0.79382587513E+02 0.  0.
          5    1    3    3  501    0 -0.91174721862E+02  0.78471139595E+02 -0.49587225236E+02  0.13019805130E+03  0.47000000000E+01 0. -1.
        -13    1    4    4    0    0 -0.33185756322E+01 -0.17597222444E+02 -0.10708965667E+00  0.17907725991E+02  0.00000000000E+00 0.  1.
         14    1    4    4    0    0  0.18060703572E+02  0.45384613523E+02 -0.10957733018E+03  0.11997142763E+03  0.00000000000E+00 0. -1.
         -5    1    5    5    0  502  0.68911890510E+01 -0.19484757850E+02 -0.10624475040E+03  0.10833827238E+03  0.47000000000E+01 0.  1.
         13    1    6    6    0    0  0.75836515957E+02 -0.34890629516E+02 -0.12837737268E+02  0.84459106547E+02  0.00000000000E+00 0. -1.
        -14    1    6    6    0    0 -0.62951110852E+01 -0.51883143308E+02  0.42683644859E+01  0.52437657446E+02  0.00000000000E+00 0.  1.
</event>
<event>
12    1  0.8219652E-002  0.1946041E+03  0.7818608E-02  0.1154888E+00
         21   -1    0    0  503  502  0.00000000000E+00  0.00000000000E+00  0.30016276517E+03  0.30016276517E+03  0.00000000000E+00 0. -1.
         21   -1    0    0  501  503 -0.00000000000E+00 -0.00000000000E+00 -0.12471060537E+03  0.12471060537E+03  0.00000000000E+00 0. -1.
          6    2    1    2  501    0  0.76593556472E+02  0.39141146954E+02  0.83762622855E+02  0.21186534346E+03  0.17456272367E+03 0.  0.
         24    2    3    3    0    0  0.81070151664E+02 -0.32497321697E+02  0.72512804373E+02  0.13905903528E+03  0.80317265186E+02 0.  0.
         -6    2    1    2    0  502 -0.76593556472E+02 -0.39141146954E+02  0.91689536950E+02  0.21300802708E+03  0.17195012689E+03 0.  0.
        -24    2    5    5    0    0 -0.83650110239E+02 -0.56593155036E+02  0.95467085208E+01  0.12860481743E+03  0.79043869350E+02 0.  0.
          5    1    3    3  501    0 -0.44765951911E+01  0.71638468651E+02  0.11249818482E+02  0.72806308182E+02  0.47000000000E+01 0. -1.
        -11    1    4    4    0    0  0.38861361604E+02 -0.25096863825E+02  0.82928355103E+02  0.94958780951E+02  0.00000000000E+00 0.  1.
         12    1    4    4    0    0  0.42208790059E+02 -0.74004578719E+01 -0.10415550730E+02  0.44100254330E+02  0.00000000000E+00 0. -1.
         -5    1    5    5    0  502  0.70565537662E+01  0.17452008082E+02  0.82142828430E+02  0.84403209652E+02  0.47000000000E+01 0.  1.
         13    1    6    6    0    0 -0.82160413657E+02 -0.25444966271E+02 -0.16973190504E+02  0.87669088490E+02  0.00000000000E+00 0. -1.
        -14    1    6    6    0    0 -0.14896965819E+01 -0.31148188766E+02  0.26519899025E+02  0.40935728937E+02  0.00000000000E+00 0.  1.
</event>
<event>
12    1  0.8219652E-002  0.2070414E+03  0.7818608E-02  0.1144133E+00
         21   -1    0    0  503  502  0.00000000000E+00  0.00000000000E+00  0.64819614609E+02  0.64819614609E+02  0.00000000000E+00 0. -1.
         21   -1    0    0  501  503 -0.00000000000E+00 -0.00000000000E+00 -0.67929769299E+03  0.67929769299E+03  0.00000000000E+00 0.  1.
          6    2    1    2  501    0 -0.28608131598E+02 -0.10744916430E+03 -0.24081441097E+03  0.31692804079E+03  0.17345908568E+03 0.  0.
         24    2    3    3    0    0  0.50676888460E+02 -0.27015294870E+02 -0.96340342571E+02  0.13348712879E+03  0.72383553133E+02 0.  0.
         -6    2    1    2    0  502  0.28608131598E+02  0.10744916430E+03 -0.37366366741E+03  0.42718926681E+03  0.17464932074E+03 0.  0.
        -24    2    5    5    0    0 -0.27574155124E+02  0.90184247235E+02 -0.33414877011E+03  0.35621008809E+03  0.79603353038E+02 0.  0.
          5    1    3    3  501    0 -0.79285020057E+02 -0.80433869426E+02 -0.14447406840E+03  0.18344091200E+03  0.47000000000E+01 0. -1.
        -11    1    4    4    0    0  0.54701433060E+02 -0.29089340777E+02 -0.10602321430E+03  0.12279803946E+03  0.00000000000E+00 0.  1.
         12    1    4    4    0    0 -0.40245446006E+01  0.20740459071E+01  0.96828717281E+01  0.10689089324E+02  0.00000000000E+00 0. -1.
         -5    1    5    5    0  502  0.56182286721E+02  0.17264917062E+02 -0.39514897300E+02  0.70979178715E+02  0.47000000000E+01 0.  1.
         13    1    6    6    0    0  0.23362285965E+00  0.94863401021E+02 -0.24581651156E+03  0.26348600872E+03  0.00000000000E+00 0. -1.
        -14    1    6    6    0    0 -0.27807777983E+02 -0.46791537858E+01 -0.88332258547E+02  0.92724079378E+02  0.00000000000E+00 0.  1.
</event>
<event>
12    1  0.8219652E-002  0.2325886E+03  0.7818608E-02  0.1125028E+00
         21   -1    0    0  503  502  0.00000000000E+00  0.00000000000E+00  0.14598893798E+03  0.14598893798E+03  0.00000000000E+00 0. -1.
         21   -1    0    0  501  503 -0.00000000000E+00 -0.00000000000E+00 -0.43350185889E+03  0.43350185889E+03  0.00000000000E+00 0. -1.
          6    2    1    2  501    0 -0.81653359398E+02 -0.13264917782E+03 -0.25543547778E+03  0.34470060765E+03  0.17119623281E+03 0.  0.
         24    2    3    3    0    0 -0.11233284064E+03 -0.12676662989E+03 -0.16558149038E+03  0.24945532434E+03  0.78245021230E+02 0.  0.
         -6    2    1    2    0  502  0.81653359398E+02  0.13264917782E+03 -0.32077443129E+02  0.23479018922E+03  0.17272635907E+03 0.  0.
        -24    2    5    5    0    0  0.74524353467E+02  0.59443934720E+02  0.42076950179E+02  0.13023974977E+03  0.78131056877E+02 0.  0.
          5    1    3    3  501    0  0.30679481239E+02 -0.58825479226E+01 -0.89853987408E+02  0.95245283308E+02  0.47000000000E+01 0. -1.
        -11    1    4    4    0    0 -0.11099912942E+01 -0.53080807409E+02 -0.50173239840E+02  0.73049012259E+02  0.00000000000E+00 0.  1.
         12    1    4    4    0    0 -0.11122284934E+03 -0.73685822485E+02 -0.11540825054E+03  0.17640631208E+03  0.00000000000E+00 0. -1.
         -5    1    5    5    0  502  0.71290059316E+01  0.73205243097E+02 -0.74154393308E+02  0.10455043945E+03  0.47000000000E+01 0.  1.
         11    1    6    6    0    0 -0.20198209155E+00  0.35421615753E+01  0.36584420311E+02  0.36756054125E+02  0.00000000000E+00 0. -1.
        -12    1    6    6    0    0  0.74726335558E+02  0.55901773144E+02  0.54925298681E+01  0.93483695643E+02  0.00000000000E+00 0.  1.
</event>
<event>
12    1  0.8219652E-002  0.1752852E+03  0.7818608E-02  0.1172522E+00
         21   -1    0    0  503  502  0.00000000000E+00  0.00000000000E+00  0.37174036753E+02  0.37174036753E+02  0.00000000000E+00 0.  1.
         21   -1    0    0  501  503 -0.00000000000E+00 -0.00000000000E+00 -0.88523219185E+03  0.88523219185E+03  0.00000000000E+00 0.  1.
          6    2    1    2  501    0  0.13446292869E+02  0.19408573704E+02 -0.30346735513E+03  0.35030132251E+03  0.17338132943E+03 0.  0.
         24    2    3    3    0    0 -0.17473580100E+02  0.13727796303E+02 -0.30595642028E+03  0.31841723210E+03  0.85360554076E+02 0.  0.
         -6    2    1    2    0  502 -0.13446292869E+02 -0.19408573704E+02 -0.54459079997E+03  0.57210490609E+03  0.17368761799E+03 0.  0.
        -24    2    5    5    0    0 -0.53162951937E+02  0.39183080484E+02 -0.33129117937E+03  0.34731786667E+03  0.80710852573E+02 0.  0.
          5    1    3    3  501    0  0.30919872969E+02  0.56807774005E+01  0.24890651464E+01  0.31884090415E+02  0.47000000000E+01 0. -1.
        -11    1    4    4    0    0  0.91852616501E+01  0.45320242602E+02 -0.14251223839E+03  0.14982667156E+03  0.00000000000E+00 0.  1.
         12    1    4    4    0    0 -0.26658841750E+02 -0.31592446299E+02 -0.16344418189E+03  0.16859056053E+03  0.00000000000E+00 0. -1.
         -5    1    5    5    0  502  0.39716659069E+02 -0.58591654188E+02 -0.21329962060E+03  0.22478703943E+03  0.47000000000E+01 0.  1.
         13    1    6    6    0    0  0.19805400498E+02  0.76230648331E+01 -0.38911554580E+02  0.44322388092E+02  0.00000000000E+00 0. -1.
        -14    1    6    6    0    0 -0.72968352435E+02  0.31560015651E+02 -0.29237962479E+03  0.30299547857E+03  0.00000000000E+00 0.  1.
</event>
<event>
12    1  0.8219652E-002  0.2693155E+03  0.7818608E-02  0.1103839E+00
         21   -1    0    0  503  502  0.00000000000E+00  0.00000000000E+00  0.81601868691E+03  0.81601868691E+03  0.00000000000E+00 0. -1.
         21   -1    0    0  501  503 -0.00000000000E+00 -0.00000000000E+00 -0.88467148984E+03  0.88467148984E+03  0.00000000000E+00 0. -1.
          6    2    1    2  501    0  0.18591354770E+03  0.28693068544E+02 -0.84329863835E+03  0.88525895086E+03  0.19272694994E+03 0.  0.
         24    2    3    3    0    0  0.16792926601E+03 -0.13031720018E+02 -0.42095478845E+03  0.46045215959E+03  0.80269503768E+02 0.  0.
         -6    2    1    2    0  502 -0.18591354770E+03 -0.28693068544E+02  0.77464583541E+03  0.81543122589E+03  0.17165306416E+03 0.  0.
        -24    2    5    5    0    0 -0.18873185931E+03  0.49793539184E+01  0.73536945920E+03  0.76340720602E+03  0.79861204633E+02 0.  0.
          5    1    3    3  501    0  0.17984281691E+02  0.41724788562E+02 -0.42234384989E+03  0.42480679127E+03  0.47000000000E+01 0. -1.
        -13    1    4    4    0    0  0.57277462660E+02 -0.16803813419E+02 -0.67717886573E+02  0.90270637730E+02  0.00000000000E+00 0.  1.
         14    1    4    4    0    0  0.11065180335E+03  0.37720934005E+01 -0.35323690188E+03  0.37018152186E+03  0.00000000000E+00 0. -1.
         -5    1    5    5    0  502  0.28183116013E+01 -0.33672422462E+02  0.39276376216E+02  0.52024019869E+02  0.47000000000E+01 0.  1.
         11    1    6    6    0    0 -0.15143058441E+03 -0.15034710631E+02  0.65638562004E+03  0.67379473626E+03  0.00000000000E+00 0. -1.
        -12    1    6    6    0    0 -0.37301274899E+02  0.20014064549E+02  0.78983839157E+02  0.89612469762E+02  0.00000000000E+00 0.  1.
</event>
<event>
12    1  0.8219652E-002  0.1929248E+03  0.7818608E-02  0.1156305E+00
         21   -1    0    0  501  502  0.00000000000E+00  0.00000000000E+00  0.36228160119E+03  0.36228160119E+03  0.00000000000E+00 0. -1.
         21   -1    0    0  502  503 -0.00000000000E+00 -0.00000000000E+00 -0.11060025510E+03  0.11060025510E+03  0.00000000000E+00 0. -1.
         -6    2    1    2    0  503  0.75667283031E+02 -0.46711697478E+02  0.57965360610E+02  0.19948496824E+03  0.16889863563E+03 0.  0.
        -24    2    3    3    0    0  0.27221040017E+02 -0.36177668665E+02 -0.31678485891E+02  0.96936865177E+02  0.79645593930E+02 0.  0.
          6    2    1    2  501    0 -0.75667283031E+02  0.46711697478E+02  0.19371598549E+03  0.27339688806E+03  0.17120880516E+03 0.  0.
         24    2    5    5    0    0 -0.83809786466E+02 -0.19114718599E+02  0.15988787175E+03  0.19879227228E+03  0.81023349803E+02 0.  0.
          5    1    5    5  501    0  0.81425034352E+01  0.65826416077E+02  0.33828113737E+02  0.74604615774E+02  0.47000000000E+01 0. -1.
        -11    1    6    6    0    0 -0.72208236356E+01 -0.94173893195E+01 -0.77903719688E+01  0.14195682829E+02  0.00000000000E+00 0.  1.
         12    1    6    6    0    0 -0.76588962830E+02 -0.96973292799E+01  0.16767824372E+03  0.18459658946E+03  0.00000000000E+00 0. -1.
         -5    1    3    3    0  503  0.48446243014E+02 -0.10534028813E+02  0.89643846502E+02  0.10254810306E+03  0.47000000000E+01 0.  1.
         11    1    4    4    0    0  0.45529794406E+02 -0.13776643230E+02  0.75810449710E+01  0.48168769137E+02  0.00000000000E+00 0. -1.
        -12    1    4    4    0    0 -0.18308754390E+02 -0.22401025435E+02 -0.39259530862E+02  0.48768096040E+02  0.00000000000E+00 0.  1.
</event>
<event>
12    1  0.8219652E-002  0.1741237E+03  0.7818608E-02  0.1175653E+00
         21   -1    0    0  501  502  0.00000000000E+00  0.00000000000E+00  0.46698591718E+03  0.46698591718E+03  0.00000000000E+00 0.  1.
         21   -1    0    0  502  503 -0.00000000000E+00 -0.00000000000E+00 -0.23945515391E+03  0.23945515391E+03  0.00000000000E+00 0.  1.
         -6    2    1    2    0  503 -0.57311952651E+01  0.31577980190E+02 -0.18958526032E+03  0.25741333302E+03  0.17114040334E+03 0.  0.
        -24    2    3    3    0    0  0.57406877223E+02  0.11245330510E+02 -0.82560230629E+02  0.13141222263E+03  0.83850900788E+02 0.  0.
          6    2    1    2  501    0  0.57311952651E+01 -0.31577980190E+02  0.41711602359E+03  0.44902773806E+03  0.16312607695E+03 0.  0.
         24    2    5    5    0    0 -0.76879697234E+01  0.39684302250E+02  0.26887815887E+03  0.28393703140E+03  0.81797461831E+02 0.  0.
          5    1    5    5  501    0  0.13419164988E+02 -0.71262282440E+02  0.14823786472E+03  0.16509070666E+03  0.47000000000E+01 0. -1.
        -11    1    6    6    0    0 -0.23035410637E+02  0.58189531822E+02  0.22876599580E+03  0.23717194731E+03  0.00000000000E+00 0.  1.
         12    1    6    6    0    0  0.15347440914E+02 -0.18505229572E+02  0.40112163071E+02  0.46765084095E+02  0.00000000000E+00 0. -1.
         -5    1    3    3    0  503 -0.63138072488E+02  0.20332649680E+02 -0.10702502970E+03  0.12600111040E+03  0.47000000000E+01 0.  1.
         13    1    4    4    0    0  0.41966060040E+02 -0.32699273660E+02 -0.58186574534E+02  0.78842058250E+02  0.00000000000E+00 0. -1.
        -14    1    4    4    0    0  0.15440817183E+02  0.43944604170E+02 -0.24373656095E+02  0.52570164375E+02  0.00000000000E+00 0.  1.
</event>
<event>
12    1  0.8219652E-002  0.1864411E+03  0.7818608E-02  0.1162008E+00
         21   -1    0    0  501  502  0.00000000000E+00  0.00000000000E+00  0.28466928912E+03  0.28466928912E+03  0.00000000000E+00 0. -1.
         21   -1    0    0  502  503 -0.00000000000E+00 -0.00000000000E+00 -0.12231593842E+03  0.12231593842E+03  0.00000000000E+00 0. -1.
         -6    2    1    2    0  503  0.74472150241E+02  0.49035617035E+01  0.10026711934E+03  0.21169267242E+03  0.17085124013E+03 0.  0.
        -24    2    3    3    0    0  0.11283830936E+03  0.10568059522E+02  0.48924962608E+02  0.14717790078E+03  0.80146831324E+02 0.  0.
          6    2    1    2  501    0 -0.74472150241E+02 -0.49035617035E+01  0.62086231358E+02  0.19529255512E+03  0.16945304920E+03 0.  0.
         24    2    5    5    0    0 -0.36904545447E+01  0.51920158594E+02  0.54392298200E+02  0.10407703977E+03  0.71862269519E+02 0.  0.
          5    1    5    5  501    0 -0.70781695696E+02 -0.56823720298E+02  0.76939331580E+01  0.91215515356E+02  0.47000000000E+01 0. -1.
        -13    1    6    6    0    0  0.22856539675E+02  0.44578441494E+00  0.37198883297E+02  0.43662077919E+02  0.00000000000E+00 0.  1.
         14    1    6    6    0    0 -0.26546994220E+02  0.51474374179E+02  0.17193414903E+02  0.60414961850E+02  0.00000000000E+00 0. -1.
         -5    1    3    3    0  503 -0.38366159120E+02 -0.56644978188E+01  0.51342156732E+02  0.64514771635E+02  0.47000000000E+01 0.  1.
         13    1    4    4    0    0  0.10684161420E+03 -0.14449087010E+02  0.54573210797E+02  0.12083932297E+03  0.00000000000E+00 0. -1.
        -14    1    4    4    0    0  0.59966951640E+01  0.25017146533E+02 -0.56482481884E+01  0.26338577811E+02  0.00000000000E+00 0.  1.
</event>
<event>
12    1  0.8219652E-002  0.1833396E+03  0.7818608E-02  0.1164755E+00
         21   -1    0    0  501  502  0.00000000000E+00  0.00000000000E+00  0.24897350188E+03  0.24897350188E+03  0.00000000000E+00 0. -1.
         21   -1    0    0  502  503 -0.00000000000E+00 -0.00000000000E+00 -0.33017283409E+03  0.33017283409E+03  0.00000000000E+00 0. -1.
         -6    2    1    2    0  503  0.60246837983E+02  0.20269469152E+02 -0.26346248726E+03  0.32062502158E+03  0.17131079768E+03 0.  0.
        -24    2    3    3    0    0  0.86300861549E+02 -0.21931105792E+02 -0.22979409548E+03  0.26049723038E+03  0.84407752088E+02 0.  0.
          6    2    1    2  501    0 -0.60246837983E+02 -0.20269469152E+02  0.18226315505E+03  0.25852131440E+03  0.17196766975E+03 0.  0.
         24    2    5    5    0    0 -0.50746002298E+02 -0.71767693492E+02  0.16392074018E+03  0.20283588387E+03  0.80911236232E+02 0.  0.
          5    1    5    5  501    0 -0.95008356846E+01  0.51498224340E+02  0.18342414876E+02  0.55685430522E+02  0.47000000000E+01 0. -1.
        -11    1    6    6    0    0 -0.39388918072E+02 -0.36835357787E+02  0.25554801227E+02  0.59677284757E+02  0.00000000000E+00 0.  1.
         12    1    6    6    0    0 -0.11357084226E+02 -0.34932335705E+02  0.13836593895E+03  0.14315859912E+03  0.00000000000E+00 0. -1.
         -5    1    3    3    0  503 -0.26054023567E+02  0.42200574944E+02 -0.33668391780E+02  0.60127791201E+02  0.47000000000E+01 0.  1.
         11    1    4    4    0    0  0.35655655383E+02  0.29233585796E+02 -0.12607653813E+03  0.13424314421E+03  0.00000000000E+00 0. -1.
        -12    1    4    4    0    0  0.50645206166E+02 -0.51164691588E+02 -0.10371755734E+03  0.12625408617E+03  0.00000000000E+00 0.  1.
</event>
<event>
12    1  0.8219652E-002  0.1955533E+03  0.7818608E-02  0.1153653E+00
         21   -1    0    0  503  502  0.00000000000E+00  0.00000000000E+00  0.11840642309E+04  0.11840642309E+04  0.00000000000E+00 0.  1.
         21   -1    0    0  501  503 -0.00000000000E+00 -0.00000000000E+00 -0.37498424390E+02  0.37498424390E+02  0.00000000000E+00 0.  1.
          6    2    1    2  501    0 -0.16951856258E+02  0.91086954123E+02  0.34339729748E+03  0.39493048974E+03  0.17165135935E+03 0.  0.
         24    2    3    3    0    0 -0.36386389781E+02 -0.13352663220E+02  0.17781460870E+03  0.19814367212E+03  0.78362087506E+02 0.  0.
         -6    2    1    2    0  502  0.16951856258E+02 -0.91086954123E+02  0.80316850904E+03  0.82663216556E+03  0.17221174347E+03 0.  0.
        -24    2    5    5    0    0  0.64004918350E+02 -0.77730653051E+02  0.71514506434E+03  0.72582245251E+03  0.72436769040E+02 0.  0.
          5    1    3    3  501    0  0.19434533523E+02  0.10443961734E+03  0.16558268878E+03  0.19678681762E+03  0.47000000000E+01 0. -1.
        -13    1    4    4    0    0 -0.42353835302E+02  0.86284124088E+01  0.41438372016E+02  0.59878506501E+02  0.00000000000E+00 0.  1.
         14    1    4    4    0    0  0.59674455208E+01 -0.21981075629E+02  0.13637623669E+03  0.13826516562E+03  0.00000000000E+00 0. -1.
         -5    1    5    5    0  502 -0.47053062092E+02 -0.13356301072E+02  0.88023444692E+02  0.10080971305E+03  0.47000000000E+01 0.  1.
         13    1    6    6    0    0 -0.13079388593E+02 -0.18720497696E+02  0.76325869306E+02  0.79669101697E+02  0.00000000000E+00 0. -1.
        -14    1    6    6    0    0  0.77084306943E+02 -0.59010155355E+02  0.63881919504E+03  0.64615335081E+03  0.00000000000E+00 0.  1.
</event>
<event>
12    1  0.8219652E-002  0.1803350E+03  0.7818608E-02  0.1167688E+00
         21   -1    0    0  503  502  0.00000000000E+00  0.00000000000E+00  0.74556202688E+02  0.74556202688E+02  0.00000000000E+00 0.  1.
         21   -1    0    0  501  503 -0.00000000000E+00 -0.00000000000E+00 -0.11681924364E+04  0.11681924364E+04  0.00000000000E+00 0.  1.
          6    2    1    2  501    0  0.43559385857E+02 -0.15160717048E+02 -0.10389019868E+04  0.10542902614E+04  0.17344552354E+03 0.  0.
         24    2    3    3    0    0  0.19283772269E+02  0.59325408953E+02 -0.57923030477E+03  0.58796673245E+03  0.79408843838E+02 0.  0.
         -6    2    1    2    0  502 -0.43559385857E+02  0.15160717048E+02 -0.54734246898E+02  0.18845837769E+03  0.17433718737E+03 0.  0.
        -24    2    5    5    0    0 -0.92268253278E+02 -0.20272080212E+02 -0.51927797813E+02  0.12797695043E+03  0.68972573217E+02 0.  0.
          5    1    3    3  501    0  0.24275613588E+02 -0.74486126000E+02 -0.45967168208E+03  0.46632352898E+03  0.47000000000E+01 0. -1.
        -13    1    4    4    0    0 -0.15284709125E+02  0.25565517945E+02 -0.65330495228E+02  0.71800359662E+02  0.00000000000E+00 0.  1.
         14    1    4    4    0    0  0.34568481393E+02  0.33759891008E+02 -0.51389980954E+03  0.51616637278E+03  0.00000000000E+00 0. -1.
         -5    1    5    5    0  502  0.48708867421E+02  0.35432797260E+02 -0.28064490852E+01  0.60481427261E+02  0.47000000000E+01 0.  1.
         13    1    6    6    0    0 -0.86373286360E+02 -0.10597536276E+01 -0.61181925953E+02  0.10585223539E+03  0.00000000000E+00 0. -1.
        -14    1    6    6    0    0 -0.58949669179E+01 -0.19212326585E+02  0.92541281400E+01  0.22124715035E+02  0.00000000000E+00 0.  1.
</event>
<event>
12    1  0.8219652E-002  0.2447560E+03  0.7818608E-02  0.1116911E+00
         21   -1    0    0  501  502  0.00000000000E+00  0.00000000000E+00  0.74109424454E+03  0.74109424454E+03  0.00000000000E+00 0. -1.
         21   -1    0    0  502  503 -0.00000000000E+00 -0.00000000000E+00 -0.85455275890E+02  0.85455275890E+02  0.00000000000E+00 0. -1.
         -6    2    1    2    0  503 -0.96476309893E+02  0.14466583510E+03  0.22569986194E+03  0.33182422876E+03  0.17009117818E+03 0.  0.
        -24    2    3    3    0    0 -0.13015245891E+03  0.12879993402E+03  0.15966959943E+03  0.25587756723E+03  0.80311038245E+02 0.  0.
          6    2    1    2  501    0  0.96476309893E+02 -0.14466583510E+03  0.42993910671E+03  0.49472529168E+03  0.17224864740E+03 0.  0.
         24    2    5    5    0    0  0.11072644351E+03 -0.45122686960E+02  0.26325448358E+03  0.30000046471E+03  0.80005959342E+02 0.  0.
          5    1    5    5  501    0 -0.14250133617E+02 -0.99543148136E+02  0.16668462313E+03  0.19472482696E+03  0.47000000000E+01 0. -1.
        -11    1    6    6    0    0  0.12063773809E+03 -0.39631480579E+02  0.25790532527E+03  0.28747047659E+03  0.00000000000E+00 0.  1.
         12    1    6    6    0    0 -0.99112945809E+01 -0.54912063809E+01  0.53491583076E+01  0.12529988124E+02  0.00000000000E+00 0. -1.
         -5    1    3    3    0  503  0.33676149019E+02  0.15865901077E+02  0.66030262514E+02  0.75946661530E+02  0.47000000000E+01 0.  1.
         11    1    4    4    0    0 -0.13546854126E+03  0.95396073764E+02  0.12602020084E+03  0.20816634594E+03  0.00000000000E+00 0. -1.
        -12    1    4    4    0    0  0.53160823510E+01  0.33403860255E+02  0.33649398585E+02  0.47711221286E+02  0.00000000000E+00 0.  1.
</event>
<event>
12    1  0.8219652E-002  0.2363841E+03  0.7818608E-02  0.1122339E+00
         21   -1    0    0  501  502  0.00000000000E+00  0.00000000000E+00  0.34983895210E+03  0.34983895210E+03  0.00000000000E+00 0. -1.
         21   -1    0    0  502  503 -0.00000000000E+00 -0.00000000000E+00 -0.16103278797E+03  0.16103278797E+03  0.00000000000E+00 0. -1.
         -6    2    1    2    0  503 -0.84443005621E+02 -0.13711627837E+03  0.12124066296E+03  0.26566287579E+03  0.17304903995E+03 0.  0.
        -24    2    3    3    0    0 -0.89373828035E+02 -0.12728819413E+03  0.34596827904E+02  0.17819774901E+03  0.79796815397E+02 0.  0.
          6    2    1    2  501    0  0.84443005621E+02  0.13711627837E+03  0.67565501168E+02  0.24520886428E+03  0.17213597875E+03 0.  0.
         24    2    5    5    0    0  0.85220126145E+02  0.15747682996E+03  0.89190742308E+02  0.21512735780E+03  0.79141453656E+02 0.  0.
          5    1    5    5  501    0 -0.77712052367E+00 -0.20360551594E+02 -0.21625241139E+02  0.30081506476E+02  0.47000000000E+01 0. -1.
        -11    1    6    6    0    0  0.80797760180E+02  0.85105462469E+02  0.28969724532E+02  0.12087374707E+03  0.00000000000E+00 0.  1.
         12    1    6    6    0    0  0.44223659645E+01  0.72371367490E+02  0.60221017776E+02  0.94253610727E+02  0.00000000000E+00 0. -1.
         -5    1    3    3    0  503  0.49308224142E+01 -0.98280842369E+01  0.86643835061E+02  0.87465126785E+02  0.47000000000E+01 0.  1.
         13    1    4    4    0    0 -0.15477416594E+02 -0.65475746038E+01 -0.20311674717E+02  0.26362573612E+02  0.00000000000E+00 0. -1.
        -14    1    4    4    0    0 -0.73896411441E+02 -0.12074061952E+03  0.54908502620E+02  0.15183517539E+03  0.00000000000E+00 0.  1.
</event>
<event>
12    1  0.8219652E-002  0.1933248E+03  0.7818608E-02  0.1155704E+00
         21   -1    0    0  501  502  0.00000000000E+00  0.00000000000E+00  0.32573064935E+02  0.32573064935E+02  0.00000000000E+00 0. -1.
         21   -1    0    0  502  503 -0.00000000000E+00 -0.00000000000E+00 -0.13928427877E+04  0.13928427877E+04  0.00000000000E+00 0.  1.
         -6    2    1    2    0  503  0.41649559485E+01 -0.79308126322E+02 -0.98404388069E+03  0.10028543364E+04  0.17625928371E+03 0.  0.
        -24    2    3    3    0    0  0.32619821005E+02 -0.20349475972E+02 -0.83583178216E+03  0.84075955562E+03  0.82363270940E+02 0.  0.
          6    2    1    2  501    0 -0.41649559485E+01  0.79308126322E+02 -0.37622584209E+03  0.42256151628E+03  0.17522906444E+03 0.  0.
         24    2    5    5    0    0  0.57238046001E+02  0.14482314557E+02 -0.24797770823E+03  0.26622089981E+03  0.76776899989E+02 0.  0.
          5    1    5    5  501    0 -0.61403001950E+02  0.64825811764E+02 -0.12824813386E+03  0.15634061647E+03  0.47000000000E+01 0. -1.
        -11    1    6    6    0    0 -0.60156290853E+01 -0.18141408855E+02 -0.10250213482E+03  0.10426881677E+03  0.00000000000E+00 0.  1.
         12    1    6    6    0    0  0.63253675087E+02  0.32623723412E+02 -0.14547557341E+03  0.16195208304E+03  0.00000000000E+00 0. -1.
         -5    1    3    3    0  503 -0.28454865057E+02 -0.58958650349E+02 -0.14821209853E+03  0.16209478075E+03  0.47000000000E+01 0.  1.
         13    1    4    4    0    0 -0.24078352070E+02 -0.59879263556E+01 -0.43225555997E+03  0.43296707892E+03  0.00000000000E+00 0. -1.
        -14    1    4    4    0    0  0.56698173075E+02 -0.14361549617E+02 -0.40357622219E+03  0.40779247670E+03  0.00000000000E+00 0.  1.
</event>
<event>
12    1  0.8219652E-002  0.2330342E+03  0.7818608E-02  0.1124584E+00
         21   -1    0    0  503  502  0.00000000000E+00  0.00000000000E+00  0.95177840123E+02  0.95177840123E+02  0.00000000000E+00 0.  1.
         21   -1    0    0  501  503 -0.00000000000E+00 -0.00000000000E+00 -0.57212247413E+03  0.57212247413E+03  0.00000000000E+00 0. -1.
          6    2    1    2  501    0 -0.15292247998E+03  0.25059866107E+02 -0.26044459901E+03  0.34948008842E+03  0.17404499785E+03 0.  0.
         24    2    3    3    0    0 -0.11716733911E+03  0.72754772891E+02 -0.23609250328E+03  0.28491733756E+03  0.80104786417E+02 0.  0.
         -6    2    1    2    0  502  0.15292247998E+03 -0.25059866107E+02 -0.21650003499E+03  0.31782022583E+03  0.17356309810E+03 0.  0.
        -24    2    5    5    0    0  0.13995645307E+02  0.24424596800E+02 -0.76913208033E+02  0.11470461904E+03  0.80306095921E+02 0.  0.
          5    1    3    3  501    0 -0.35755140871E+02 -0.47694906784E+02 -0.24352095730E+02  0.64562750857E+02  0.47000000000E+01 0. -1.
        -11    1    4    4    0    0 -0.60132725631E+02  0.70107614805E+02 -0.94006308935E+02  0.13178849899E+03  0.00000000000E+00 0.  1.
         12    1    4    4    0    0 -0.57034613477E+02  0.26471580863E+01 -0.14208619435E+03  0.15312883858E+03  0.00000000000E+00 0. -1.
         -5    1    5    5    0  502  0.13892683467E+03 -0.49484462907E+02 -0.13958682696E+03  0.20311560679E+03  0.47000000000E+01 0.  1.
         13    1    6    6    0    0  0.21713831754E+02 -0.16027014017E+02 -0.67166272196E+02  0.72385521953E+02  0.00000000000E+00 0. -1.
        -14    1    6    6    0    0 -0.77181864478E+01  0.40451610817E+02 -0.97469358371E+01  0.42319097084E+02  0.00000000000E+00 0.  1.
</event>
<event>
12    1  0.8219652E-002  0.2294871E+03  0.7818608E-02  0.1127081E+00
         21   -1    0    0  503  502  0.00000000000E+00  0.00000000000E+00  0.29107498991E+03  0.29107498991E+03  0.00000000000E+00 0. -1.
         21   -1    0    0  501  503 -0.00000000000E+00 -0.00000000000E+00 -0.39829537706E+03  0.39829537706E+03  0.00000000000E+00 0.  1.
          6    2    1    2  501    0  0.13657078146E+03 -0.69551532052E+02 -0.30842640350E+03  0.38416849578E+03  0.17020456169E+03 0.  0.
         24    2    3    3    0    0  0.20382313183E+02 -0.18672458679E+02 -0.52263693214E+02  0.98284140828E+02  0.78512287613E+02 0.  0.
         -6    2    1    2    0  502 -0.13657078146E+03  0.69551532052E+02  0.20120601635E+03  0.30520187119E+03  0.17080786633E+03 0.  0.
        -24    2    5    5    0    0 -0.48578116129E+02  0.19506591691E+02  0.17524027952E+03  0.20059061607E+03  0.82383852813E+02 0.  0.
          5    1    3    3  501    0  0.11618846828E+03 -0.50879073373E+02 -0.25616271028E+03  0.28588435496E+03  0.47000000000E+01 0. -1.
        -11    1    4    4    0    0  0.35323575067E+02 -0.14958179438E+02 -0.66851003418E+02  0.77075020244E+02  0.00000000000E+00 0.  1.
         12    1    4    4    0    0 -0.14941261884E+02 -0.37142792408E+01  0.14587310204E+02  0.21209120584E+02  0.00000000000E+00 0. -1.
         -5    1    5    5    0  502 -0.87992665335E+02  0.50044940361E+02  0.25965736836E+02  0.10461125512E+03  0.47000000000E+01 0.  1.
         13    1    6    6    0    0 -0.38300208640E+02 -0.20268963623E+02  0.39026212011E+02  0.58316224947E+02  0.00000000000E+00 0. -1.
        -14    1    6    6    0    0 -0.10277907489E+02  0.39775555314E+02  0.13621406751E+03  0.14227439112E+03  0.00000000000E+00 0.  1.
</event>
<event>
12    1  0.8219652E-002  0.2303574E+03  0.7818608E-02  0.1126610E+00
         21   -1    0    0  503  502  0.00000000000E+00  0.00000000000E+00  0.24089512568E+04  0.24089512568E+04  0.00000000000E+00 0. -1.
         21   -1    0    0  501  503 -0.00000000000E+00 -0.00000000000E+00 -0.58084310891E+02  0.58084310891E+02  0.00000000000E+00 0. -1.
          6    2    1    2  501    0  0.47240960070E+02 -0.14419518614E+03  0.20316488430E+03  0.30714899960E+03  0.17332217898E+03 0.  0.
         24    2    3    3    0    0 -0.33113026692E+02 -0.70162664859E+02  0.80398339113E+02  0.14273704135E+03  0.88829600726E+02 0.  0.
         -6    2    1    2    0  502 -0.47240960070E+02  0.14419518614E+03  0.21477020616E+04  0.21598865681E+04  0.17164463753E+03 0.  0.
        -24    2    5    5    0    0  0.34255074762E+02  0.10137846931E+03  0.14360762212E+04  0.14423154555E+04  0.80671902268E+02 0.  0.
          5    1    3    3  501    0  0.80353986762E+02 -0.74032521282E+02  0.12276654519E+03  0.16441195824E+03  0.47000000000E+01 0. -1.
        -13    1    4    4    0    0  0.17089303369E+01 -0.68571038877E+02  0.83126007299E+02  0.10777217129E+03  0.00000000000E+00 0.  1.
         14    1    4    4    0    0 -0.34821957029E+02 -0.15916259816E+01 -0.27276681862E+01  0.34964870060E+02  0.00000000000E+00 0. -1.
         -5    1    5    5    0  502 -0.81496034832E+02  0.42816716830E+02  0.71162584041E+03  0.71757111262E+03  0.47000000000E+01 0.  1.
         13    1    6    6    0    0 -0.28073550137E+01  0.84048928589E+01  0.62824289572E+03  0.62830538712E+03  0.00000000000E+00 0. -1.
        -14    1    6    6    0    0  0.37062429775E+02  0.92973576452E+02  0.80783332552E+03  0.81401006839E+03  0.00000000000E+00 0.  1.
</event>
<event>
12    1  0.8219652E-002  0.1925770E+03  0.7818608E-02  0.1157160E+00
         21   -1    0    0  503  502  0.00000000000E+00  0.00000000000E+00  0.11920510379E+03  0.11920510379E+03  0.00000000000E+00 0.  1.
         21   -1    0    0  501  503 -0.00000000000E+00 -0.00000000000E+00 -0.33906923240E+03  0.33906923240E+03  0.00000000000E+00 0.  1.
          6    2    1    2  501    0 -0.54861795142E+02  0.52092158796E+02 -0.18484646503E+03  0.26693468329E+03  0.17709460730E+03 0.  0.
         24    2    3    3    0    0  0.14906235865E+02  0.79954160432E+02 -0.83599590468E+02  0.14077253011E+03  0.78823537539E+02 0.  0.
         -6    2    1    2    0  502  0.54861795142E+02 -0.52092158796E+02 -0.35017663582E+02  0.19133965291E+03  0.17222432011E+03 0.  0.
        -24    2    5    5    0    0  0.69797565298E+02 -0.71465479243E+01 -0.74391360328E+02  0.12956940795E+03  0.79569992563E+02 0.  0.
          5    1    3    3  501    0 -0.69768031007E+02 -0.27862001636E+02 -0.10124687456E+03  0.12616215318E+03  0.47000000000E+01 0. -1.
        -11    1    4    4    0    0  0.27607538852E+02  0.32589093874E+02 -0.81113239515E+02  0.91671057950E+02  0.00000000000E+00 0.  1.
         12    1    4    4    0    0 -0.12701302987E+02  0.47365066557E+02 -0.24863509526E+01  0.49101472163E+02  0.00000000000E+00 0. -1.
         -5    1    5    5    0  502 -0.14935770156E+02 -0.44945610871E+02  0.39373696746E+02  0.61770244958E+02  0.47000000000E+01 0.  1.
         13    1    6    6    0    0  0.40654227905E+02 -0.43009951570E+02 -0.49040884810E+02  0.76861112167E+02  0.00000000000E+00 0. -1.
        -14    1    6    6    0    0  0.29143337394E+02  0.35863403645E+02 -0.25350475518E+02  0.52708295784E+02  0.00000000000E+00 0.  1.
</event>
<event>
12    1  0.8219652E-002  0.2848812E+03  0.7818608E-02  0.1093084E+00
         21   -1    0    0  501  502  0.00000000000E+00  0.00000000000E+00  0.39345278912E+03  0.39345278912E+03  0.00000000000E+00 0.  1.
         21   -1    0    0  502  503 -0.00000000000E+00 -0.00000000000E+00 -0.21541045119E+03  0.21541045119E+03  0.00000000000E+00 0.  1.
         -6    2    1    2    0  503  0.12155166610E+03  0.19161583785E+03  0.15235555690E+03  0.32306267868E+03  0.17223774787E+03 0.  0.
        -24    2    3    3    0    0  0.88103729908E+02  0.12759586981E+03  0.18719087830E+02  0.17108203317E+03  0.69826102624E+02 0.  0.
          6    2    1    2  501    0 -0.12155166610E+03 -0.19161583785E+03  0.25686781021E+02  0.28580056163E+03  0.17184502745E+03 0.  0.
         24    2    5    5    0    0 -0.11009685289E+03 -0.96747581017E+02 -0.35435539580E+02  0.17226983021E+03  0.83305494931E+02 0.  0.
          5    1    5    5  501    0 -0.11454813212E+02 -0.94868256837E+02  0.61122320601E+02  0.11353073142E+03  0.47000000000E+01 0. -1.
        -13    1    6    6    0    0 -0.77390658058E+02 -0.10876893594E+03 -0.31863924135E+02  0.13724177586E+03  0.00000000000E+00 0.  1.
         14    1    6    6    0    0 -0.32706194830E+02  0.12021354922E+02 -0.35716154457E+01  0.35028054347E+02  0.00000000000E+00 0. -1.
         -5    1    3    3    0  503  0.33447936192E+02  0.64019968039E+02  0.13363646907E+03  0.15198064551E+03  0.47000000000E+01 0.  1.
         11    1    4    4    0    0 -0.35265891705E+01  0.35834816491E+02  0.20417130996E+02  0.41393600256E+02  0.00000000000E+00 0. -1.
        -12    1    4    4    0    0  0.91630319078E+02  0.91761053324E+02 -0.16980431656E+01  0.12968843292E+03  0.00000000000E+00 0.  1.
</event>
<event>
12    1  0.8219652E-002  0.1760423E+03  0.7818608E-02  0.1171763E+00
         21   -1    0    0  503  502  0.00000000000E+00  0.00000000000E+00  0.26253886687E+02  0.26253886687E+02  0.00000000000E+00 0. -1.
         21   -1    0    0  501  503 -0.00000000000E+00 -0.00000000000E+00 -0.11831226740E+04  0.11831226740E+04  0.00000000000E+00 0. -1.
          6    2    1    2  501    0 -0.23348237724E+02  0.27687013295E+02 -0.61598233389E+03  0.64056285583E+03  0.17197332844E+03 0.  0.
         24    2    3    3    0    0 -0.71297196833E+02  0.30785882133E+01 -0.51562154286E+03  0.52654945468E+03  0.79347241822E+02 0.  0.
         -6    2    1    2    0  502  0.23348237724E+02 -0.27687013295E+02 -0.54088645339E+03  0.56881370483E+03  0.17227641866E+03 0.  0.
        -24    2    5    5    0    0 -0.43707100222E+02 -0.51178687635E+02 -0.34246882233E+03  0.35800591695E+03  0.79710561597E+02 0.  0.
          5    1    3    3  501    0  0.47948959110E+02  0.24608425081E+02 -0.10036079104E+03  0.11401340115E+03  0.47000000000E+01 0. -1.
        -13    1    4    4    0    0 -0.46500795848E+02  0.38627253347E+01 -0.48453701832E+03  0.48677856032E+03  0.00000000000E+00 0.  1.
         14    1    4    4    0    0 -0.24796400985E+02 -0.78413712147E+00 -0.31084524537E+02  0.39770894364E+02  0.00000000000E+00 0. -1.
         -5    1    5    5    0  502  0.67055337946E+02  0.23491674340E+02 -0.19841763106E+03  0.21080778787E+03  0.47000000000E+01 0.  1.
         11    1    6    6    0    0 -0.26488497917E+02 -0.43678516287E+02 -0.33314325619E+03  0.33703691556E+03  0.00000000000E+00 0. -1.
        -12    1    6    6    0    0 -0.17218602305E+02 -0.75001713478E+01 -0.93255661377E+01  0.20969001392E+02  0.00000000000E+00 0.  1.
</event>
<event>
12    1  0.8219652E-002  0.1907971E+03  0.7818608E-02  0.1158023E+00
         21   -1    0    0  503  502  0.00000000000E+00  0.00000000000E+00  0.11059158078E+04  0.11059158078E+04  0.00000000000E+00 0. -1.
         21   -1    0    0  501  503 -0.00000000000E+00 -0.00000000000E+00 -0.57203572192E+02  0.57203572192E+02  0.00000000000E+00 0. -1.
          6    2    1    2  501    0  0.74944980983E+02  0.27241093995E+02  0.14473876938E+03  0.23948453404E+03  0.17333408004E+03 0.  0.
         24    2    3    3    0    0  0.48028973168E+02  0.65947604366E+02  0.15698173986E+03  0.19054941630E+03  0.70780962254E+02 0.  0.
         -6    2    1    2    0  502 -0.74944980983E+02 -0.27241093995E+02  0.90397346626E+03  0.92363484599E+03  0.17197230488E+03 0.  0.
        -24    2    5    5    0    0 -0.46377735801E+02  0.34110475819E+02  0.73181868547E+03  0.73859576588E+03  0.81551812035E+02 0.  0.
          5    1    3    3  501    0  0.26916007815E+02 -0.38706510370E+02 -0.12242970479E+02  0.48935117737E+02  0.47000000000E+01 0. -1.
        -11    1    4    4    0    0  0.41308194366E+02  0.23849908920E+01  0.83280801204E+02  0.92993262942E+02  0.00000000000E+00 0.  1.
         12    1    4    4    0    0  0.67207788017E+01  0.63562613474E+02  0.73700938658E+02  0.97556153359E+02  0.00000000000E+00 0. -1.
         -5    1    5    5    0  502 -0.28567245182E+02 -0.61351569814E+02  0.17215478080E+03  0.18503908011E+03  0.47000000000E+01 0.  1.
         13    1    6    6    0    0  0.23381500653E+02  0.34899612365E+01  0.17481324384E+03  0.17640449151E+03  0.00000000000E+00 0. -1.
        -14    1    6    6    0    0 -0.69759236455E+02  0.30620514583E+02  0.55700544163E+03  0.56219127438E+03  0.00000000000E+00 0.  1.
</event>
<event>
12    1  0.8219652E-002  0.2556268E+03  0.7818608E-02  0.1110057E+00
         21   -1    0    0  501  502  0.00000000000E+00  0.00000000000E+00  0.21173861198E+04  0.21173861198E+04  0.00000000000E+00 0. -1.
         21   -1    0    0  502  503 -0.00000000000E+00 -0.00000000000E+00 -0.31427153823E+02  0.31427153823E+02  0.00000000000E+00 0. -1.
         -6    2    1    2    0  503  0.10767273995E+03  0.15196569055E+03  0.87843850364E+03  0.91487664181E+03  0.17509447458E+03 0.  0.
        -24    2    3    3    0    0  0.34870308886E+02  0.13950688647E+03  0.42473604837E+03  0.45517736654E+03  0.78151227845E+02 0.  0.
          6    2    1    2  501    0 -0.10767273995E+03 -0.15196569055E+03  0.12075204624E+04  0.12339366318E+04  0.17264690650E+03 0.  0.
         24    2    5    5    0    0 -0.93898556933E+02 -0.18090098705E+03  0.10964880396E+04  0.11182764900E+04  0.81940106325E+02 0.  0.
          5    1    5    5  501    0 -0.13774183017E+02  0.28935296498E+02  0.11103242279E+03  0.11566014185E+03  0.47000000000E+01 0. -1.
        -11    1    6    6    0    0  0.13139874325E+01 -0.67746465118E+02  0.25266935341E+03  0.26159723288E+03  0.00000000000E+00 0.  1.
         12    1    6    6    0    0 -0.95212544365E+02 -0.11315452193E+03  0.84381868618E+03  0.85667925712E+03  0.00000000000E+00 0. -1.
         -5    1    3    3    0  503  0.72802431064E+02  0.12458804083E+02  0.45370245527E+03  0.45969927527E+03  0.47000000000E+01 0.  1.
         13    1    4    4    0    0 -0.12688456747E+02  0.10116956779E+03  0.24612784981E+03  0.26641170551E+03  0.00000000000E+00 0. -1.
        -14    1    4    4    0    0  0.47558765632E+02  0.38337318681E+02  0.17860819855E+03  0.18876566103E+03  0.00000000000E+00 0.  1.
</event>
<event>
12    1  0.8219652E-002  0.2000242E+03  0.7818608E-02  0.1150195E+00
         21   -1    0    0  501  502  0.00000000000E+00  0.00000000000E+00  0.11809235621E+02  0.11809235621E+02  0.00000000000E+00 0.  1.
         21   -1    0    0  502  503 -0.00000000000E+00 -0.00000000000E+00 -0.33616685554E+04  0.33616685554E+04  0.00000000000E+00 0. -1.
         -6    2    1    2    0  503  0.31456461822E+02 -0.95129826419E+02 -0.17645732630E+04  0.17756224863E+04  0.17052044059E+03 0.  0.
        -24    2    3    3    0    0 -0.18993745603E+02  0.35622635689E+01 -0.89926601804E+03  0.90323262497E+03  0.82318597597E+02 0.  0.
          6    2    1    2  501    0 -0.31456461822E+02  0.95129826419E+02 -0.15852860569E+04  0.15978553048E+04  0.17311990063E+03 0.  0.
         24    2    5    5    0    0  0.23352704850E+02  0.22864610519E+02 -0.11470162534E+04  0.11502742319E+04  0.80102332686E+02 0.  0.
          5    1    5    5  501    0 -0.54809166672E+02  0.72265215900E+02 -0.43826980348E+03  0.44758107290E+03  0.47000000000E+01 0. -1.
        -11    1    6    6    0    0 -0.19077527626E+02 -0.18630527445E+02 -0.30094746418E+03  0.30212650464E+03  0.00000000000E+00 0.  1.
         12    1    6    6    0    0  0.42430232476E+02  0.41495137964E+02 -0.84606878922E+03  0.84814772723E+03  0.00000000000E+00 0. -1.
         -5    1    3    3    0  503  0.50450207426E+02 -0.98692089988E+02 -0.86530724491E+03  0.87238986133E+03  0.47000000000E+01 0.  1.
         13    1    4    4    0    0 -0.41245460945E+02 -0.13035561719E+02 -0.75981946931E+03  0.76104976175E+03  0.00000000000E+00 0. -1.
        -14    1    4    4    0    0  0.22251715341E+02  0.16597825288E+02 -0.13944654873E+03  0.14218286322E+03  0.00000000000E+00 0.  1.
</event>
<event>
12    1  0.8219652E-002  0.1906083E+03  0.7818608E-02  0.1161984E+00
         21   -1    0    0  503  502  0.00000000000E+00  0.00000000000E+00  0.35204866455E+03  0.35204866455E+03  0.00000000000E+00 0. -1.
         21   -1    0    0  501  503 -0.00000000000E+00 -0.00000000000E+00 -0.21918722690E+03  0.21918722690E+03  0.00000000000E+00 0. -1.
          6    2    1    2  501    0 -0.62354978691E+02  0.54189453738E+02 -0.14789884905E+03  0.24125833667E+03  0.17177565369E+03 0.  0.
         24    2    3    3    0    0 -0.64152345019E+01 -0.30413999826E+02 -0.94458070645E+02  0.12651947607E+03  0.78222017981E+02 0.  0.
         -6    2    1    2    0  502  0.62354978691E+02 -0.54189453738E+02  0.28076028670E+03  0.32997755478E+03  0.15242771338E+03 0.  0.
        -24    2    5    5    0    0  0.93228192718E+02 -0.45250722247E+02  0.16708357773E+03  0.21175090623E+03  0.78628242768E+02 0.  0.
          5    1    3    3  501    0 -0.55939744189E+02  0.84603453564E+02 -0.53440778404E+02  0.11473886060E+03  0.47000000000E+01 0. -1.
        -13    1    4    4    0    0 -0.15107080466E+02 -0.27027037639E+02  0.63579445954E+00  0.30969160117E+02  0.00000000000E+00 0.  1.
         14    1    4    4    0    0  0.86918459638E+01 -0.33869621876E+01 -0.95093865104E+02  0.95550315958E+02  0.00000000000E+00 0. -1.
         -5    1    5    5    0  502 -0.30873214027E+02 -0.89387314902E+01  0.11367670897E+03  0.11822664855E+03  0.47000000000E+01 0.  1.
         11    1    6    6    0    0  0.83261004525E+02 -0.68574955328E+01  0.78260103377E+02  0.11447298328E+03  0.00000000000E+00 0. -1.
        -12    1    6    6    0    0  0.99671881921E+01 -0.38393226715E+02  0.88823474354E+02  0.97277922955E+02  0.00000000000E+00 0.  1.
</event>
<event>
12    1  0.8219652E-002  0.2139689E+03  0.7818608E-02  0.1139568E+00
         21   -1    0    0  501  502  0.00000000000E+00  0.00000000000E+00  0.74892043281E+02  0.74892043281E+02  0.00000000000E+00 0.  1.
         21   -1    0    0  502  503 -0.00000000000E+00 -0.00000000000E+00 -0.94809412031E+03  0.94809412031E+03  0.00000000000E+00 0.  1.
         -6    2    1    2    0  503  0.85625940429E+02 -0.96019319125E+02 -0.75226618810E+03  0.78210427653E+03  0.17097125577E+03 0.  0.
        -24    2    3    3    0    0 -0.50702832186E+01 -0.24691058380E+02 -0.17167581075E+03  0.19014076243E+03  0.77753259763E+02 0.  0.
          6    2    1    2  501    0 -0.85625940429E+02  0.96019319125E+02 -0.12093588893E+03  0.24088188705E+03  0.16385079481E+03 0.  0.
         24    2    5    5    0    0 -0.10672503752E+03  0.48389680322E+02 -0.12450486575E+03  0.18845496662E+03  0.79259182768E+02 0.  0.
          5    1    5    5  501    0  0.21099097095E+02  0.47629638803E+02  0.35689768179E+01  0.52426920434E+02  0.47000000000E+01 0. -1.
        -11    1    6    6    0    0 -0.99096241792E+02  0.49576922955E+02 -0.65025598088E+02  0.12847670930E+03  0.00000000000E+00 0.  1.
         12    1    6    6    0    0 -0.76287957318E+01 -0.11872426333E+01 -0.59479267659E+02  0.59978257316E+02  0.00000000000E+00 0. -1.
         -5    1    3    3    0  503  0.90696223647E+02 -0.71328260745E+02 -0.58059037735E+03  0.59196351411E+03  0.47000000000E+01 0.  1.
         13    1    4    4    0    0  0.24537206863E+02 -0.27256701305E+02 -0.36520195184E+02  0.51756419341E+02  0.00000000000E+00 0. -1.
        -14    1    4    4    0    0 -0.29607490082E+02  0.25656429249E+01 -0.13515561556E+03  0.13838434308E+03  0.00000000000E+00 0.  1.
</event>
<event>
12    1  0.8219652E-002  0.2613672E+03  0.7818608E-02  0.1106749E+00
         21   -1    0    0  503  502  0.00000000000E+00  0.00000000000E+00  0.89928041105E+03  0.89928041105E+03  0.00000000000E+00 0.  1.
         21   -1    0    0  501  503 -0.00000000000E+00 -0.00000000000E+00 -0.94393227020E+02  0.94393227020E+02  0.00000000000E+00 0. -1.
          6    2    1    2  501    0  0.52866099840E+02 -0.18937232202E+03  0.17634018853E+03  0.31295039690E+03  0.16788504391E+03 0.  0.
         24    2    3    3    0    0  0.21106854853E+01 -0.18516235888E+03  0.16563979620E+03  0.26069693508E+03  0.78973386242E+02 0.  0.
         -6    2    1    2    0  502 -0.52866099840E+02  0.18937232202E+03  0.62854699550E+03  0.68072324117E+03  0.17220947901E+03 0.  0.
        -24    2    5    5    0    0  0.17480753197E+02  0.45232810590E+02  0.30927711666E+03  0.32339954476E+03  0.81137825775E+02 0.  0.
          5    1    3    3  501    0  0.50755414354E+02 -0.42099631335E+01  0.10700392331E+02  0.52253461817E+02  0.47000000000E+01 0. -1.
        -13    1    4    4    0    0 -0.36644215226E+01 -0.47060773317E+02  0.93597789889E+02  0.10482695570E+03  0.00000000000E+00 0.  1.
         14    1    4    4    0    0  0.57751070079E+01 -0.13810158557E+03  0.72042006310E+02  0.15586997938E+03  0.00000000000E+00 0. -1.
         -5    1    5    5    0  502 -0.70346853037E+02  0.14413951143E+03  0.31926987884E+03  0.35732369641E+03  0.47000000000E+01 0.  1.
         11    1    6    6    0    0  0.17440355496E+02  0.33687530088E+02  0.44938338789E+02  0.58808757650E+02  0.00000000000E+00 0. -1.
        -12    1    6    6    0    0  0.40397701111E-01  0.11545280502E+02  0.26433877787E+03  0.26459078711E+03  0.00000000000E+00 0.  1.
</event>
<event>
12    1  0.8219652E-002  0.1821354E+03  0.7818608E-02  0.1165941E+00
         21   -1    0    0  503  502  0.00000000000E+00  0.00000000000E+00  0.84638967018E+03  0.84638967018E+03  0.00000000000E+00 0. -1.
         21   -1    0    0  501  503 -0.00000000000E+00 -0.00000000000E+00 -0.40206213319E+02  0.40206213319E+02  0.00000000000E+00 0. -1.
          6    2    1    2  501    0 -0.38865883291E+02 -0.36145135030E+02  0.32793099753E+03  0.37511602183E+03  0.17423048820E+03 0.  0.
         24    2    3    3    0    0  0.35064014743E+02 -0.51082080976E+02  0.19292603426E+03  0.22039959644E+03  0.86698692537E+02 0.  0.
         -6    2    1    2    0  502  0.38865883291E+02  0.36145135030E+02  0.47825245933E+03  0.51147986167E+03  0.17340474725E+03 0.  0.
        -24    2    5    5    0    0  0.37589462853E+02  0.40636718102E+02  0.48915920470E+03  0.49871856619E+03  0.79869707275E+02 0.  0.
          5    1    3    3  501    0 -0.73929898034E+02  0.14936945946E+02  0.13500496327E+03  0.15471642539E+03  0.47000000000E+01 0. -1.
        -11    1    4    4    0    0  0.22808405058E+02  0.19246724562E+02  0.29044763781E+02  0.41644424006E+02  0.00000000000E+00 0.  1.
         12    1    4    4    0    0  0.12255609684E+02 -0.70328805538E+02  0.16388127048E+03  0.17875517243E+03  0.00000000000E+00 0. -1.
         -5    1    5    5    0  502  0.12764204388E+01 -0.44915830716E+01 -0.10906745376E+02  0.12761295480E+02  0.47000000000E+01 0.  1.
         11    1    6    6    0    0  0.47074950122E+02  0.38233377453E+02  0.19095419828E+03  0.20035305818E+03  0.00000000000E+00 0. -1.
        -12    1    6    6    0    0 -0.94854872698E+01  0.24033406491E+01  0.29820500642E+03  0.29836550801E+03  0.00000000000E+00 0.  1.
</event>
<event>
12    1  0.8219652E-002  0.2668696E+03  0.7818608E-02  0.1103817E+00
         21   -1    0    0  503  502  0.00000000000E+00  0.00000000000E+00  0.14234203657E+04  0.14234203657E+04  0.00000000000E+00 0.  1.
         21   -1    0    0  501  503 -0.00000000000E+00 -0.00000000000E+00 -0.60757386050E+02  0.60757386050E+02  0.00000000000E+00 0. -1.
          6    2    1    2  501    0  0.16997302198E+03  0.10315418993E+03  0.35111823263E+03  0.43802185754E+03  0.17043332801E+03 0.  0.
         24    2    3    3    0    0  0.81110855580E+02 -0.13379188497E+02  0.17073714563E+03  0.20556554024E+03  0.79674618658E+02 0.  0.
         -6    2    1    2    0  502 -0.16997302198E+03 -0.10315418993E+03  0.10115447470E+04  0.10461558942E+04  0.17801057459E+03 0.  0.
        -24    2    5    5    0    0 -0.47176567238E+02 -0.95206695819E+02  0.67417195883E+03  0.68701160542E+03  0.78658581749E+02 0.  0.
          5    1    3    3  501    0  0.88862166401E+02  0.11653337843E+03  0.18038108700E+03  0.23245631730E+03  0.47000000000E+01 0. -1.
        -13    1    4    4    0    0  0.44638081324E+02  0.79777870923E+01  0.15326253366E+03  0.15982993341E+03  0.00000000000E+00 0.  1.
         14    1    4    4    0    0  0.36472774256E+02 -0.21356975590E+02  0.17474611971E+02  0.45735606827E+02  0.00000000000E+00 0. -1.
         -5    1    5    5    0  502 -0.12279645474E+03 -0.79474941108E+01  0.33737278816E+03  0.35914428876E+03  0.47000000000E+01 0.  1.
         13    1    6    6    0    0 -0.29540955132E+01 -0.20936559514E+02  0.28014327035E+02  0.35097987462E+02  0.00000000000E+00 0. -1.
        -14    1    6    6    0    0 -0.44222471725E+02 -0.74270136304E+02  0.64615763180E+03  0.65191361796E+03  0.00000000000E+00 0.  1.
</event>
<event>
12    1  0.8219652E-002  0.1937407E+03  0.7818608E-02  0.1155194E+00
         21   -1    0    0  503  502  0.00000000000E+00  0.00000000000E+00  0.87867276027E+03  0.87867276027E+03  0.00000000000E+00 0.  1.
         21   -1    0    0  501  503 -0.00000000000E+00 -0.00000000000E+00 -0.87936409528E+02  0.87936409528E+02  0.00000000000E+00 0.  1.
          6    2    1    2  501    0  0.84040712835E+02  0.28574295716E+02  0.48695565504E+02  0.19976661793E+03  0.17220949959E+03 0.  0.
         24    2    3    3    0    0  0.10409458862E+03 -0.13848702966E+02 -0.25595647251E+00  0.13179448941E+03  0.79638256959E+02 0.  0.
         -6    2    1    2    0  502 -0.84040712835E+02 -0.28574295716E+02  0.74204078524E+03  0.76684255187E+03  0.17188263615E+03 0.  0.
        -24    2    5    5    0    0 -0.30584141138E+02 -0.64938388751E+02  0.61393475909E+03  0.62326958695E+03  0.79979407203E+02 0.  0.
          5    1    3    3  501    0 -0.20053875789E+02  0.42422998682E+02  0.48951521976E+02  0.67972128517E+02  0.47000000000E+01 0. -1.
        -11    1    4    4    0    0  0.12912558523E+02 -0.33242590606E+02 -0.12462070403E+02  0.37777072365E+02  0.00000000000E+00 0.  1.
         12    1    4    4    0    0  0.91182030101E+02  0.19393887640E+02  0.12206113930E+02  0.94017417048E+02  0.00000000000E+00 0. -1.
         -5    1    5    5    0  502 -0.53456571697E+02  0.36364093035E+02  0.12810602616E+03  0.14357296493E+03  0.47000000000E+01 0.  1.
         13    1    6    6    0    0  0.13543900053E+02 -0.52988639103E+02  0.22023955740E+03  0.22692883410E+03  0.00000000000E+00 0. -1.
        -14    1    6    6    0    0 -0.44128041192E+02 -0.11949749648E+02  0.39369520169E+03  0.39634075285E+03  0.00000000000E+00 0.  1.
</event>
<event>
12    1  0.8219652E-002  0.3471275E+03  0.7818608E-02  0.1063859E+00
         21   -1    0    0  503  502  0.00000000000E+00  0.00000000000E+00  0.96270407273E+03  0.96270407273E+03  0.00000000000E+00 0.  1.
         21   -1    0    0  501  503 -0.00000000000E+00 -0.00000000000E+00 -0.12510447664E+03  0.12510447664E+03  0.00000000000E+00 0.  1.
          6    2    1    2  501    0 -0.20495126650E+03  0.22141112859E+03  0.40010206296E+03  0.52932705972E+03  0.17052145279E+03 0.  0.
         24    2    3    3    0    0 -0.20081525943E+03  0.24160978184E+03  0.38460135211E+03  0.50310771219E+03  0.80604683001E+02 0.  0.
         -6    2    1    2    0  502  0.20495126650E+03 -0.22141112859E+03  0.43749753314E+03  0.55848148965E+03  0.17166704191E+03 0.  0.
        -24    2    5    5    0    0  0.21612789433E+03 -0.17831905139E+03  0.32058995973E+03  0.43329636734E+03  0.80367088264E+02 0.  0.
          5    1    3    3  501    0 -0.41360070629E+01 -0.20198653252E+02  0.15500710850E+02  0.26219347522E+02  0.47000000000E+01 0. -1.
        -13    1    4    4    0    0 -0.15342489625E+03  0.12350826607E+03  0.22669289576E+03  0.30030511079E+03  0.00000000000E+00 0.  1.
         14    1    4    4    0    0 -0.47390363181E+02  0.11810151577E+03  0.15790845635E+03  0.20280260141E+03  0.00000000000E+00 0. -1.
         -5    1    5    5    0  502 -0.11176627831E+02 -0.43092077207E+02  0.11690757341E+03  0.12518512232E+03  0.47000000000E+01 0.  1.
         13    1    6    6    0    0  0.86909798739E+02 -0.12294577360E+03  0.15520797174E+03  0.21623711720E+03  0.00000000000E+00 0. -1.
        -14    1    6    6    0    0  0.12921809559E+03 -0.55373277789E+02  0.16538198799E+03  0.21705925014E+03  0.00000000000E+00 0.  1.
</event>
<event>
12    1  0.8219652E-002  0.1882088E+03  0.7818608E-02  0.1160677E+00
         21   -1    0    0  503  502  0.00000000000E+00  0.00000000000E+00  0.33600785839E+03  0.33600785839E+03  0.00000000000E+00 0.  1.
         21   -1    0    0  501  503 -0.00000000000E+00 -0.00000000000E+00 -0.11872872551E+03  0.11872872551E+03  0.00000000000E+00 0.  1.
          6    2    1    2  501    0  0.37340552169E+02 -0.68745436061E+02  0.29181072579E+02  0.19045754452E+03  0.17117911511E+03 0.  0.
         24    2    3    3    0    0  0.38022409013E+02 -0.35033059252E+02  0.83483209638E+02  0.12636541264E+03  0.79534598719E+02 0.  0.
         -6    2    1    2    0  502 -0.37340552169E+02  0.68745436061E+02  0.18809806030E+03  0.26427903939E+03  0.16835165148E+03 0.  0.
        -24    2    5    5    0    0 -0.85742448065E+02  0.29719213147E+02  0.14721672017E+03  0.18971924075E+03  0.78010438950E+02 0.  0.
          5    1    3    3  501    0 -0.68185684343E+00 -0.33712376809E+02 -0.54302137059E+02  0.64092131873E+02  0.47000000000E+01 0. -1.
        -13    1    4    4    0    0  0.88883364413E+01 -0.46544476895E+02  0.12849468347E+02  0.49096839928E+02  0.00000000000E+00 0.  1.
         14    1    4    4    0    0  0.29134072571E+02  0.11511417643E+02  0.70633741291E+02  0.77268572715E+02  0.00000000000E+00 0. -1.
         -5    1    5    5    0  502  0.48401895896E+02  0.39026222913E+02  0.40881340130E+02  0.74559798632E+02  0.47000000000E+01 0.  1.
         11    1    6    6    0    0  0.12112605094E+02  0.39904886375E+01  0.22743391834E+01  0.12954220179E+02  0.00000000000E+00 0. -1.
        -12    1    6    6    0    0 -0.97855053159E+02  0.25728724510E+02  0.14494238098E+03  0.17676502057E+03  0.00000000000E+00 0.  1.
</event>
<event>
12    1  0.8219652E-002  0.2228271E+03  0.7818608E-02  0.1131923E+00
         21   -1    0    0  501  502  0.00000000000E+00  0.00000000000E+00  0.30674409768E+02  0.30674409768E+02  0.00000000000E+00 0. -1.
         21   -1    0    0  502  503 -0.00000000000E+00 -0.00000000000E+00 -0.19833580814E+04  0.19833580814E+04  0.00000000000E+00 0. -1.
         -6    2    1    2    0  503  0.14075871142E+03  0.15080553900E+02 -0.54022320379E+03  0.58410365712E+03  0.17115938301E+03 0.  0.
        -24    2    3    3    0    0  0.17052616439E+03  0.22332224516E+02 -0.44176912511E+03  0.48088552115E+03  0.80703305725E+02 0.  0.
          6    2    1    2  501    0 -0.14075871142E+03 -0.15080553900E+02 -0.14124604678E+04  0.14299288341E+04  0.17207980504E+03 0.  0.
         24    2    5    5    0    0 -0.56742089235E+01 -0.16061004395E+02 -0.71324169877E+03  0.71776469488E+03  0.78627500600E+02 0.  0.
          5    1    5    5  501    0 -0.13508450250E+03  0.98045049481E+00 -0.69921876907E+03  0.71216413917E+03  0.47000000000E+01 0. -1.
        -13    1    6    6    0    0  0.14524732121E+02 -0.17594582345E+02 -0.59729964402E+02  0.63939078963E+02  0.00000000000E+00 0.  1.
         14    1    6    6    0    0 -0.20198941044E+02  0.15335779504E+01 -0.65351173437E+03  0.65382561592E+03  0.00000000000E+00 0. -1.
         -5    1    3    3    0  503 -0.29767452974E+02 -0.72516706157E+01 -0.98454078680E+02  0.10321813596E+03  0.47000000000E+01 0.  1.
         11    1    4    4    0    0  0.10636026423E+03  0.20411215388E+02 -0.16945564475E+03  0.20110777971E+03  0.00000000000E+00 0. -1.
        -12    1    4    4    0    0  0.64165900160E+02  0.19210091278E+01 -0.27231348036E+03  0.27977774144E+03  0.00000000000E+00 0.  1.
</event>
<event>
12    1  0.8219652E-002  0.2125216E+03  0.7818608E-02  0.1139705E+00
         21   -1    0    0  503  502  0.00000000000E+00  0.00000000000E+00  0.33028390840E+03  0.33028390840E+03  0.00000000000E+00 0. -1.
         21   -1    0    0  501  503 -0.00000000000E+00 -0.00000000000E+00 -0.37140522528E+03  0.37140522528E+03  0.00000000000E+00 0.  1.
          6    2    1    2  501    0 -0.10973523449E+03  0.55189489402E+02 -0.29965959309E+03  0.36701395749E+03  0.17267215130E+03 0.  0.
         24    2    3    3    0    0 -0.14189819208E+03  0.68791363394E+02 -0.24831274104E+03  0.30473991769E+03  0.79623184322E+02 0.  0.
         -6    2    1    2    0  502  0.10973523449E+03 -0.55189489402E+02  0.25853827621E+03  0.33467517620E+03  0.17342932817E+03 0.  0.
        -24    2    5    5    0    0  0.35196516501E+01 -0.43323464698E+02  0.18119625586E+03  0.20266596936E+03  0.79700071867E+02 0.  0.
          5    1    3    3  501    0  0.32162957592E+02 -0.13601873992E+02 -0.51346852049E+02  0.62274039796E+02  0.47000000000E+01 0. -1.
        -11    1    4    4    0    0 -0.95711695231E+02  0.54075949928E+01 -0.16097503462E+03  0.18735776594E+03  0.00000000000E+00 0.  1.
         12    1    4    4    0    0 -0.46186496849E+02  0.63383768401E+02 -0.87337706418E+02  0.11738215175E+03  0.00000000000E+00 0. -1.
         -5    1    5    5    0  502  0.10621558284E+03 -0.11866024704E+02  0.77342020346E+02  0.13200920684E+03  0.47000000000E+01 0.  1.
         13    1    6    6    0    0  0.31097246348E+02 -0.29289577207E+02  0.15885959589E+03  0.16450315884E+03  0.00000000000E+00 0. -1.
        -14    1    6    6    0    0 -0.27577594698E+02 -0.14033887491E+02  0.22336659971E+02  0.38162810511E+02  0.00000000000E+00 0.  1.
</event>
<event>
12    1  0.8219652E-002  0.1774085E+03  0.7818608E-02  0.1170815E+00
         21   -1    0    0  503  502  0.00000000000E+00  0.00000000000E+00  0.24838828258E+03  0.24838828258E+03  0.00000000000E+00 0. -1.
         21   -1    0    0  501  503 -0.00000000000E+00 -0.00000000000E+00 -0.62126315254E+03  0.62126315254E+03  0.00000000000E+00 0. -1.
          6    2    1    2  501    0 -0.35092161377E+02 -0.72858745328E+01 -0.57513903196E+03  0.60187928846E+03  0.17375047636E+03 0.  0.
         24    2    3    3    0    0  0.40248466603E+02 -0.24574477395E+02 -0.37817633537E+03  0.39023926422E+03  0.83937468986E+02 0.  0.
         -6    2    1    2    0  502  0.35092161377E+02  0.72858745328E+01  0.20226416200E+03  0.26777214665E+03  0.17177481635E+03 0.  0.
        -24    2    5    5    0    0  0.39367093250E+02  0.14397905068E+02  0.25897152650E+02  0.91147493756E+02  0.76682040931E+02 0.  0.
          5    1    3    3  501    0 -0.75340627980E+02  0.17288602862E+02 -0.19696269659E+03  0.21164002424E+03  0.47000000000E+01 0. -1.
        -13    1    4    4    0    0 -0.17960091121E+01 -0.25843712426E+02 -0.30454607611E+02  0.39982574272E+02  0.00000000000E+00 0.  1.
         14    1    4    4    0    0  0.42044475715E+02  0.12692350307E+01 -0.34772172776E+03  0.35025668995E+03  0.00000000000E+00 0. -1.
         -5    1    5    5    0  502 -0.42749318728E+01 -0.71120305348E+01  0.17636700935E+03  0.17662465289E+03  0.47000000000E+01 0.  1.
         11    1    6    6    0    0 -0.10635277915E+02  0.17355232999E+02  0.34758599247E+02  0.40279938808E+02  0.00000000000E+00 0. -1.
        -12    1    6    6    0    0  0.50002371165E+02 -0.29573279309E+01 -0.88614465971E+01  0.50867554948E+02  0.00000000000E+00 0.  1.
</event>
<event>
12    1  0.8219652E-002  0.1855048E+03  0.7818608E-02  0.1162959E+00
         21   -1    0    0  503  502  0.00000000000E+00  0.00000000000E+00  0.78778867184E+03  0.78778867184E+03  0.00000000000E+00 0. -1.
         21   -1    0    0  501  503 -0.00000000000E+00 -0.00000000000E+00 -0.63383779450E+02  0.63383779450E+02  0.00000000000E+00 0. -1.
          6    2    1    2  501    0  0.21630764249E+02  0.63251907183E+02  0.12155310131E+03  0.22042502205E+03  0.17129897893E+03 0.  0.
         24    2    3    3    0    0  0.34270064774E+02 -0.17238811590E+02  0.10423517822E+03  0.13699536193E+03  0.80194406588E+02 0.  0.
         -6    2    1    2    0  502 -0.21630764249E+02 -0.63251907183E+02  0.60285179108E+03  0.63074742924E+03  0.17304145099E+03 0.  0.
        -24    2    5    5    0    0  0.30988943632E+02 -0.59278043106E+02  0.53349405055E+03  0.54347079190E+03  0.79185848864E+02 0.  0.
          5    1    3    3  501    0 -0.12639300525E+02  0.80490718773E+02  0.17317923085E+02  0.83429660112E+02  0.47000000000E+01 0. -1.
        -11    1    4    4    0    0  0.37814772119E+02 -0.36486545153E+02  0.30608934992E+02  0.60812267422E+02  0.00000000000E+00 0.  1.
         12    1    4    4    0    0 -0.35447073446E+01  0.19247733563E+02  0.73626243230E+02  0.76183094513E+02  0.00000000000E+00 0. -1.
         -5    1    5    5    0  502 -0.52619707881E+02 -0.39738640771E+01  0.69357740533E+02  0.87276637338E+02  0.47000000000E+01 0.  1.
         11    1    6    6    0    0  0.27889121714E+02 -0.61360406426E+02  0.53515570024E+03  0.53938346850E+03  0.00000000000E+00 0. -1.
        -12    1    6    6    0    0  0.30998219173E+01  0.20823633203E+01 -0.16616496944E+01  0.40873234058E+01  0.00000000000E+00 0.  1.
</event>
<event>
12    1  0.8219652E-002  0.2155698E+03  0.7818608E-02  0.1140550E+00
         21   -1    0    0  501  502  0.00000000000E+00  0.00000000000E+00  0.11984120601E+03  0.11984120601E+03  0.00000000000E+00 0.  1.
         21   -1    0    0  502  503 -0.00000000000E+00 -0.00000000000E+00 -0.36280366629E+03  0.36280366629E+03  0.00000000000E+00 0. -1.
         -6    2    1    2    0  503  0.86858212307E+02  0.62604278255E+02 -0.15274082153E+03  0.26419712049E+03  0.18710081564E+03 0.  0.
        -24    2    3    3    0    0  0.32997100230E+02 -0.40476905449E+02 -0.95261724808E+02  0.13437922346E+03  0.79093558443E+02 0.  0.
          6    2    1    2  501    0 -0.86858212307E+02 -0.62604278255E+02 -0.90221638754E+02  0.21844775181E+03  0.16767776081E+03 0.  0.
         24    2    5    5    0    0 -0.13368162475E+02 -0.74566979071E+02 -0.93376254261E+02  0.14377556667E+03  0.78824784019E+02 0.  0.
          5    1    5    5  501    0 -0.73490049832E+02  0.11962700816E+02  0.31546155073E+01  0.74672185144E+02  0.47000000000E+01 0. -1.
        -13    1    6    6    0    0  0.16359609924E+02 -0.60180357569E+02 -0.23786368987E+02  0.66746562635E+02  0.00000000000E+00 0.  1.
         14    1    6    6    0    0 -0.29727772399E+02 -0.14386621501E+02 -0.69589885274E+02  0.77029004034E+02  0.00000000000E+00 0. -1.
         -5    1    3    3    0  503  0.53861112077E+02  0.10308118370E+03 -0.57479096723E+02  0.12981789703E+03  0.47000000000E+01 0.  1.
         13    1    4    4    0    0 -0.25549729441E+02 -0.19985318574E+02 -0.37980222892E+02  0.49946961509E+02  0.00000000000E+00 0. -1.
        -14    1    4    4    0    0  0.58546829672E+02 -0.20491586875E+02 -0.57281501916E+02  0.84432261956E+02  0.00000000000E+00 0.  1.
</event>
<event>
12    1  0.8219652E-002  0.2626560E+03  0.7818608E-02  0.1105715E+00
         21   -1    0    0  501  502  0.00000000000E+00  0.00000000000E+00  0.28288285739E+03  0.28288285739E+03  0.00000000000E+00 0. -1.
         21   -1    0    0  502  503 -0.00000000000E+00 -0.00000000000E+00 -0.27245425552E+03  0.27245425552E+03  0.00000000000E+00 0. -1.
         -6    2    1    2    0  503  0.75593408522E+02  0.18340481327E+03  0.96680837930E+02  0.27988450486E+03  0.17215244029E+03 0.  0.
        -24    2    3    3    0    0  0.10822611933E+03  0.90208747589E+02  0.49034094202E+02  0.17014525637E+03  0.81820259249E+02 0.  0.
          6    2    1    2  501    0 -0.75593408522E+02 -0.18340481327E+03 -0.86252236056E+02  0.27545260804E+03  0.17053739212E+03 0.  0.
         24    2    5    5    0    0 -0.11362847619E+03 -0.17072837558E+03 -0.60465276524E+02  0.22755254827E+03  0.77874923608E+02 0.  0.
          5    1    5    5  501    0  0.38035067668E+02 -0.12676437687E+02 -0.25786959531E+02  0.47900059778E+02  0.47000000000E+01 0. -1.
        -13    1    6    6    0    0 -0.33177550686E+02 -0.54853615536E+01  0.13321026671E+01  0.33654324513E+02  0.00000000000E+00 0.  1.
         14    1    6    6    0    0 -0.80450925504E+02 -0.16524301403E+03 -0.61797379191E+02  0.19389822375E+03  0.00000000000E+00 0. -1.
         -5    1    3    3    0  503 -0.32632710808E+02  0.93196065679E+02  0.47646743728E+02  0.10973924850E+03  0.47000000000E+01 0.  1.
         13    1    4    4    0    0  0.58912094569E+02  0.79765585969E+02  0.63440297953E+02  0.11771939091E+03  0.00000000000E+00 0. -1.
        -14    1    4    4    0    0  0.49314024761E+02  0.10443161621E+02 -0.14406203750E+02  0.52425865460E+02  0.00000000000E+00 0.  1.
</event>
<event>
12    1  0.8219652E-002  0.3739640E+03  0.7818608E-02  0.1053237E+00
         21   -1    0    0  501  502  0.00000000000E+00  0.00000000000E+00  0.83604359113E+03  0.83604359113E+03  0.00000000000E+00 0.  1.
         21   -1    0    0  502  503 -0.00000000000E+00 -0.00000000000E+00 -0.18091954556E+03  0.18091954556E+03  0.00000000000E+00 0. -1.
         -6    2    1    2    0  503  0.33159171664E+03  0.18977137220E+02  0.18652473874E+03  0.41743465091E+03  0.17072495814E+03 0.  0.
        -24    2    3    3    0    0  0.16849568018E+03  0.72006445652E+02  0.83339604880E+02  0.21723053878E+03  0.81657178390E+02 0.  0.
          6    2    1    2  501    0 -0.33159171664E+03 -0.18977137220E+02  0.46859930683E+03  0.59952848577E+03  0.17186010768E+03 0.  0.
         24    2    5    5    0    0 -0.12336725738E+03 -0.64425082116E+02  0.22002284103E+03  0.27206048660E+03  0.78973327127E+02 0.  0.
          5    1    5    5  501    0 -0.20822445927E+03  0.45447944896E+02  0.24857646580E+03  0.32746799918E+03  0.47000000000E+01 0. -1.
        -11    1    6    6    0    0 -0.90745185474E+00  0.15563469993E+01 -0.62195093300E+01  0.64751819401E+01  0.00000000000E+00 0.  1.
         12    1    6    6    0    0 -0.12245980552E+03 -0.65981429115E+02  0.22624235036E+03  0.26558530466E+03  0.00000000000E+00 0. -1.
         -5    1    3    3    0  503  0.16309603647E+03 -0.53029308432E+02  0.10318513386E+03  0.20020411213E+03  0.47000000000E+01 0.  1.
         11    1    4    4    0    0  0.12495910245E+03  0.39243450263E+02  0.18085632204E+02  0.13221919591E+03  0.00000000000E+00 0. -1.
        -12    1    4    4    0    0  0.43536577727E+02  0.32762995388E+02  0.65253972676E+02  0.85011342873E+02  0.00000000000E+00 0.  1.
</event>
<event>
12    1  0.8219652E-002  0.1923047E+03  0.7818608E-02  0.1159464E+00
         21   -1    0    0  501  502  0.00000000000E+00  0.00000000000E+00  0.13617792706E+03  0.13617792706E+03  0.00000000000E+00 0. -1.
         21   -1    0    0  502  503 -0.00000000000E+00 -0.00000000000E+00 -0.34279152156E+03  0.34279152156E+03  0.00000000000E+00 0. -1.
         -6    2    1    2    0  503 -0.33036372859E+02 -0.45522005374E+02 -0.22300358488E+03  0.28596760585E+03  0.16995063348E+03 0.  0.
        -24    2    3    3    0    0 -0.75465458745E+02 -0.84009229510E+00 -0.12153624564E+03  0.16716351662E+03  0.86468728831E+02 0.  0.
          6    2    1    2  501    0  0.33036372859E+02  0.45522005374E+02  0.16389990381E+02  0.19300184276E+03  0.18389514572E+03 0.  0.
         24    2    5    5    0    0 -0.50869298249E+02  0.45460729624E+02  0.30906102875E+02  0.10772011599E+03  0.77421397248E+02 0.  0.
          5    1    5    5  501    0  0.83905671108E+02  0.61275749464E-01 -0.14516112494E+02  0.85281726770E+02  0.47000000000E+01 0. -1.
        -11    1    6    6    0    0 -0.12129486959E+02 -0.93385889325E+01  0.37287540942E+02  0.40307498144E+02  0.00000000000E+00 0.  1.
         12    1    6    6    0    0 -0.38739811290E+02  0.54799318557E+02 -0.63814380673E+01  0.67412617846E+02  0.00000000000E+00 0. -1.
         -5    1    3    3    0  503  0.42429085885E+02 -0.44681913079E+02 -0.10146733924E+03  0.11880408923E+03  0.47000000000E+01 0.  1.
         13    1    4    4    0    0  0.38988639732E+01  0.29182363867E+02 -0.38218784232E+02  0.48244035583E+02  0.00000000000E+00 0. -1.
        -14    1    4    4    0    0 -0.79364322718E+02 -0.30022456162E+02 -0.83317461406E+02  0.11891948103E+03  0.00000000000E+00 0.  1.
</event>
<event>
12    1  0.8219652E-002  0.2033639E+03  0.7818608E-02  0.1147067E+00
         21   -1    0    0  503  502  0.00000000000E+00  0.00000000000E+00  0.36833896689E+03  0.36833896689E+03  0.00000000000E+00 0.  1.
         21   -1    0    0  501  503 -0.00000000000E+00 -0.00000000000E+00 -0.14843217981E+03  0.14843217981E+03  0.00000000000E+00 0.  1.
          6    2    1    2  501    0 -0.10718804975E+03 -0.14340511364E+02  0.23824343808E+03  0.31323603882E+03  0.17222645545E+03 0.  0.
         24    2    3    3    0    0 -0.13704991091E+03 -0.33882141792E+02  0.21960517789E+03  0.27270110556E+03  0.78795819728E+02 0.  0.
         -6    2    1    2    0  502  0.10718804975E+03  0.14340511364E+02 -0.18336650994E+02  0.20353510788E+03  0.17145080663E+03 0.  0.
        -24    2    5    5    0    0  0.10693165964E+03 -0.18411392584E+02 -0.61833257283E+02  0.14888350491E+03  0.81052989572E+02 0.  0.
          5    1    3    3  501    0  0.29861861160E+02  0.19541630429E+02  0.18638260190E+02  0.40534933263E+02  0.47000000000E+01 0. -1.
        -13    1    4    4    0    0 -0.28431202470E+02 -0.42919520352E+02  0.86535861598E+02  0.10069197507E+03  0.00000000000E+00 0.  1.
         14    1    4    4    0    0 -0.10861870844E+03  0.90373785597E+01  0.13306931629E+03  0.17200913049E+03  0.00000000000E+00 0. -1.
         -5    1    5    5    0  502  0.25639010920E+00  0.32751903948E+02  0.43496606290E+02  0.54651602967E+02  0.47000000000E+01 0.  1.
         11    1    6    6    0    0  0.32935235873E+02 -0.14041980098E+02  0.17889715193E+02  0.40024353546E+02  0.00000000000E+00 0. -1.
        -12    1    6    6    0    0  0.73996423767E+02 -0.43694124861E+01 -0.79722972477E+02  0.10885915137E+03  0.00000000000E+00 0.  1.
</event>
<event>
12    1  0.8219652E-002  0.2153394E+03  0.7818608E-02  0.1137508E+00
         21   -1    0    0  501  502  0.00000000000E+00  0.00000000000E+00  0.18022673286E+03  0.18022673286E+03  0.00000000000E+00 0.  1.
         21   -1    0    0  502  503 -0.00000000000E+00 -0.00000000000E+00 -0.35611204791E+03  0.35611204791E+03  0.00000000000E+00 0. -1.
         -6    2    1    2    0  503 -0.12773747288E+03 -0.85248760494E+01 -0.22973958339E+03  0.31488301433E+03  0.17315167065E+03 0.  0.
        -24    2    3    3    0    0 -0.14304975190E+03 -0.12620431834E+02 -0.24344154272E+03  0.29341040025E+03  0.78761484452E+02 0.  0.
          6    2    1    2  501    0  0.12773747288E+03  0.85248760494E+01  0.53854268334E+02  0.22145576644E+03  0.17249011212E+03 0.  0.
         24    2    5    5    0    0  0.10444512976E+03 -0.58262322101E+02  0.33125939606E+02  0.14759903555E+03  0.79905344721E+02 0.  0.
          5    1    5    5  501    0  0.23292343127E+02  0.66787198151E+02  0.20728328727E+02  0.73856730885E+02  0.47000000000E+01 0. -1.
        -11    1    6    6    0    0  0.91328955747E+02 -0.77874136810E+01  0.22357491163E+02  0.94347651697E+02  0.00000000000E+00 0.  1.
         12    1    6    6    0    0  0.13116174009E+02 -0.50474908421E+02  0.10768448443E+02  0.53251383856E+02  0.00000000000E+00 0. -1.
         -5    1    3    3    0  503  0.15312279013E+02  0.40955557845E+01  0.13701959337E+02  0.21472614080E+02  0.47000000000E+01 0.  1.
         13    1    4    4    0    0 -0.35521348813E+02  0.30055057355E+02 -0.52457670381E+02  0.70120466883E+02  0.00000000000E+00 0. -1.
        -14    1    4    4    0    0 -0.10752840308E+03 -0.42675489189E+02 -0.19098387234E+03  0.22328993337E+03  0.00000000000E+00 0.  1.
</event>
<event>
12    1  0.8219652E-002  0.2307569E+03  0.7818608E-02  0.1126313E+00
         21   -1    0    0  503  502  0.00000000000E+00  0.00000000000E+00  0.60978019627E+03  0.60978019627E+03  0.00000000000E+00 0. -1.
         21   -1    0    0  501  503 -0.00000000000E+00 -0.00000000000E+00 -0.12942388590E+03  0.12942388590E+03  0.00000000000E+00 0. -1.
          6    2    1    2  501    0  0.21947229957E+01  0.15476282695E+03  0.27869485678E+02  0.23127391866E+03  0.16957171876E+03 0.  0.
         24    2    3    3    0    0  0.49120707788E+02  0.28026024185E+02  0.24868554926E+02  0.96013574101E+02  0.73497342961E+02 0.  0.
         -6    2    1    2    0  502 -0.21947229957E+01 -0.15476282695E+03  0.45248682468E+03  0.50793016351E+03  0.17115015360E+03 0.  0.
        -24    2    5    5    0    0  0.35864002431E+02 -0.66775937333E+02  0.34394358589E+03  0.36303749974E+03  0.88055570341E+02 0.  0.
          5    1    3    3  501    0 -0.46925984792E+02  0.12673680277E+03  0.30009307511E+01  0.13526034456E+03  0.47000000000E+01 0. -1.
        -11    1    4    4    0    0  0.23722666961E+02 -0.20870328651E+02  0.25975876329E+02  0.40903321342E+02  0.00000000000E+00 0.  1.
         12    1    4    4    0    0  0.25398040827E+02  0.48896352836E+02 -0.11073214028E+01  0.55110252759E+02  0.00000000000E+00 0. -1.
         -5    1    5    5    0  502 -0.38058725426E+02 -0.87986889618E+02  0.10854323880E+03  0.14489266377E+03  0.47000000000E+01 0.  1.
         13    1    6    6    0    0  0.18470861726E+02  0.14834712100E+02  0.15065808783E+03  0.15250934675E+03  0.00000000000E+00 0. -1.
        -14    1    6    6    0    0  0.17393140705E+02 -0.81610649433E+02  0.19328549805E+03  0.21052815299E+03  0.00000000000E+00 0.  1.
</event>
<event>
12    1  0.8219652E-002  0.1941343E+03  0.7818608E-02  0.1155337E+00
         21   -1    0    0  501  502  0.00000000000E+00  0.00000000000E+00  0.19422722942E+03  0.19422722942E+03  0.00000000000E+00 0. -1.
         21   -1    0    0  502  503 -0.00000000000E+00 -0.00000000000E+00 -0.14220184294E+04  0.14220184294E+04  0.00000000000E+00 0.  1.
         -6    2    1    2    0  503  0.31049055432E+02 -0.78168812137E+02 -0.13650842980E+04  0.13784694317E+04  0.17218718474E+03 0.  0.
        -24    2    3    3    0    0  0.74913229005E+01  0.14633270941E+02 -0.35599132550E+03  0.36483344653E+03  0.78124050960E+02 0.  0.
          6    2    1    2  501    0 -0.31049055432E+02  0.78168812137E+02  0.13729309796E+03  0.23777622713E+03  0.17496780391E+03 0.  0.
         24    2    5    5    0    0 -0.15398540789E+02 -0.27831449560E+02  0.61162069209E+02  0.10625049722E+03  0.80849643211E+02 0.  0.
          5    1    5    5  501    0 -0.15650514643E+02  0.10600026170E+03  0.76131028755E+02  0.13152572991E+03  0.47000000000E+01 0. -1.
        -11    1    6    6    0    0  0.30886398541E+02 -0.62739183704E+01  0.40136040420E+02  0.51031690225E+02  0.00000000000E+00 0.  1.
         12    1    6    6    0    0 -0.46284939330E+02 -0.21557531190E+02  0.21026028789E+02  0.55218807000E+02  0.00000000000E+00 0. -1.
         -5    1    3    3    0  503  0.23557732532E+02 -0.92802083077E+02 -0.10090929725E+04  0.10136359852E+04  0.47000000000E+01 0.  1.
         11    1    4    4    0    0  0.10015976323E+02  0.38862234116E+02 -0.31180471067E+03  0.31437679720E+03  0.00000000000E+00 0. -1.
        -12    1    4    4    0    0 -0.25246534229E+01 -0.24228963175E+02 -0.44186614838E+02  0.50456649337E+02  0.00000000000E+00 0.  1.
</event>
<event>
12    1  0.8219652E-002  0.1791751E+03  0.7818608E-02  0.1169086E+00
         21   -1    0    0  501  502  0.00000000000E+00  0.00000000000E+00  0.52822004114E+03  0.52822004114E+03  0.00000000000E+00 0.  1.
         21   -1    0    0  502  503 -0.00000000000E+00 -0.00000000000E+00 -0.14279102346E+03  0.14279102346E+03  0.00000000000E+00 0.  1.
         -6    2    1    2    0  503  0.20771069026E+02 -0.42374287416E+02 -0.62135417509E+02  0.18964316013E+03  0.17284877937E+03 0.  0.
        -24    2    3    3    0    0 -0.27426164768E+02 -0.25034338669E+02  0.22065060878E+02  0.90974736968E+02  0.80066367647E+02 0.  0.
          6    2    1    2  501    0 -0.20771069026E+02  0.42374287416E+02  0.44756443518E+03  0.48136790448E+03  0.17080432745E+03 0.  0.
         24    2    5    5    0    0 -0.72523334046E+02  0.53591756659E+02  0.16987080679E+03  0.19863133132E+03  0.49664921406E+02 0.  0.
          5    1    5    5  501    0  0.51752265020E+02 -0.11217469243E+02  0.27769362839E+03  0.28273657316E+03  0.47000000000E+01 0. -1.
        -11    1    6    6    0    0 -0.39342110643E+02  0.46765976724E+02  0.14259520213E+03  0.15513945314E+03  0.00000000000E+00 0.  1.
         12    1    6    6    0    0 -0.33181223402E+02  0.68257799352E+01  0.27275604664E+02  0.43491878184E+02  0.00000000000E+00 0. -1.
         -5    1    3    3    0  503  0.48197233794E+02 -0.17339948747E+02 -0.84200478387E+02  0.98668423158E+02  0.47000000000E+01 0.  1.
         13    1    4    4    0    0  0.41842190500E+01 -0.31459611019E+02  0.42310887308E+02  0.52890698609E+02  0.00000000000E+00 0. -1.
        -14    1    4    4    0    0 -0.31610383818E+02  0.64252723495E+01 -0.20245826430E+02  0.38084038359E+02  0.00000000000E+00 0.  1.
</event>
<event>
12    1  0.8219652E-002  0.1884613E+03  0.7818608E-02  0.1160462E+00
         21   -1    0    0  503  502  0.00000000000E+00  0.00000000000E+00  0.19671402925E+03  0.19671402925E+03  0.00000000000E+00 0. -1.
         21   -1    0    0  501  503 -0.00000000000E+00 -0.00000000000E+00 -0.19127849885E+03  0.19127849885E+03  0.00000000000E+00 0. -1.
          6    2    1    2  501    0 -0.58385084051E+02 -0.32906841370E+02 -0.48339736053E+02  0.19200928593E+03  0.17331808201E+03 0.  0.
         24    2    3    3    0    0 -0.74552613651E+02  0.17806823886E+02 -0.73030552904E+02  0.13314510927E+03  0.80740220994E+02 0.  0.
         -6    2    1    2    0  502  0.58385084051E+02  0.32906841370E+02  0.53775266456E+02  0.19598324217E+03  0.17614191346E+03 0.  0.
        -24    2    5    5    0    0  0.93616684485E+02  0.65098174369E+02  0.55455097038E+02  0.14799929256E+03  0.76332606987E+02 0.  0.
          5    1    3    3  501    0  0.16167529600E+02 -0.50713665256E+02  0.24690816851E+02  0.58864176660E+02  0.47000000000E+01 0. -1.
        -11    1    4    4    0    0 -0.38214522037E+01  0.33209874226E+02 -0.43747584480E+02  0.55057700560E+02  0.00000000000E+00 0.  1.
         12    1    4    4    0    0 -0.70731161447E+02 -0.15403050340E+02 -0.29282968423E+02  0.78087408710E+02  0.00000000000E+00 0. -1.
         -5    1    5    5    0  502 -0.35231600434E+02 -0.32191332998E+02 -0.16798305821E+01  0.47983949610E+02  0.47000000000E+01 0.  1.
         13    1    6    6    0    0  0.55316131674E+02  0.55253549564E+02 -0.20471105550E+01  0.78211379124E+02  0.00000000000E+00 0. -1.
        -14    1    6    6    0    0  0.38300552811E+02  0.98446248048E+01  0.57502207593E+02  0.69787913433E+02  0.00000000000E+00 0.  1.
</event>
<event>
12    1  0.8219652E-002  0.2192788E+03  0.7818608E-02  0.1134549E+00
         21   -1    0    0  503  502  0.00000000000E+00  0.00000000000E+00  0.29670893540E+04  0.29670893540E+04  0.00000000000E+00 0.  1.
         21   -1    0    0  501  503 -0.00000000000E+00 -0.00000000000E+00 -0.10259038945E+03  0.10259038945E+03  0.00000000000E+00 0. -1.
          6    2    1    2  501    0 -0.12219991342E+03  0.59740363731E+02  0.23782719410E+02  0.22056478895E+03  0.17199266986E+03 0.  0.
         24    2    3    3    0    0 -0.13968754722E+02  0.60201264981E+02 -0.18461812194E+02  0.10428544172E+03  0.81946912274E+02 0.  0.
         -6    2    1    2    0  502  0.12219991342E+03 -0.59740363731E+02  0.28407162452E+04  0.28491149545E+04  0.17113009285E+03 0.  0.
        -24    2    5    5    0    0  0.12755558283E+03 -0.91572560916E+02  0.26284448072E+04  0.26343517702E+04  0.80194663017E+02 0.  0.
          5    1    3    3  501    0 -0.10823115870E+03 -0.46090125070E+00  0.42244531604E+02  0.11627934723E+03  0.47000000000E+01 0. -1.
        -11    1    4    4    0    0 -0.39831533261E+02  0.59429797801E+02 -0.27832559321E+02  0.76766550443E+02  0.00000000000E+00 0.  1.
         12    1    4    4    0    0  0.25862778539E+02  0.77146718074E+00  0.93707471277E+01  0.27518891277E+02  0.00000000000E+00 0. -1.
         -5    1    5    5    0  502 -0.53556694095E+01  0.31832197186E+02  0.21227143799E+03  0.21476318437E+03  0.47000000000E+01 0.  1.
         13    1    6    6    0    0 -0.65822670318E+01  0.16529095701E+01  0.29170713144E+02  0.29949772197E+02  0.00000000000E+00 0. -1.
        -14    1    6    6    0    0  0.13413784986E+03 -0.93225470487E+02  0.25992740940E+04  0.26044019980E+04  0.00000000000E+00 0.  1.
</event>
<event>
12    1  0.8219652E-002  0.1744072E+03  0.7818608E-02  0.1173668E+00
         21   -1    0    0  501  502  0.00000000000E+00  0.00000000000E+00  0.30505297010E+03  0.30505297010E+03  0.00000000000E+00 0.  1.
         21   -1    0    0  502  503 -0.00000000000E+00 -0.00000000000E+00 -0.10242607278E+03  0.10242607278E+03  0.00000000000E+00 0.  1.
         -6    2    1    2    0  503 -0.53349505565E+01 -0.12746447091E+02  0.64142384766E+02  0.18582815547E+03  0.17385892048E+03 0.  0.
        -24    2    3    3    0    0  0.20497770164E+02 -0.13994573608E+02  0.10730770996E+03  0.13528883831E+03  0.78562831437E+02 0.  0.
          6    2    1    2  501    0  0.53349505565E+01  0.12746447091E+02  0.13848451255E+03  0.22165088742E+03  0.17251151285E+03 0.  0.
         24    2    5    5    0    0 -0.52087155586E+02  0.43396347326E+02  0.10531416265E+03  0.14844517200E+03  0.79677986264E+02 0.  0.
          5    1    5    5  501    0  0.57422106143E+02 -0.30649900235E+02  0.33170349899E+02  0.73205715424E+02  0.47000000000E+01 0. -1.
        -11    1    6    6    0    0 -0.15933734906E+02 -0.16339825504E+02  0.62506970144E+02  0.66543182387E+02  0.00000000000E+00 0.  1.
         12    1    6    6    0    0 -0.36153420680E+02  0.59736172831E+02  0.42807192510E+02  0.81901989609E+02  0.00000000000E+00 0. -1.
         -5    1    3    3    0  503 -0.25832720721E+02  0.12481265161E+01 -0.43165325191E+02  0.50539317155E+02  0.47000000000E+01 0.  1.
         11    1    4    4    0    0 -0.23390211335E+02  0.12760616536E+02  0.59058455558E+02  0.64790713019E+02  0.00000000000E+00 0. -1.
        -12    1    4    4    0    0  0.43887981500E+02 -0.26755190143E+02  0.48249254400E+02  0.70498125293E+02  0.00000000000E+00 0.  1.
</event>
<event>
12    1  0.8219652E-002  0.1760781E+03  0.7818608E-02  0.1172151E+00
         21   -1    0    0  501  502  0.00000000000E+00  0.00000000000E+00  0.61920444381E+03  0.61920444381E+03  0.00000000000E+00 0.  1.
         21   -1    0    0  502  503 -0.00000000000E+00 -0.00000000000E+00 -0.10768293304E+03  0.10768293304E+03  0.00000000000E+00 0.  1.
         -6    2    1    2    0  503  0.29476040604E+02  0.11057685921E+02 -0.10708744440E+02  0.17640340129E+03  0.17324079598E+03 0.  0.
        -24    2    3    3    0    0  0.76263524695E+02  0.39227038249E+02 -0.43511257044E+02  0.11252323292E+03  0.58423991036E+02 0.  0.
          6    2    1    2  501    0 -0.29476040604E+02 -0.11057685921E+02  0.52223025522E+03  0.55048397556E+03  0.17122224884E+03 0.  0.
         24    2    5    5    0    0  0.32100875975E+02  0.31096470386E+02  0.19965888165E+03  0.21936002506E+03  0.79105593128E+02 0.  0.
          5    1    5    5  501    0 -0.61576916579E+02 -0.42154156307E+02  0.32257137357E+03  0.33112395050E+03  0.47000000000E+01 0. -1.
        -13    1    6    6    0    0 -0.13274581421E+02  0.29192967705E+02  0.14397944786E+03  0.14750771262E+03  0.00000000000E+00 0.  1.
         14    1    6    6    0    0  0.45375457396E+02  0.19035026802E+01  0.55679433787E+02  0.71852312442E+02  0.00000000000E+00 0. -1.
         -5    1    3    3    0  503 -0.46787484091E+02 -0.28169352328E+02  0.32802512605E+02  0.63880168373E+02  0.47000000000E+01 0.  1.
         11    1    4    4    0    0  0.70004836251E+02  0.67348008208E+01 -0.33861620754E+02  0.78055390593E+02  0.00000000000E+00 0. -1.
        -12    1    4    4    0    0  0.62586884444E+01  0.32492237428E+02 -0.96496362903E+01  0.34467842327E+02  0.00000000000E+00 0.  1.
</event>
<event>
12    1  0.8219652E-002  0.2423710E+03  0.7818608E-02  0.1118271E+00
         21   -1    0    0  503  502  0.00000000000E+00  0.00000000000E+00  0.87856555757E+02  0.87856555757E+02  0.00000000000E+00 0.  1.
         21   -1    0    0  501  503 -0.00000000000E+00 -0.00000000000E+00 -0.14262092382E+04  0.14262092382E+04  0.00000000000E+00 0.  1.
          6    2    1    2  501    0 -0.15022718276E+03  0.79837110336E+02 -0.12210222001E+04  0.12447886930E+04  0.17222516195E+03 0.  0.
         24    2    3    3    0    0 -0.16203500908E+03  0.21503373565E+02 -0.92442429898E+03  0.94224174694E+03  0.80879452872E+02 0.  0.
         -6    2    1    2    0  502  0.15022718276E+03 -0.79837110336E+02 -0.11733048238E+03  0.26927710101E+03  0.17263123821E+03 0.  0.
        -24    2    5    5    0    0  0.50113925422E+02 -0.34138011482E+02 -0.12301564222E+03  0.15897985275E+03  0.80404825734E+02 0.  0.
          5    1    3    3  501    0  0.11807826316E+02  0.58333736770E+02 -0.29659790111E+03  0.30254694603E+03  0.47000000000E+01 0. -1.
        -11    1    4    4    0    0 -0.64310372761E+02  0.44678628899E+02 -0.50007164624E+03  0.50616564018E+03  0.00000000000E+00 0.  1.
         12    1    4    4    0    0 -0.97724636318E+02 -0.23175255334E+02 -0.42435265274E+03  0.43607610676E+03  0.00000000000E+00 0. -1.
         -5    1    5    5    0  502  0.10011325734E+03 -0.45699098854E+02  0.56851598393E+01  0.11029724826E+03  0.47000000000E+01 0.  1.
         11    1    6    6    0    0  0.37289212811E+02  0.19177215868E+02 -0.32102472529E+02  0.52809277054E+02  0.00000000000E+00 0. -1.
        -12    1    6    6    0    0  0.12824712611E+02 -0.53315227350E+02 -0.90913169688E+02  0.10617057570E+03  0.00000000000E+00 0.  1.
</event>
<event>
12    1  0.8219652E-002  0.2795566E+03  0.7818608E-02  0.1096174E+00
         21   -1    0    0  501  502  0.00000000000E+00  0.00000000000E+00  0.17646648853E+03  0.17646648853E+03  0.00000000000E+00 0.  1.
         21   -1    0    0  502  503 -0.00000000000E+00 -0.00000000000E+00 -0.46278162085E+03  0.46278162085E+03  0.00000000000E+00 0.  1.
         -6    2    1    2    0  503 -0.21251148360E+03 -0.51943095990E+02 -0.21353033838E+03  0.35037184646E+03  0.17118998073E+03 0.  0.
        -24    2    3    3    0    0 -0.19222452311E+03 -0.90373412800E+02 -0.14553813949E+03  0.26954190693E+03  0.79711156788E+02 0.  0.
          6    2    1    2  501    0  0.21251148360E+03  0.51943095990E+02 -0.72784793940E+02  0.28887626291E+03  0.17404784734E+03 0.  0.
         24    2    5    5    0    0  0.82821251011E+02  0.89633721323E+02 -0.22220389847E+02  0.14458839569E+03  0.74286572310E+02 0.  0.
          5    1    5    5  501    0  0.12969023259E+03 -0.37690625333E+02 -0.50564404094E+02  0.14428786723E+03  0.47000000000E+01 0. -1.
        -11    1    6    6    0    0  0.66424356978E+02  0.42083113641E+02  0.17428962880E+02  0.80541619060E+02  0.00000000000E+00 0.  1.
         12    1    6    6    0    0  0.16396894033E+02  0.47550607682E+02 -0.39649352727E+02  0.64046776628E+02  0.00000000000E+00 0. -1.
         -5    1    3    3    0  503 -0.20286960492E+02  0.38430316810E+02 -0.67992198888E+02  0.80829939539E+02  0.47000000000E+01 0.  1.
         13    1    4    4    0    0 -0.92880309650E+01 -0.26307633579E+02 -0.12932413894E+01  0.27929045401E+02  0.00000000000E+00 0. -1.
        -14    1    4    4    0    0 -0.18293649214E+03 -0.64065779221E+02 -0.14424489810E+03  0.24161286152E+03  0.00000000000E+00 0.  1.
</event>
<event>
12    1  0.8219652E-002  0.2111728E+03  0.7818608E-02  0.1140732E+00
         21   -1    0    0  501  502  0.00000000000E+00  0.00000000000E+00  0.10421226578E+03  0.10421226578E+03  0.00000000000E+00 0.  1.
         21   -1    0    0  502  503 -0.00000000000E+00 -0.00000000000E+00 -0.45311838275E+03  0.45311838275E+03  0.00000000000E+00 0. -1.
         -6    2    1    2    0  503  0.12225173816E+03 -0.29903519863E+01 -0.10769655593E+03  0.23704955716E+03  0.17216130430E+03 0.  0.
        -24    2    3    3    0    0  0.15343555492E+03 -0.25983970233E+01 -0.67246658046E+02  0.18575756660E+03  0.80215580461E+02 0.  0.
          6    2    1    2  501    0 -0.12225173816E+03  0.29903519863E+01 -0.24120956104E+03  0.32028109138E+03  0.17159107047E+03 0.  0.
         24    2    5    5    0    0 -0.30103258441E+02  0.56445775357E+02 -0.10312002102E+03  0.14581150759E+03  0.80838884744E+02 0.  0.
          5    1    5    5  501    0 -0.92148479721E+02 -0.53455423370E+02 -0.13808954002E+03  0.17446958378E+03  0.47000000000E+01 0. -1.
        -11    1    6    6    0    0 -0.13617714369E+02 -0.65796818461E+01  0.79198126474E+01  0.17072134904E+02  0.00000000000E+00 0.  1.
         12    1    6    6    0    0 -0.16485544073E+02  0.63025457203E+02 -0.11103983367E+03  0.12873937269E+03  0.00000000000E+00 0. -1.
         -5    1    3    3    0  503 -0.31183816759E+02 -0.39195496298E+00 -0.40449897889E+02  0.51291990559E+02  0.47000000000E+01 0.  1.
         13    1    4    4    0    0 -0.87246884953E+00 -0.18014892712E+02 -0.83284344970E+01  0.19866061072E+02  0.00000000000E+00 0. -1.
        -14    1    4    4    0    0  0.15430802377E+03  0.15416495689E+02 -0.58918223549E+02  0.16589150553E+03  0.00000000000E+00 0.  1.
</event>
<event>
12    1  0.8219652E-002  0.1980323E+03  0.7818608E-02  0.1152102E+00
         21   -1    0    0  503  502  0.00000000000E+00  0.00000000000E+00  0.52836272430E+03  0.52836272430E+03  0.00000000000E+00 0.  1.
         21   -1    0    0  501  503 -0.00000000000E+00 -0.00000000000E+00 -0.10952465909E+03  0.10952465909E+03  0.00000000000E+00 0.  1.
          6    2    1    2  501    0 -0.66150266878E+02 -0.73937870773E+02  0.24162851609E+02  0.19631597530E+03  0.16767066595E+03 0.  0.
         24    2    3    3    0    0 -0.31729313057E+02 -0.84452841158E+02  0.68630969760E+02  0.13891501542E+03  0.80300310158E+02 0.  0.
         -6    2    1    2    0  502  0.66150266878E+02  0.73937870773E+02  0.39467521359E+03  0.44157140808E+03  0.17138879097E+03 0.  0.
        -24    2    5    5    0    0 -0.32658308768E+02  0.20732184600E+02  0.20915192544E+03  0.22469595970E+03  0.72438648406E+02 0.  0.
          5    1    3    3  501    0 -0.34420953820E+02  0.10514970385E+02 -0.44468118150E+02  0.57400959887E+02  0.47000000000E+01 0. -1.
        -11    1    4    4    0    0  0.10801390243E+02 -0.45729056686E+02 -0.29594166984E+01  0.47080514056E+02  0.00000000000E+00 0.  1.
         12    1    4    4    0    0 -0.42530703301E+02 -0.38723784472E+02  0.71590386458E+02  0.91834501361E+02  0.00000000000E+00 0. -1.
         -5    1    5    5    0  502  0.98808575646E+02  0.53205686173E+02  0.18552328816E+03  0.21687544838E+03  0.47000000000E+01 0.  1.
         13    1    6    6    0    0 -0.26636015422E+02  0.47603040006E+02  0.13588426305E+03  0.14642424554E+03  0.00000000000E+00 0. -1.
        -14    1    6    6    0    0 -0.60222933463E+01 -0.26870855406E+02  0.73267662385E+02  0.78271714168E+02  0.00000000000E+00 0.  1.
</event>
<event>
12    1  0.8219652E-002  0.1813206E+03  0.7818608E-02  0.1167487E+00
         21   -1    0    0  501  502  0.00000000000E+00  0.00000000000E+00  0.53375859944E+03  0.53375859944E+03  0.00000000000E+00 0. -1.
         21   -1    0    0  502  503 -0.00000000000E+00 -0.00000000000E+00 -0.68599018150E+02  0.68599018150E+02  0.00000000000E+00 0. -1.
         -6    2    1    2    0  503 -0.30041834825E+02  0.49788748665E+02  0.12984378066E+03  0.22301700100E+03  0.17174325031E+03 0.  0.
        -24    2    3    3    0    0 -0.55327842226E+02  0.84184625523E+02  0.12789078864E+03  0.18002441219E+03  0.76840834616E+02 0.  0.
          6    2    1    2  501    0  0.30041834825E+02 -0.49788748665E+02  0.33531580063E+03  0.37934061658E+03  0.16757441901E+03 0.  0.
         24    2    5    5    0    0 -0.47311604653E+02 -0.34025882848E+02  0.17694298515E+03  0.20232067076E+03  0.78922019636E+02 0.  0.
          5    1    5    5  501    0  0.77353439478E+02 -0.15762865817E+02  0.15837281548E+03  0.17701994583E+03  0.47000000000E+01 0. -1.
        -11    1    6    6    0    0 -0.50847298533E+02  0.11754832267E+02  0.93708399436E+02  0.10726084083E+03  0.00000000000E+00 0.  1.
         12    1    6    6    0    0  0.35356938801E+01 -0.45780715115E+02  0.83234585713E+02  0.95059829931E+02  0.00000000000E+00 0. -1.
         -5    1    3    3    0  503  0.25286007401E+02 -0.34395876859E+02  0.19529920167E+01  0.42992588814E+02  0.47000000000E+01 0.  1.
         11    1    4    4    0    0 -0.15475137303E+02  0.81910720564E+02  0.65759165189E+02  0.10617492088E+03  0.00000000000E+00 0. -1.
        -12    1    4    4    0    0 -0.39852704923E+02  0.22739049596E+01  0.62131623453E+02  0.73849491308E+02  0.00000000000E+00 0.  1.
</event>
<event>
12    1  0.8219652E-002  0.2559727E+03  0.7818608E-02  0.1109967E+00
         21   -1    0    0  501  502  0.00000000000E+00  0.00000000000E+00  0.23386866870E+03  0.23386866870E+03  0.00000000000E+00 0. -1.
         21   -1    0    0  502  503 -0.00000000000E+00 -0.00000000000E+00 -0.29644885564E+03  0.29644885564E+03  0.00000000000E+00 0.  1.
         -6    2    1    2    0  503  0.69927523859E+02  0.17226778641E+03 -0.98508761306E+02  0.27427356056E+03  0.17594306222E+03 0.  0.
        -24    2    3    3    0    0  0.82093236807E+02  0.38374772193E+02 -0.49966534392E+02  0.13125684258E+03  0.80745163917E+02 0.  0.
          6    2    1    2  501    0 -0.69927523859E+02 -0.17226778641E+03  0.35928574365E+02  0.25604396379E+03  0.17234152172E+03 0.  0.
         24    2    5    5    0    0 -0.48332577746E+02 -0.85582413841E+02 -0.45327354676E+02  0.13519152683E+03  0.81004890058E+02 0.  0.
          5    1    5    5  501    0 -0.21594946113E+02 -0.86685372568E+02  0.81255929041E+02  0.12085243696E+03  0.47000000000E+01 0. -1.
        -11    1    6    6    0    0 -0.28574062826E+01 -0.16209493262E+02 -0.49472510871E+02  0.52138678295E+02  0.00000000000E+00 0.  1.
         12    1    6    6    0    0 -0.45475171463E+02 -0.69372920579E+02  0.41451561953E+01  0.83052848531E+02  0.00000000000E+00 0. -1.
         -5    1    3    3    0  503 -0.12165712948E+02  0.13389301422E+03 -0.48542226914E+02  0.14301671798E+03  0.47000000000E+01 0.  1.
         11    1    4    4    0    0  0.11485978908E+02  0.25450694269E+02  0.17330231244E+02  0.32863390957E+02  0.00000000000E+00 0. -1.
        -12    1    4    4    0    0  0.70607257899E+02  0.12924077924E+02 -0.67296765636E+02  0.98393451628E+02  0.00000000000E+00 0.  1.
</event>
<event>
12    1  0.8219652E-002  0.2153190E+03  0.7818608E-02  0.1137853E+00
         21   -1    0    0  501  502  0.00000000000E+00  0.00000000000E+00  0.49951293279E+03  0.49951293279E+03  0.00000000000E+00 0. -1.
         21   -1    0    0  502  503 -0.00000000000E+00 -0.00000000000E+00 -0.93267309781E+02  0.93267309781E+02  0.00000000000E+00 0.  1.
         -6    2    1    2    0  503  0.81194703674E+02  0.10064227545E+03  0.16558634894E+03  0.26985742784E+03  0.16935980897E+03 0.  0.
        -24    2    3    3    0    0 -0.91763614673E+01  0.90178250135E+01  0.88250339077E+02  0.11964119119E+03  0.79751899693E+02 0.  0.
          6    2    1    2  501    0 -0.81194703674E+02 -0.10064227545E+03  0.24065927407E+03  0.32292281472E+03  0.17216506777E+03 0.  0.
         24    2    5    5    0    0 -0.71716359159E+02 -0.54917452270E+02  0.49944415528E+02  0.12651801402E+03  0.73165569056E+02 0.  0.
          5    1    5    5  501    0 -0.94783445149E+01 -0.45724823184E+02  0.19071485854E+03  0.19640480070E+03  0.47000000000E+01 0. -1.
        -11    1    6    6    0    0 -0.11714926952E+01  0.10643511521E+02 -0.86696353207E+01  0.13777492850E+02  0.00000000000E+00 0.  1.
         12    1    6    6    0    0 -0.70544866464E+02 -0.65560963791E+02  0.58614050848E+02  0.11274052117E+03  0.00000000000E+00 0. -1.
         -5    1    3    3    0  503  0.90371065141E+02  0.91624450440E+02  0.77336009861E+02  0.15021623665E+03  0.47000000000E+01 0.  1.
         11    1    4    4    0    0 -0.13133863939E+02  0.17822935239E+02  0.10114140892E+03  0.10353617726E+03  0.00000000000E+00 0. -1.
        -12    1    4    4    0    0  0.39575024722E+01 -0.88051102251E+01 -0.12891069847E+02  0.16105013931E+02  0.00000000000E+00 0.  1.
</event>
<event>
12    1  0.8219652E-002  0.1761779E+03  0.7818608E-02  0.1171704E+00
         21   -1    0    0  501  502  0.00000000000E+00  0.00000000000E+00  0.90950263350E+03  0.90950263350E+03  0.00000000000E+00 0.  1.
         21   -1    0    0  502  503 -0.00000000000E+00 -0.00000000000E+00 -0.43543581750E+02  0.43543581750E+02  0.00000000000E+00 0.  1.
         -6    2    1    2    0  503  0.36900437900E+02  0.21536615332E+02  0.20943333785E+03  0.27329281952E+03  0.17029731084E+03 0.  0.
        -24    2    3    3    0    0  0.50571992238E+02  0.72242086551E+02  0.11659141149E+03  0.16652358472E+03  0.79750244925E+02 0.  0.
          6    2    1    2  501    0 -0.36900437900E+02 -0.21536615332E+02  0.65652571391E+03  0.67975339574E+03  0.17091868792E+03 0.  0.
         24    2    5    5    0    0  0.58197798247E+01  0.36880806154E+02  0.48961056847E+03  0.49776337428E+03  0.81583112926E+02 0.  0.
          5    1    5    5  501    0 -0.42720217724E+02 -0.58417421486E+02  0.16691514543E+03  0.18199002146E+03  0.47000000000E+01 0. -1.
        -11    1    6    6    0    0 -0.29967283296E+02  0.34217799212E+02  0.37280409330E+03  0.37556861934E+03  0.00000000000E+00 0.  1.
         12    1    6    6    0    0  0.35787063121E+02  0.26630069414E+01  0.11680647517E+03  0.12219475494E+03  0.00000000000E+00 0. -1.
         -5    1    3    3    0  503 -0.13671554339E+02 -0.50705471218E+02  0.92841926355E+02  0.10676923480E+03  0.47000000000E+01 0.  1.
         11    1    4    4    0    0  0.71055008238E+02  0.42922797700E+02  0.84849015818E+02  0.11870356458E+03  0.00000000000E+00 0. -1.
        -12    1    4    4    0    0 -0.20483016000E+02  0.29319288851E+02  0.31742395676E+02  0.47820020142E+02  0.00000000000E+00 0.  1.
</event>
<event>
12    1  0.8219652E-002  0.1841028E+03  0.7818608E-02  0.1165158E+00
         21   -1    0    0  501  502  0.00000000000E+00  0.00000000000E+00  0.47579380469E+03  0.47579380469E+03  0.00000000000E+00 0.  1.
         21   -1    0    0  502  503 -0.00000000000E+00 -0.00000000000E+00 -0.90745802663E+02  0.90745802663E+02  0.00000000000E+00 0.  1.
         -6    2    1    2    0  503  0.32952393086E+02 -0.37976264466E+02  0.56644371254E+02  0.19261992056E+03  0.17710390207E+03 0.  0.
        -24    2    3    3    0    0  0.54061039234E+01  0.26358453417E+02  0.81808606815E+02  0.11810091142E+03  0.80815735489E+02 0.  0.
          6    2    1    2  501    0 -0.32952393086E+02  0.37976264466E+02  0.32840363077E+03  0.37391968679E+03  0.17157776836E+03 0.  0.
         24    2    5    5    0    0 -0.50087947693E+02 -0.12315697418E+02  0.29692020930E+03  0.31198258572E+03  0.80691041596E+02 0.  0.
          5    1    5    5  501    0  0.17135554607E+02  0.50291961884E+02  0.31483421467E+02  0.61937101071E+02  0.47000000000E+01 0. -1.
        -13    1    6    6    0    0 -0.11551534535E+02  0.29542543828E+02  0.55280267361E+02  0.63734667219E+02  0.00000000000E+00 0.  1.
         14    1    6    6    0    0 -0.38536413158E+02 -0.41858241246E+02  0.24163994194E+03  0.24824791850E+03  0.00000000000E+00 0. -1.
         -5    1    3    3    0  503  0.27546289163E+02 -0.64334717883E+02 -0.25164235561E+02  0.74519009139E+02  0.47000000000E+01 0.  1.
         11    1    4    4    0    0  0.37484328221E+02  0.35533733310E+02  0.53231807711E+02  0.74171061859E+02  0.00000000000E+00 0. -1.
        -12    1    4    4    0    0 -0.32078224298E+02 -0.91752798929E+01  0.28576799104E+02  0.43929849558E+02  0.00000000000E+00 0.  1.
</event>
<event>
12    1  0.8219652E-002  0.2054070E+03  0.7818608E-02  0.1145420E+00
         21   -1    0    0  503  502  0.00000000000E+00  0.00000000000E+00  0.14437776314E+03  0.14437776314E+03  0.00000000000E+00 0. -1.
         21   -1    0    0  501  503 -0.00000000000E+00 -0.00000000000E+00 -0.39532925604E+03  0.39532925604E+03  0.00000000000E+00 0. -1.
          6    2    1    2  501    0  0.25107332410E+02 -0.10861593235E+03 -0.26422738649E+03  0.33467621228E+03  0.17252320537E+03 0.  0.
         24    2    3    3    0    0  0.55777032042E+02 -0.64498881428E+01 -0.14829258419E+03  0.17706434899E+03  0.78793494630E+02 0.  0.
         -6    2    1    2    0  502 -0.25107332410E+02  0.10861593235E+03  0.13275893596E+02  0.20503080690E+03  0.17156218560E+03 0.  0.
        -24    2    5    5    0    0 -0.59574457558E+02  0.14312238356E+02 -0.11882463329E+02  0.10141515972E+03  0.79936759547E+02 0.  0.
          5    1    3    3  501    0 -0.30669699633E+02 -0.10216604421E+03 -0.11593480230E+03  0.15761186329E+03  0.47000000000E+01 0. -1.
        -11    1    4    4    0    0 -0.13254318360E+02  0.55875131344E+00 -0.74896087748E+02  0.76061903198E+02  0.00000000000E+00 0.  1.
         12    1    4    4    0    0  0.69031350402E+02 -0.70086394563E+01 -0.73396496442E+02  0.10100244579E+03  0.00000000000E+00 0. -1.
         -5    1    5    5    0  502  0.34467125148E+02  0.94303693994E+02  0.25158356924E+02  0.10361564718E+03  0.47000000000E+01 0.  1.
         11    1    6    6    0    0  0.43817388756E+01  0.29888182364E+02  0.10357604284E+02  0.31934042135E+02  0.00000000000E+00 0. -1.
        -12    1    6    6    0    0 -0.63956196433E+02 -0.15575944008E+02 -0.22240067613E+02  0.69481117589E+02  0.00000000000E+00 0.  1.
</event>
<event>
12    1  0.8219652E-002  0.1810489E+03  0.7818608E-02  0.1168065E+00
         21   -1    0    0  503  502  0.00000000000E+00  0.00000000000E+00  0.40954022065E+03  0.40954022065E+03  0.00000000000E+00 0.  1.
         21   -1    0    0  501  503 -0.00000000000E+00 -0.00000000000E+00 -0.24494892979E+03  0.24494892979E+03  0.00000000000E+00 0.  1.
          6    2    1    2  501    0  0.35222605580E+02 -0.53266761059E+01 -0.18844519855E+03  0.25773550846E+03  0.17218302484E+03 0.  0.
         24    2    3    3    0    0  0.77516160278E+02 -0.41353593123E+02 -0.11433691774E+03  0.16499495206E+03  0.80196812135E+02 0.  0.
         -6    2    1    2    0  502 -0.35222605580E+02  0.53266761059E+01  0.35303648941E+03  0.39675364197E+03  0.17750967339E+03 0.  0.
        -24    2    5    5    0    0 -0.51642493550E+01 -0.63435097703E+02  0.23271925207E+03  0.25487336175E+03  0.82167506683E+02 0.  0.
          5    1    3    3  501    0 -0.42293554698E+02  0.36026917017E+02 -0.74108280804E+02  0.92740556406E+02  0.47000000000E+01 0. -1.
        -13    1    4    4    0    0  0.37729965150E+02  0.10149830509E+02 -0.85115289936E+02  0.93654588304E+02  0.00000000000E+00 0.  1.
         14    1    4    4    0    0  0.39786195128E+02 -0.51503423633E+02 -0.29221627809E+02  0.71340363753E+02  0.00000000000E+00 0. -1.
         -5    1    5    5    0  502 -0.30058356225E+02  0.68761773809E+02  0.12031723734E+03  0.14188028022E+03  0.47000000000E+01 0.  1.
         11    1    6    6    0    0  0.23082195843E+02 -0.17385647991E+02  0.16847127001E+03  0.17093161598E+03  0.00000000000E+00 0. -1.
        -12    1    6    6    0    0 -0.28246445198E+02 -0.46049449712E+02  0.64247982056E+02  0.83941745773E+02  0.00000000000E+00 0.  1.
</event>
<event>
12    1  0.8219652E-002  0.2455992E+03  0.7818608E-02  0.1117290E+00
         21   -1    0    0  501  502  0.00000000000E+00  0.00000000000E+00  0.38162304440E+03  0.38162304440E+03  0.00000000000E+00 0.  1.
         21   -1    0    0  502  503 -0.00000000000E+00 -0.00000000000E+00 -0.23934557864E+03  0.23934557864E+03  0.00000000000E+00 0. -1.
         -6    2    1    2    0  503 -0.18156219417E+02  0.16394963538E+03 -0.11412301286E+03  0.27081921974E+03  0.18196114001E+03 0.  0.
        -24    2    3    3    0    0 -0.26141607897E+01  0.95021528270E+01 -0.76812101606E+02  0.11110142314E+03  0.79663683862E+02 0.  0.
          6    2    1    2  501    0  0.18156219417E+02 -0.16394963538E+03  0.25640047862E+03  0.35014940329E+03  0.17220414612E+03 0.  0.
         24    2    5    5    0    0 -0.43748819070E+02 -0.11275378352E+03  0.21024639164E+03  0.25738336002E+03  0.86111984947E+02 0.  0.
          5    1    5    5  501    0  0.61905038487E+02 -0.51195851857E+02  0.46154086984E+02  0.92766043264E+02  0.47000000000E+01 0. -1.
        -11    1    6    6    0    0  0.21244305192E+02 -0.10167988323E+02  0.16625026324E+02  0.28828804864E+02  0.00000000000E+00 0.  1.
         12    1    6    6    0    0 -0.64993124262E+02 -0.10258579520E+03  0.19362136532E+03  0.22855455516E+03  0.00000000000E+00 0. -1.
         -5    1    3    3    0  503 -0.15542058628E+02  0.15444748255E+03 -0.37310911258E+02  0.15971779660E+03  0.47000000000E+01 0.  1.
         11    1    4    4    0    0 -0.61334229343E+01  0.19255723368E+02 -0.91174400184E+02  0.93387220797E+02  0.00000000000E+00 0. -1.
        -12    1    4    4    0    0  0.35192621446E+01 -0.97535705407E+01  0.14362298578E+02  0.17714202347E+02  0.00000000000E+00 0.  1.
</event>
<event>
12    1  0.8219652E-002  0.1826019E+03  0.7818608E-02  0.1165578E+00
         21   -1    0    0  503  502  0.00000000000E+00  0.00000000000E+00  0.12685029289E+04  0.12685029289E+04  0.00000000000E+00 0. -1.
         21   -1    0    0  501  503 -0.00000000000E+00 -0.00000000000E+00 -0.26123137101E+02  0.26123137101E+02  0.00000000000E+00 0. -1.
          6    2    1    2  501    0 -0.30560620360E+02 -0.53470322510E+02  0.62505145780E+03  0.65117800215E+03  0.17190241032E+03 0.  0.
         24    2    3    3    0    0  0.44450065226E+02 -0.44934881861E+02  0.43188463644E+03  0.44372929144E+03  0.79852319822E+02 0.  0.
         -6    2    1    2    0  502  0.30560620360E+02  0.53470322510E+02  0.61732833401E+03  0.64344806387E+03  0.17069889284E+03 0.  0.
        -24    2    5    5    0    0 -0.30422409906E+02  0.72817268273E+02  0.46003193150E+03  0.47357316127E+03  0.80089222059E+02 0.  0.
          5    1    3    3  501    0 -0.75010685586E+02 -0.85354406487E+01  0.19316682136E+03  0.20744871071E+03  0.47000000000E+01 0. -1.
        -11    1    4    4    0    0  0.39611878518E+02  0.40077862972E+01  0.91183150561E+02  0.99496382934E+02  0.00000000000E+00 0.  1.
         12    1    4    4    0    0  0.48381867078E+01 -0.48942668158E+02  0.34070148588E+03  0.34423290850E+03  0.00000000000E+00 0. -1.
         -5    1    5    5    0  502  0.60983030266E+02 -0.19346945763E+02  0.15729640251E+03  0.16987490260E+03  0.47000000000E+01 0.  1.
         13    1    6    6    0    0  0.35303855004E+01  0.64486103898E+02  0.17745279394E+03  0.18883965498E+03  0.00000000000E+00 0. -1.
        -14    1    6    6    0    0 -0.33952795407E+02  0.83311643755E+01  0.28257913756E+03  0.28473350629E+03  0.00000000000E+00 0.  1.
</event>
<event>
12    1  0.8219652E-002  0.2097530E+03  0.7818608E-02  0.1142329E+00
         21   -1    0    0  503  502  0.00000000000E+00  0.00000000000E+00  0.21553359085E+03  0.21553359085E+03  0.00000000000E+00 0.  1.
         21   -1    0    0  501  503 -0.00000000000E+00 -0.00000000000E+00 -0.20145961783E+03  0.20145961783E+03  0.00000000000E+00 0. -1.
          6    2    1    2  501    0 -0.28731836582E+02  0.10942758648E+03  0.27692750363E+01  0.20977123364E+03  0.17662498822E+03 0.  0.
         24    2    3    3    0    0  0.38599002610E+02  0.10967520272E+03 -0.81745133756E+01  0.14139463147E+03  0.80044275525E+02 0.  0.
         -6    2    1    2    0  502  0.28731836582E+02 -0.10942758648E+03  0.11304697982E+02  0.20722197504E+03  0.17324328451E+03 0.  0.
        -24    2    5    5    0    0 -0.24468326758E+02  0.17260389858E+01 -0.27143616373E+00  0.83361235841E+02  0.79670218642E+02 0.  0.
          5    1    3    3  501    0 -0.67330839192E+02 -0.24761624445E+00  0.10943788412E+02  0.68376602174E+02  0.47000000000E+01 0. -1.
        -11    1    4    4    0    0  0.19789302771E+02  0.43210906735E+02  0.35807534960E+02  0.59506121743E+02  0.00000000000E+00 0.  1.
         12    1    4    4    0    0  0.18809699839E+02  0.66464295988E+02 -0.43982048335E+02  0.81888509725E+02  0.00000000000E+00 0. -1.
         -5    1    5    5    0  502  0.53200163340E+02 -0.11115362546E+03  0.11576134146E+02  0.12386073920E+03  0.47000000000E+01 0.  1.
         11    1    6    6    0    0 -0.22280555894E+02 -0.14477404027E+01 -0.38732700144E+02  0.44707283340E+02  0.00000000000E+00 0. -1.
        -12    1    6    6    0    0 -0.21877708638E+01  0.31737793885E+01  0.38461263980E+02  0.38653952501E+02  0.00000000000E+00 0.  1.
</event>
<event>
12    1  0.8219652E-002  0.2570065E+03  0.7818608E-02  0.1108964E+00
         21   -1    0    0  501  502  0.00000000000E+00  0.00000000000E+00  0.63035639898E+02  0.63035639898E+02  0.00000000000E+00 0. -1.
         21   -1    0    0  502  503 -0.00000000000E+00 -0.00000000000E+00 -0.13502743033E+04  0.13502743033E+04  0.00000000000E+00 0.  1.
         -6    2    1    2    0  503  0.10857098366E+02 -0.19137784789E+03 -0.97822838903E+03  0.10114262717E+04  0.17119861216E+03 0.  0.
        -24    2    3    3    0    0  0.54912103856E+02 -0.55913850263E+02 -0.43117145572E+03  0.44610802823E+03  0.83437706221E+02 0.  0.
          6    2    1    2  501    0 -0.10857098366E+02  0.19137784789E+03 -0.30901027438E+03  0.40188367147E+03  0.17111334978E+03 0.  0.
         24    2    5    5    0    0 -0.41912281473E+02  0.44928491227E+02 -0.16986322078E+03  0.19744338437E+03  0.79719305024E+02 0.  0.
          5    1    5    5  501    0  0.31055183107E+02  0.14644935667E+03 -0.13914705360E+03  0.20444028710E+03  0.47000000000E+01 0. -1.
        -13    1    6    6    0    0  0.14099063759E+02  0.89446039452E+01 -0.19456198747E+01  0.16809966547E+02  0.00000000000E+00 0.  1.
         14    1    6    6    0    0 -0.56011345232E+02  0.35983887282E+02 -0.16791760091E+03  0.18063341782E+03  0.00000000000E+00 0. -1.
         -5    1    3    3    0  503 -0.44055005491E+02 -0.13546399763E+03 -0.54705693331E+03  0.56531824351E+03  0.47000000000E+01 0.  1.
         13    1    4    4    0    0  0.23227814700E+02 -0.54339207745E+02 -0.12464533216E+03  0.13794469799E+03  0.00000000000E+00 0. -1.
        -14    1    4    4    0    0  0.31684289156E+02 -0.15746425183E+01 -0.30652612356E+03  0.30816333023E+03  0.00000000000E+00 0.  1.
</event>
<event>
12    1  0.8219652E-002  0.2815070E+03  0.7818608E-02  0.1094996E+00
         21   -1    0    0  501  502  0.00000000000E+00  0.00000000000E+00  0.53180009313E+03  0.53180009313E+03  0.00000000000E+00 0. -1.
         21   -1    0    0  502  503 -0.00000000000E+00 -0.00000000000E+00 -0.14876394590E+03  0.14876394590E+03  0.00000000000E+00 0. -1.
         -6    2    1    2    0  503  0.55462034041E+02  0.21472760025E+03  0.20560630413E+03  0.34859736866E+03  0.17338452530E+03 0.  0.
        -24    2    3    3    0    0  0.46075226898E+02  0.94991268764E+02  0.30014436527E+02  0.13580757757E+03  0.79978522433E+02 0.  0.
          6    2    1    2  501    0 -0.55462034041E+02 -0.21472760025E+03  0.17742984311E+03  0.33196667036E+03  0.17186198381E+03 0.  0.
         24    2    5    5    0    0  0.29083301768E+02 -0.65892609374E+02  0.88569304953E+02  0.13904685915E+03  0.79384084353E+02 0.  0.
          5    1    5    5  501    0 -0.84545335809E+02 -0.14883499088E+03  0.88860538152E+02  0.19291981121E+03  0.47000000000E+01 0. -1.
        -13    1    6    6    0    0  0.31971495718E+02 -0.54942477422E+01  0.78160898296E+00  0.32449564085E+02  0.00000000000E+00 0.  1.
         14    1    6    6    0    0 -0.28881939499E+01 -0.60398361632E+02  0.87787695970E+02  0.10659729507E+03  0.00000000000E+00 0. -1.
         -5    1    3    3    0  503  0.93868071421E+01  0.11973633149E+03  0.17559186760E+03  0.21278979109E+03  0.47000000000E+01 0.  1.
         11    1    4    4    0    0  0.52751997680E+01  0.89265086745E+02  0.99225818963E+01  0.89969667531E+02  0.00000000000E+00 0. -1.
        -12    1    4    4    0    0  0.40800027130E+02  0.57261820196E+01  0.20091854630E+02  0.45837910040E+02  0.00000000000E+00 0.  1.
</event>
<event>
12    1  0.8219652E-002  0.2091864E+03  0.7818608E-02  0.1143046E+00
         21   -1    0    0  503  502  0.00000000000E+00  0.00000000000E+00  0.35367556256E+02  0.35367556256E+02  0.00000000000E+00 0. -1.
         21   -1    0    0  501  503 -0.00000000000E+00 -0.00000000000E+00 -0.14014947637E+04  0.14014947637E+04  0.00000000000E+00 0. -1.
          6    2    1    2  501    0  0.63230043764E+02 -0.91637709321E+02 -0.41358839232E+03  0.46162431702E+03  0.17218055522E+03 0.  0.
         24    2    3    3    0    0  0.87739164156E+02 -0.16386770112E+02 -0.24641487072E+03  0.27660410958E+03  0.88446920612E+02 0.  0.
         -6    2    1    2    0  502 -0.63230043764E+02  0.91637709321E+02 -0.95253881511E+03  0.97523800292E+03  0.17709731747E+03 0.  0.
        -24    2    5    5    0    0  0.30640819829E+02  0.17451751043E+02 -0.31395399085E+03  0.32552424810E+03  0.78457021829E+02 0.  0.
          5    1    3    3  501    0 -0.24509120392E+02 -0.75250939209E+02 -0.16717352161E+03  0.18502020744E+03  0.47000000000E+01 0. -1.
        -11    1    4    4    0    0  0.81725603862E+01  0.33563164134E+01  0.63481588125E+01  0.10879095709E+02  0.00000000000E+00 0.  1.
         12    1    4    4    0    0  0.79566603770E+02 -0.19743086526E+02 -0.25276302953E+03  0.26572501387E+03  0.00000000000E+00 0. -1.
         -5    1    5    5    0  502 -0.93870863593E+02  0.74185958277E+02 -0.63858482425E+03  0.64971375482E+03  0.47000000000E+01 0.  1.
         13    1    6    6    0    0  0.33739025377E+02  0.43271861388E+02 -0.25871874880E+03  0.26447337636E+03  0.00000000000E+00 0. -1.
        -14    1    6    6    0    0 -0.30982055488E+01 -0.25820110345E+02 -0.55235242054E+02  0.61050871743E+02  0.00000000000E+00 0.  1.
</event>
<event>
12    1  0.8219652E-002  0.1769373E+03  0.7818608E-02  0.1170802E+00
         21   -1    0    0  503  502  0.00000000000E+00  0.00000000000E+00  0.20722293535E+03  0.20722293535E+03  0.00000000000E+00 0. -1.
         21   -1    0    0  501  503 -0.00000000000E+00 -0.00000000000E+00 -0.29346945618E+03  0.29346945618E+03  0.00000000000E+00 0. -1.
          6    2    1    2  501    0  0.26257196240E+02  0.31921037246E+02 -0.21750799496E+03  0.28038639926E+03  0.17204189039E+03 0.  0.
         24    2    3    3    0    0  0.21334858934E+02  0.84008256297E+02 -0.11141798027E+03  0.16200359219E+03  0.79489837241E+02 0.  0.
         -6    2    1    2    0  502 -0.26257196240E+02 -0.31921037246E+02  0.13126147413E+03  0.22030599227E+03  0.17203709678E+03 0.  0.
        -24    2    5    5    0    0  0.11144142154E+02 -0.49887706009E+01  0.15131712860E+03  0.16982306073E+03  0.76117795630E+02 0.  0.
          5    1    3    3  501    0  0.49223373056E+01 -0.52087219050E+02 -0.10609001469E+03  0.11838280707E+03  0.47000000000E+01 0. -1.
        -11    1    4    4    0    0  0.34512908786E+02  0.19974248027E+02 -0.96190467283E+01  0.41019964859E+02  0.00000000000E+00 0.  1.
         12    1    4    4    0    0 -0.13178049852E+02  0.64034008270E+02 -0.10179893354E+03  0.12098362733E+03  0.00000000000E+00 0. -1.
         -5    1    5    5    0  502 -0.37401338394E+02 -0.26932266646E+02 -0.20055654475E+02  0.50482931538E+02  0.47000000000E+01 0.  1.
         11    1    6    6    0    0  0.29978351191E+02  0.88847849967E+01  0.21573684826E+02  0.37987693027E+02  0.00000000000E+00 0. -1.
        -12    1    6    6    0    0 -0.18834209037E+02 -0.13873555598E+02  0.12974344378E+03  0.13183536771E+03  0.00000000000E+00 0.  1.
</event>
<event>
12    1  0.8219652E-002  0.1963419E+03  0.7818608E-02  0.1152945E+00
         21   -1    0    0  501  502  0.00000000000E+00  0.00000000000E+00  0.31969856550E+04  0.31969856550E+04  0.00000000000E+00 0. -1.
         21   -1    0    0  502  503 -0.00000000000E+00 -0.00000000000E+00 -0.26195855079E+02  0.26195855079E+02  0.00000000000E+00 0. -1.
         -6    2    1    2    0  503  0.24457787555E+02  0.90353633595E+02  0.40119451708E+03  0.44666226977E+03  0.17259252657E+03 0.  0.
        -24    2    3    3    0    0 -0.26206089476E+02  0.21280702784E+02  0.30745852987E+03  0.31959369181E+03  0.80434773686E+02 0.  0.
          6    2    1    2  501    0 -0.24457787555E+02 -0.90353633595E+02  0.27695952828E+04  0.27765192403E+04  0.17216009580E+03 0.  0.
         24    2    5    5    0    0 -0.26636609365E+02 -0.14760199809E+02  0.22431891258E+04  0.22446878322E+04  0.76148784561E+02 0.  0.
          5    1    5    5  501    0  0.21788218092E+01 -0.75593433786E+02  0.52640615704E+03  0.53183140812E+03  0.47000000000E+01 0. -1.
        -11    1    6    6    0    0 -0.53021451814E+02 -0.73621600753E+01  0.13021499510E+04  0.13032497729E+04  0.00000000000E+00 0.  1.
         12    1    6    6    0    0  0.26384842450E+02 -0.73980397335E+01  0.94103917475E+03  0.94143805920E+03  0.00000000000E+00 0. -1.
         -5    1    3    3    0  503  0.50663877031E+02  0.69072930811E+02  0.93735987203E+02  0.12706857796E+03  0.47000000000E+01 0.  1.
         13    1    4    4    0    0 -0.55096904904E+02  0.99317669561E+01  0.18704493469E+03  0.19524373618E+03  0.00000000000E+00 0. -1.
        -14    1    4    4    0    0  0.28890815428E+02  0.11348935828E+02  0.12041359519E+03  0.12434995563E+03  0.00000000000E+00 0.  1.
</event>
<event>
12    1  0.8219652E-002  0.1971894E+03  0.7818608E-02  0.1152415E+00
         21   -1    0    0  501  502  0.00000000000E+00  0.00000000000E+00  0.40457857193E+02  0.40457857193E+02  0.00000000000E+00 0.  1.
         21   -1    0    0  502  503 -0.00000000000E+00 -0.00000000000E+00 -0.97228376978E+03  0.97228376978E+03  0.00000000000E+00 0.  1.
         -6    2    1    2    0  503  0.55312647553E+02  0.76458332602E+02 -0.39934136312E+03  0.44537306975E+03  0.17314237306E+03 0.  0.
        -24    2    3    3    0    0  0.28134426165E+02  0.55301884459E+02 -0.39771754593E+03  0.41057396346E+03  0.80881943430E+02 0.  0.
          6    2    1    2  501    0 -0.55312647553E+02 -0.76458332602E+02 -0.53248454947E+03  0.56736855723E+03  0.17164474565E+03 0.  0.
         24    2    5    5    0    0 -0.74603161581E+02 -0.15314460372E+01 -0.21405708345E+03  0.23964259949E+03  0.77718488608E+02 0.  0.
          5    1    5    5  501    0  0.19290514028E+02 -0.74926886565E+02 -0.31842746602E+03  0.32772595774E+03  0.47000000000E+01 0. -1.
        -11    1    6    6    0    0 -0.23427684791E+02 -0.16150676516E+02 -0.12328497591E+02  0.31011169269E+02  0.00000000000E+00 0.  1.
         12    1    6    6    0    0 -0.51175476790E+02  0.14619230479E+02 -0.20172858586E+03  0.20863143022E+03  0.00000000000E+00 0. -1.
         -5    1    3    3    0  503  0.27178221388E+02  0.21156448143E+02 -0.16238171949E+01  0.34799106283E+02  0.47000000000E+01 0.  1.
         13    1    4    4    0    0 -0.54568157262E+01  0.59463322205E+02 -0.16633121759E+03  0.17672503352E+03  0.00000000000E+00 0. -1.
        -14    1    4    4    0    0  0.33591241891E+02 -0.41614377454E+01 -0.23138632834E+03  0.23384892995E+03  0.00000000000E+00 0.  1.
</event>
<event>
12    1  0.8219652E-002  0.1970984E+03  0.7818608E-02  0.1152482E+00
         21   -1    0    0  503  502  0.00000000000E+00  0.00000000000E+00  0.70672649780E+02  0.70672649780E+02  0.00000000000E+00 0.  1.
         21   -1    0    0  501  503 -0.00000000000E+00 -0.00000000000E+00 -0.63085370322E+03  0.63085370322E+03  0.00000000000E+00 0.  1.
          6    2    1    2  501    0  0.94797498181E+02  0.12837290827E+02 -0.40781795053E+03  0.45240333274E+03  0.17088573082E+03 0.  0.
         24    2    3    3    0    0  0.31014879071E+02  0.71253656141E+02 -0.18557654961E+03  0.21387864948E+03  0.72570067542E+02 0.  0.
         -6    2    1    2    0  502 -0.94797498181E+02 -0.12837290827E+02 -0.15236310291E+03  0.24912302026E+03  0.17232644138E+03 0.  0.
        -24    2    5    5    0    0 -0.51910298340E+02  0.58894474730E+02 -0.10104313355E+03  0.15093652753E+03  0.80055494990E+02 0.  0.
          5    1    3    3  501    0  0.63782619111E+02 -0.58416365313E+02 -0.22224140092E+03  0.23852468325E+03  0.47000000000E+01 0. -1.
        -13    1    4    4    0    0  0.43403421614E+02  0.45525536360E+02 -0.66945786219E+02  0.91859511000E+02  0.00000000000E+00 0.  1.
         14    1    4    4    0    0 -0.12388542544E+02  0.25728119781E+02 -0.11863076339E+03  0.12201913848E+03  0.00000000000E+00 0. -1.
         -5    1    5    5    0  502 -0.42887199842E+02 -0.71731765557E+02 -0.51319969354E+02  0.98186492730E+02  0.47000000000E+01 0.  1.
         11    1    6    6    0    0  0.46851108647E+01  0.18558237025E+02 -0.73878498155E+02  0.76317697259E+02  0.00000000000E+00 0. -1.
        -12    1    6    6    0    0 -0.56595409204E+02  0.40336237705E+02 -0.27164635399E+02  0.74618830275E+02  0.00000000000E+00 0.  1.
</event>
<event>
12    1  0.8219652E-002  0.1938280E+03  0.7818608E-02  0.1156573E+00
         21   -1    0    0  501  502  0.00000000000E+00  0.00000000000E+00  0.47206027019E+03  0.47206027019E+03  0.00000000000E+00 0.  1.
         21   -1    0    0  502  503 -0.00000000000E+00 -0.00000000000E+00 -0.17174184710E+03  0.17174184710E+03  0.00000000000E+00 0. -1.
         -6    2    1    2    0  503 -0.88576032337E+02 -0.30953746335E+01 -0.87935393179E+02  0.21284252269E+03  0.17237752535E+03 0.  0.
        -24    2    3    3    0    0 -0.69110945650E+02  0.14908320397E+02 -0.12673264263E+03  0.16561605555E+03  0.79805603324E+02 0.  0.
          6    2    1    2  501    0  0.88576032337E+02  0.30953746335E+01  0.38825381627E+03  0.43095959459E+03  0.16471141878E+03 0.  0.
         24    2    5    5    0    0  0.94782075946E+02  0.53289416368E+02  0.30417362557E+03  0.33272759741E+03  0.79766257082E+02 0.  0.
          5    1    5    5  501    0 -0.62060436095E+01 -0.50194041734E+02  0.84080190700E+02  0.98231997185E+02  0.47000000000E+01 0. -1.
        -13    1    6    6    0    0  0.36474279443E+02  0.12945732034E+02  0.21668624047E+03  0.22011563290E+03  0.00000000000E+00 0.  1.
         14    1    6    6    0    0  0.58307796504E+02  0.40343684333E+02  0.87487385093E+02  0.11261196450E+03  0.00000000000E+00 0. -1.
         -5    1    3    3    0  503 -0.19465086687E+02 -0.18003695031E+02  0.38797249448E+02  0.47226467147E+02  0.47000000000E+01 0.  1.
         13    1    4    4    0    0 -0.73286958782E+02 -0.16733443006E+01 -0.54390166475E+02  0.91280165523E+02  0.00000000000E+00 0. -1.
        -14    1    4    4    0    0  0.41760131324E+01  0.16581664698E+02 -0.72342476152E+02  0.74335890024E+02  0.00000000000E+00 0.  1.
</event>
<event>
12    1  0.8219652E-002  0.2007264E+03  0.7818608E-02  0.1149889E+00
         21   -1    0    0  501  502  0.00000000000E+00  0.00000000000E+00  0.30286497171E+02  0.30286497171E+02  0.00000000000E+00 0.  1.
         21   -1    0    0  502  503 -0.00000000000E+00 -0.00000000000E+00 -0.13855648323E+04  0.13855648323E+04  0.00000000000E+00 0.  1.
         -6    2    1    2    0  503  0.82451029865E+02 -0.62076883008E+02 -0.84083538685E+03  0.86363521481E+03  0.16795810414E+03 0.  0.
        -24    2    3    3    0    0  0.59483230011E+02 -0.10717588700E+03 -0.61344549998E+03  0.63063373275E+03  0.79740817825E+02 0.  0.
          6    2    1    2  501    0 -0.82451029865E+02  0.62076883008E+02 -0.51444294833E+03  0.55221611471E+03  0.17216090884E+03 0.  0.
         24    2    5    5    0    0 -0.12492185375E+03  0.58271591988E+02 -0.44273102554E+03  0.46865212132E+03  0.67992660419E+02 0.  0.
          5    1    5    5  501    0  0.42470823881E+02  0.38052910200E+01 -0.71711922788E+02  0.83563993387E+02  0.47000000000E+01 0. -1.
        -11    1    6    6    0    0 -0.36436427100E+02  0.25647331899E+02 -0.25166173562E+03  0.25557587529E+03  0.00000000000E+00 0.  1.
         12    1    6    6    0    0 -0.88485426646E+02  0.32624260089E+02 -0.19106928991E+03  0.21307624603E+03  0.00000000000E+00 0. -1.
         -5    1    3    3    0  503  0.22967799854E+02  0.45099003993E+02 -0.22738988687E+03  0.23300148206E+03  0.47000000000E+01 0.  1.
         13    1    4    4    0    0  0.37140955192E+02 -0.31936638689E+02 -0.40411790582E+03  0.40707576844E+03  0.00000000000E+00 0. -1.
        -14    1    4    4    0    0  0.22342274819E+02 -0.75239248312E+02 -0.20932759416E+03  0.22355796431E+03  0.00000000000E+00 0.  1.
</event>
<event>
12    1  0.8219652E-002  0.2158243E+03  0.7818608E-02  0.1137187E+00
         21   -1    0    0  501  502  0.00000000000E+00  0.00000000000E+00  0.59364032194E+02  0.59364032194E+02  0.00000000000E+00 0.  1.
         21   -1    0    0  502  503 -0.00000000000E+00 -0.00000000000E+00 -0.78861713636E+03  0.78861713636E+03  0.00000000000E+00 0.  1.
         -6    2    1    2    0  503 -0.11936086751E+03  0.51049998048E+02 -0.40483091456E+03  0.45876815063E+03  0.17241527675E+03 0.  0.
        -24    2    3    3    0    0 -0.24559320488E+02 -0.21181519339E+02 -0.23721314970E+03  0.25304374635E+03  0.81909963925E+02 0.  0.
          6    2    1    2  501    0  0.11936086751E+03 -0.51049998048E+02 -0.32442218961E+03  0.38921301792E+03  0.17141731890E+03 0.  0.
         24    2    5    5    0    0  0.67925017873E+01  0.11235382709E+02 -0.85137910290E+02  0.11749595562E+03  0.79902840461E+02 0.  0.
          5    1    5    5  501    0  0.11256836572E+03 -0.62285380757E+02 -0.23928427932E+03  0.27171706230E+03  0.47000000000E+01 0. -1.
        -13    1    6    6    0    0  0.30195505133E+02  0.31350751991E+02 -0.71610259135E+02  0.83801356755E+02  0.00000000000E+00 0.  1.
         14    1    6    6    0    0 -0.23403003346E+02 -0.20115369282E+02 -0.13527651156E+02  0.33694598866E+02  0.00000000000E+00 0. -1.
         -5    1    3    3    0  503 -0.94801547024E+02  0.72231517387E+02 -0.16761776486E+03  0.20572440429E+03  0.47000000000E+01 0.  1.
         11    1    4    4    0    0 -0.14543968933E+02  0.29857792678E+02 -0.62812778781E+02  0.71052515748E+02  0.00000000000E+00 0. -1.
        -12    1    4    4    0    0 -0.10015351554E+02 -0.51039312017E+02 -0.17440037092E+03  0.18199123060E+03  0.00000000000E+00 0.  1.
</event>
<event>
12    1  0.8219652E-002  0.2115674E+03  0.7818608E-02  0.1140908E+00
         21   -1    0    0  501  502  0.00000000000E+00  0.00000000000E+00  0.31906657490E+03  0.31906657490E+03  0.00000000000E+00 0.  1.
         21   -1    0    0  502  503 -0.00000000000E+00 -0.00000000000E+00 -0.17937739383E+03  0.17937739383E+03  0.00000000000E+00 0. -1.
         -6    2    1    2    0  503 -0.57291818429E+01  0.12222857652E+03 -0.48962128861E+02  0.21715903110E+03  0.17259231236E+03 0.  0.
        -24    2    3    3    0    0 -0.57846692372E+01  0.68991257183E+02  0.40256702531E+02  0.11315756417E+03  0.79942330872E+02 0.  0.
          6    2    1    2  501    0  0.57291818429E+01 -0.12222857652E+03  0.18865130993E+03  0.28128493762E+03  0.16899482523E+03 0.  0.
         24    2    5    5    0    0 -0.19782599705E+02  0.52064515017E+00  0.80757846390E+02  0.11581194318E+03  0.80616090865E+02 0.  0.
          5    1    5    5  501    0  0.25511781548E+02 -0.12274922167E+03  0.10789346354E+03  0.16547299445E+03  0.47000000000E+01 0. -1.
        -13    1    6    6    0    0  0.15685243624E+02  0.43422064942E+01 -0.94408268733E+01  0.18815175705E+02  0.00000000000E+00 0.  1.
         14    1    6    6    0    0 -0.35467843328E+02 -0.38215613440E+01  0.90198673263E+02  0.96996767471E+02  0.00000000000E+00 0. -1.
         -5    1    3    3    0  503  0.55487394292E-01  0.53237319334E+02 -0.89218831392E+02  0.10400146693E+03  0.47000000000E+01 0.  1.
         13    1    4    4    0    0  0.22106899432E+02  0.64162668142E+02  0.48801916130E+02  0.83589413227E+02  0.00000000000E+00 0. -1.
        -14    1    4    4    0    0 -0.27891568669E+02  0.48285890407E+01 -0.85452135996E+01  0.29568150947E+02  0.00000000000E+00 0.  1.
</event>
<event>
12    1  0.8219652E-002  0.2285683E+03  0.7818608E-02  0.1127788E+00
         21   -1    0    0  503  502  0.00000000000E+00  0.00000000000E+00  0.54565549463E+02  0.54565549463E+02  0.00000000000E+00 0.  1.
         21   -1    0    0  501  503 -0.00000000000E+00 -0.00000000000E+00 -0.17232818437E+04  0.17232818437E+04  0.00000000000E+00 0.  1.
          6    2    1    2  501    0  0.64051050392E+02 -0.13396864044E+03 -0.14274113256E+04  0.14454747445E+04  0.17275419190E+03 0.  0.
         24    2    3    3    0    0  0.91069803655E+02 -0.99323613376E+02 -0.82897162450E+03  0.84540603444E+03  0.96739441412E+02 0.  0.
         -6    2    1    2    0  502 -0.64051050392E+02  0.13396864044E+03 -0.24130496869E+03  0.33237264873E+03  0.17376235505E+03 0.  0.
        -24    2    5    5    0    0 -0.14737747832E+02  0.40537629362E+02 -0.19782915016E+03  0.21803371207E+03  0.80881557487E+02 0.  0.
          5    1    3    3  501    0 -0.27018753263E+02 -0.34645027061E+02 -0.59843970107E+03  0.60006871001E+03  0.47000000000E+01 0. -1.
        -11    1    4    4    0    0  0.21574548601E+02 -0.16650421514E+02 -0.46374965102E+03  0.46454971371E+03  0.00000000000E+00 0.  1.
         12    1    4    4    0    0  0.69495255053E+02 -0.82673191862E+02 -0.36522197348E+03  0.38085632073E+03  0.00000000000E+00 0. -1.
         -5    1    5    5    0  502 -0.49313302560E+02  0.93431011075E+02 -0.43475818536E+02  0.11433893666E+03  0.47000000000E+01 0.  1.
         11    1    6    6    0    0  0.16546022061E+02  0.29893413204E+02 -0.25679996746E+02  0.42741656869E+02  0.00000000000E+00 0. -1.
        -12    1    6    6    0    0 -0.31283769894E+02  0.10644216159E+02 -0.17214915341E+03  0.17529205520E+03  0.00000000000E+00 0.  1.
</event>
<event>
12    1  0.8219652E-002  0.2259400E+03  0.7818608E-02  0.1130322E+00
         21   -1    0    0  501  502  0.00000000000E+00  0.00000000000E+00  0.31819134101E+03  0.31819134101E+03  0.00000000000E+00 0. -1.
         21   -1    0    0  502  503 -0.00000000000E+00 -0.00000000000E+00 -0.16345963597E+03  0.16345963597E+03  0.00000000000E+00 0.  1.
         -6    2    1    2    0  503  0.23801275174E+02  0.14200812948E+03  0.12316350000E+03  0.25351631676E+03  0.16842940834E+03 0.  0.
        -24    2    3    3    0    0 -0.10207632064E+01  0.16638954585E+03  0.11893620499E+03  0.21815324171E+03  0.75884735536E+02 0.  0.
          6    2    1    2  501    0 -0.23801275174E+02 -0.14200812948E+03  0.31568205044E+02  0.22813466021E+03  0.17411508288E+03 0.  0.
         24    2    5    5    0    0 -0.44199309683E+02 -0.33503070716E+02 -0.18938657275E+02  0.10663379302E+03  0.89084557305E+02 0.  0.
          5    1    5    5  501    0  0.20398034510E+02 -0.10850505876E+03  0.50506862319E+02  0.12150086720E+03  0.47000000000E+01 0. -1.
        -11    1    6    6    0    0 -0.19263283115E+02 -0.57590436736E+02  0.99113946021E+01  0.61530222027E+02  0.00000000000E+00 0.  1.
         12    1    6    6    0    0 -0.24936026569E+02  0.24087366020E+02 -0.28850051877E+02  0.45103570991E+02  0.00000000000E+00 0. -1.
         -5    1    3    3    0  503  0.24822038380E+02 -0.24381416373E+02  0.42272950098E+01  0.35363075047E+02  0.47000000000E+01 0.  1.
         13    1    4    4    0    0 -0.75140152756E+01  0.15463153989E+03  0.74644434875E+02  0.17186961689E+03  0.00000000000E+00 0. -1.
        -14    1    4    4    0    0  0.64932520692E+01  0.11758005963E+02  0.44291770115E+02  0.46283624821E+02  0.00000000000E+00 0.  1.
</event>
<event>
12    1  0.8219652E-002  0.1914342E+03  0.7818608E-02  0.1157639E+00
         21   -1    0    0  501  502  0.00000000000E+00  0.00000000000E+00  0.51826079054E+03  0.51826079054E+03  0.00000000000E+00 0. -1.
         21   -1    0    0  502  503 -0.00000000000E+00 -0.00000000000E+00 -0.15283576663E+03  0.15283576663E+03  0.00000000000E+00 0. -1.
         -6    2    1    2    0  503  0.37015659794E+02 -0.70858392961E+02 -0.64846254589E+02  0.20016084583E+03  0.17166320673E+03 0.  0.
        -24    2    3    3    0    0  0.87435535730E+02 -0.47029875040E+02 -0.25504092526E+02  0.13175135912E+03  0.82771854150E+02 0.  0.
          6    2    1    2  501    0 -0.37015659794E+02  0.70858392961E+02  0.43027127850E+03  0.47093571135E+03  0.17394251982E+03 0.  0.
         24    2    5    5    0    0 -0.81874249876E+02  0.86919921355E+02  0.32739298123E+03  0.35746192651E+03  0.79588939048E+02 0.  0.
          5    1    5    5  501    0  0.44858590082E+02 -0.16061528395E+02  0.10287829727E+03  0.11347378484E+03  0.47000000000E+01 0. -1.
        -13    1    6    6    0    0 -0.14304419595E+01  0.35155506302E+02  0.34235903621E+02  0.49092289459E+02  0.00000000000E+00 0.  1.
         14    1    6    6    0    0 -0.80443807917E+02  0.51764415053E+02  0.29315707761E+03  0.30836963705E+03  0.00000000000E+00 0. -1.
         -5    1    3    3    0  503 -0.50419875936E+02 -0.23828517920E+02 -0.39342162063E+02  0.68409486707E+02  0.47000000000E+01 0.  1.
         13    1    4    4    0    0  0.71583274737E+02 -0.50717155760E+02 -0.51020393615E+02  0.10148633245E+03  0.00000000000E+00 0. -1.
        -14    1    4    4    0    0  0.15852260994E+02  0.36872807196E+01  0.25516301090E+02  0.30265026665E+02  0.00000000000E+00 0.  1.
</event>
<event>
12    1  0.8219652E-002  0.1865485E+03  0.7818608E-02  0.1161664E+00
         21   -1    0    0  501  502  0.00000000000E+00  0.00000000000E+00  0.15346828794E+03  0.15346828794E+03  0.00000000000E+00 0. -1.
         21   -1    0    0  502  503 -0.00000000000E+00 -0.00000000000E+00 -0.22936349973E+03  0.22936349973E+03  0.00000000000E+00 0. -1.
         -6    2    1    2    0  503  0.66324756482E+02 -0.28661292376E+02 -0.59364494213E+02  0.19555225797E+03  0.17174428497E+03 0.  0.
        -24    2    3    3    0    0  0.68015318132E+02  0.10481781392E+02 -0.95198125843E+02  0.14224956218E+03  0.80226576237E+02 0.  0.
          6    2    1    2  501    0 -0.66324756482E+02  0.28661292376E+02 -0.16530717578E+02  0.18727952969E+03  0.17198812347E+03 0.  0.
         24    2    5    5    0    0 -0.79336460302E+02 -0.31087502346E+02  0.14703207479E+02  0.11845459975E+03  0.80960491334E+02 0.  0.
          5    1    5    5  501    0  0.13011703820E+02  0.59748794722E+02 -0.31233925057E+02  0.68824929942E+02  0.47000000000E+01 0. -1.
        -13    1    6    6    0    0 -0.20704158418E+02 -0.44693677433E+02  0.28216750791E+02  0.56765940523E+02  0.00000000000E+00 0.  1.
         14    1    6    6    0    0 -0.58632301884E+02  0.13606175087E+02 -0.13513543312E+02  0.61688659230E+02  0.00000000000E+00 0. -1.
         -5    1    3    3    0  503 -0.16905616500E+01 -0.39143073768E+02  0.35833631630E+02  0.53302695790E+02  0.47000000000E+01 0.  1.
         13    1    4    4    0    0  0.32434855434E+02 -0.30270589828E+02 -0.69265699042E+02  0.82256097156E+02  0.00000000000E+00 0. -1.
        -14    1    4    4    0    0  0.35580462698E+02  0.40752371219E+02 -0.25932426801E+02  0.59993465024E+02  0.00000000000E+00 0.  1.
</event>
<event>
12    1  0.8219652E-002  0.2092658E+03  0.7818608E-02  0.1142194E+00
         21   -1    0    0  503  502  0.00000000000E+00  0.00000000000E+00  0.21351940232E+03  0.21351940232E+03  0.00000000000E+00 0.  1.
         21   -1    0    0  501  503 -0.00000000000E+00 -0.00000000000E+00 -0.22762194393E+03  0.22762194393E+03  0.00000000000E+00 0.  1.
          6    2    1    2  501    0  0.10327532932E+03 -0.64009558443E+02 -0.76775726558E+02  0.22269205134E+03  0.17010061824E+03 0.  0.
         24    2    3    3    0    0  0.34405724944E+02 -0.83110883078E+02 -0.85606644497E+02  0.15052586729E+03  0.85078589234E+02 0.  0.
         -6    2    1    2    0  502 -0.10327532932E+03  0.64009558443E+02  0.62673184954E+02  0.21844929491E+03  0.17037942691E+03 0.  0.
        -24    2    5    5    0    0 -0.71535279840E+02 -0.21420755798E+02  0.92273089274E+01  0.11269334474E+03  0.83895778660E+02 0.  0.
          5    1    3    3  501    0  0.68869604374E+02  0.19101324635E+02  0.88309179392E+01  0.72166184055E+02  0.47000000000E+01 0. -1.
        -11    1    4    4    0    0  0.42986723351E+02 -0.93794053462E+02 -0.54836901494E+02  0.11684292283E+03  0.00000000000E+00 0.  1.
         12    1    4    4    0    0 -0.85809984075E+01  0.10683170384E+02 -0.30769743003E+02  0.33682944462E+02  0.00000000000E+00 0. -1.
         -5    1    5    5    0  502 -0.31740049478E+02  0.85430314241E+02  0.53445876027E+02  0.10575595017E+03  0.47000000000E+01 0.  1.
         13    1    6    6    0    0  0.15405389574E+02 -0.19910743208E+02 -0.63054864832E+00  0.25182559731E+02  0.00000000000E+00 0. -1.
        -14    1    6    6    0    0 -0.86940669413E+02 -0.15100125895E+01  0.98578575757E+01  0.87510785004E+02  0.00000000000E+00 0.  1.
</event>
<event>
12    1  0.8219652E-002  0.1960312E+03  0.7818608E-02  0.1154567E+00
         21   -1    0    0  503  502  0.00000000000E+00  0.00000000000E+00  0.51109286997E+02  0.51109286997E+02  0.00000000000E+00 0. -1.
         21   -1    0    0  501  503 -0.00000000000E+00 -0.00000000000E+00 -0.72948415823E+03  0.72948415823E+03  0.00000000000E+00 0. -1.
          6    2    1    2  501    0 -0.42379404181E+01  0.97472613882E+02 -0.35574178972E+03  0.40307476947E+03  0.16247516189E+03 0.  0.
         24    2    3    3    0    0  0.53604398752E+01  0.44804731556E+02 -0.72000862255E+02  0.11428931510E+03  0.76431178822E+02 0.  0.
         -6    2    1    2    0  502  0.42379404181E+01 -0.97472613882E+02 -0.32263308151E+03  0.37751867576E+03  0.17002757031E+03 0.  0.
        -24    2    5    5    0    0  0.45563102798E+02 -0.31221131483E+02 -0.94457883645E+02  0.13630706972E+03  0.81280810068E+02 0.  0.
          5    1    3    3  501    0 -0.95983802933E+01  0.52667882326E+02 -0.28374092747E+03  0.28878545437E+03  0.47000000000E+01 0. -1.
        -11    1    4    4    0    0  0.72999096647E+01 -0.12280166937E+02 -0.51753332077E+02  0.53688905392E+02  0.00000000000E+00 0.  1.
         12    1    4    4    0    0 -0.19394697895E+01  0.57084898493E+02 -0.20247530177E+02  0.60600409712E+02  0.00000000000E+00 0. -1.
         -5    1    5    5    0  502 -0.41325162380E+02 -0.66251482400E+02 -0.22817519786E+03  0.24121160604E+03  0.47000000000E+01 0.  1.
         11    1    6    6    0    0 -0.24883491081E+01 -0.23332545878E+02  0.63891471706E+01  0.24319144311E+02  0.00000000000E+00 0. -1.
        -12    1    6    6    0    0  0.48051451906E+02 -0.78885856043E+01 -0.10084703082E+03  0.11198792541E+03  0.00000000000E+00 0.  1.
</event>
<event>
12    1  0.8219652E-002  0.1793888E+03  0.7818608E-02  0.1168478E+00
         21   -1    0    0  503  502  0.00000000000E+00  0.00000000000E+00  0.34267238490E+03  0.34267238490E+03  0.00000000000E+00 0.  1.
         21   -1    0    0  501  503 -0.00000000000E+00 -0.00000000000E+00 -0.12031876614E+03  0.12031876614E+03  0.00000000000E+00 0. -1.
          6    2    1    2  501    0  0.50292260556E+02 -0.63574420216E+01  0.24396054855E+01  0.17940539322E+03  0.17207735151E+03 0.  0.
         24    2    3    3    0    0  0.12363775186E+02  0.26701444980E+02  0.59356506720E+02  0.10329308372E+03  0.79249202853E+02 0.  0.
         -6    2    1    2    0  502 -0.50292260556E+02  0.63574420216E+01  0.21991401328E+03  0.28358575781E+03  0.17172355767E+03 0.  0.
        -24    2    5    5    0    0  0.25783165282E+02 -0.14597876480E+02  0.57387995798E+02  0.10285559390E+03  0.80050118837E+02 0.  0.
          5    1    3    3  501    0  0.37928485369E+02 -0.33058887002E+02 -0.56916901235E+02  0.76112309506E+02  0.47000000000E+01 0. -1.
        -13    1    4    4    0    0  0.41887265728E+02  0.14886400658E+02  0.55728625946E+02  0.71286939229E+02  0.00000000000E+00 0.  1.
         14    1    4    4    0    0 -0.29523490542E+02  0.11815044322E+02  0.36278807744E+01  0.32006144489E+02  0.00000000000E+00 0. -1.
         -5    1    5    5    0  502 -0.76075425837E+02  0.20955318502E+02  0.16252601748E+03  0.18073016391E+03  0.47000000000E+01 0.  1.
         13    1    6    6    0    0 -0.22424301448E+02  0.11928100722E+02  0.31498795219E+01  0.25593956772E+02  0.00000000000E+00 0. -1.
        -14    1    6    6    0    0  0.48207466729E+02 -0.26525977202E+02  0.54238116277E+02  0.77261637131E+02  0.00000000000E+00 0.  1.
</event>
<event>
12    1  0.8219652E-002  0.2499765E+03  0.7818608E-02  0.1114141E+00
         21   -1    0    0  501  502  0.00000000000E+00  0.00000000000E+00  0.69755367536E+03  0.69755367536E+03  0.00000000000E+00 0.  1.
         21   -1    0    0  502  503 -0.00000000000E+00 -0.00000000000E+00 -0.10059951911E+03  0.10059951911E+03  0.00000000000E+00 0. -1.
         -6    2    1    2    0  503 -0.14066667756E+03 -0.10359545948E+03  0.15855510819E+03  0.29602020808E+03  0.17879907119E+03 0.  0.
        -24    2    3    3    0    0 -0.12792130670E+03 -0.20908285545E+02  0.55278298236E+02  0.16302470934E+03  0.81977731663E+02 0.  0.
          6    2    1    2  501    0  0.14066667756E+03  0.10359545948E+03  0.43839904806E+03  0.50213298639E+03  0.17153622729E+03 0.  0.
         24    2    5    5    0    0  0.59020675128E+02  0.31067373153E+02  0.33892605299E+03  0.35433799402E+03  0.78967859567E+02 0.  0.
          5    1    5    5  501    0  0.81646002436E+02  0.72528086323E+02  0.99472995076E+02  0.14779499237E+03  0.47000000000E+01 0. -1.
        -11    1    6    6    0    0  0.73834161193E+02  0.93118957682E+01  0.28144513854E+03  0.29111777818E+03  0.00000000000E+00 0.  1.
         12    1    6    6    0    0 -0.14813486065E+02  0.21755477385E+02  0.57480914449E+02  0.63220215845E+02  0.00000000000E+00 0. -1.
         -5    1    3    3    0  503 -0.12745370869E+02 -0.82687173931E+02  0.10327680995E+03  0.13299549874E+03  0.47000000000E+01 0.  1.
         13    1    4    4    0    0 -0.82739425750E+02  0.18336801351E+02  0.50562614395E+01  0.84897683343E+02  0.00000000000E+00 0. -1.
        -14    1    4    4    0    0 -0.45181880946E+02 -0.39245086896E+02  0.50222036796E+02  0.78127025998E+02  0.00000000000E+00 0.  1.
</event>
<event>
12    1  0.8219652E-002  0.2779572E+03  0.7818608E-02  0.1097290E+00
         21   -1    0    0  503  502  0.00000000000E+00  0.00000000000E+00  0.28075924293E+03  0.28075924293E+03  0.00000000000E+00 0. -1.
         21   -1    0    0  501  503 -0.00000000000E+00 -0.00000000000E+00 -0.30791428745E+03  0.30791428745E+03  0.00000000000E+00 0. -1.
          6    2    1    2  501    0  0.13774006954E+03  0.16853363710E+03  0.87192986658E+02  0.29131221678E+03  0.17287069483E+03 0.  0.
         24    2    3    3    0    0  0.53143612294E+02  0.11617704487E+03  0.11234215675E+03  0.18858761366E+03  0.81382913205E+02 0.  0.
         -6    2    1    2    0  502 -0.13774006954E+03 -0.16853363710E+03 -0.11434803118E+03  0.29736131360E+03  0.16724940956E+03 0.  0.
        -24    2    5    5    0    0 -0.12507328636E+03 -0.13519628112E+03 -0.14942175638E+03  0.24712106181E+03  0.69430515785E+02 0.  0.
          5    1    3    3  501    0  0.84596457251E+02  0.52356592232E+02 -0.25149170091E+02  0.10272460312E+03  0.47000000000E+01 0. -1.
        -13    1    4    4    0    0  0.96544542213E+01  0.10643608551E+03  0.77430232777E+02  0.13197457988E+03  0.00000000000E+00 0.  1.
         14    1    4    4    0    0  0.43489158073E+02  0.97409593568E+01  0.34911923972E+02  0.56613033786E+02  0.00000000000E+00 0. -1.
         -5    1    5    5    0  502 -0.12666783188E+02 -0.33337355987E+02  0.35073725203E+02  0.50240251792E+02  0.47000000000E+01 0.  1.
         11    1    6    6    0    0 -0.34632510988E+02 -0.77534619759E+02 -0.39895290318E+02  0.93822504060E+02  0.00000000000E+00 0. -1.
        -12    1    6    6    0    0 -0.90440775369E+02 -0.57661661357E+02 -0.10952646607E+03  0.15329855775E+03  0.00000000000E+00 0.  1.
</event>
<event>
12    1  0.8219652E-002  0.2269539E+03  0.7818608E-02  0.1129932E+00
         21   -1    0    0  501  502  0.00000000000E+00  0.00000000000E+00  0.34583908079E+03  0.34583908079E+03  0.00000000000E+00 0.  1.
         21   -1    0    0  502  503 -0.00000000000E+00 -0.00000000000E+00 -0.15155380033E+03  0.15155380033E+03  0.00000000000E+00 0.  1.
         -6    2    1    2    0  503  0.63158549299E+02  0.12342876899E+03  0.43691456271E+02  0.22502079352E+03  0.17176073708E+03 0.  0.
        -24    2    3    3    0    0  0.10544963138E+03  0.12144713151E+03  0.32681512674E+02  0.18102339168E+03  0.76369866789E+02 0.  0.
          6    2    1    2  501    0 -0.63158549299E+02 -0.12342876899E+03  0.15059382419E+03  0.27237208760E+03  0.17967857650E+03 0.  0.
         24    2    5    5    0    0 -0.10452446699E+03 -0.12120263440E+03  0.14967748163E+03  0.23067047485E+03  0.72042186754E+02 0.  0.
          5    1    5    5  501    0  0.41365917696E+02 -0.22261345923E+01  0.91634255184E+00  0.41701612747E+02  0.47000000000E+01 0. -1.
        -11    1    6    6    0    0 -0.42840478607E+02 -0.25613523408E+02  0.10663151655E+02  0.51039807914E+02  0.00000000000E+00 0.  1.
         12    1    6    6    0    0 -0.61683988388E+02 -0.95589110994E+02  0.13901432998E+03  0.17963066694E+03  0.00000000000E+00 0. -1.
         -5    1    3    3    0  503 -0.42291082082E+02  0.19816374798E+01  0.11009943597E+02  0.43997401841E+02  0.47000000000E+01 0.  1.
         11    1    4    4    0    0  0.22150452945E+02  0.75355185955E+02 -0.48465657634E+01  0.78692666848E+02  0.00000000000E+00 0. -1.
        -12    1    4    4    0    0  0.83299178436E+02  0.46091945560E+02  0.37528078437E+02  0.10233072483E+03  0.00000000000E+00 0.  1.
</event>
<event>
12    1  0.8219652E-002  0.1996231E+03  0.7818608E-02  0.1150432E+00
         21   -1    0    0  503  502  0.00000000000E+00  0.00000000000E+00  0.38604950081E+03  0.38604950081E+03  0.00000000000E+00 0. -1.
         21   -1    0    0  501  503 -0.00000000000E+00 -0.00000000000E+00 -0.10844424848E+03  0.10844424848E+03  0.00000000000E+00 0. -1.
          6    2    1    2  501    0 -0.78433343188E+02  0.57996228716E+02  0.19700265740E+03  0.27921217658E+03  0.17214540557E+03 0.  0.
         24    2    3    3    0    0 -0.44993358157E+02  0.13164399487E+02  0.20302765704E+03  0.22276294159E+03  0.78774329140E+02 0.  0.
         -6    2    1    2    0  502  0.78433343188E+02 -0.57996228716E+02  0.80602594931E+02  0.21528157271E+03  0.17416665976E+03 0.  0.
        -24    2    5    5    0    0  0.98991054308E+02 -0.83723185649E+02  0.34861900252E+02  0.15872366479E+03  0.84670236954E+02 0.  0.
          5    1    3    3  501    0 -0.33439985031E+02  0.44831829229E+02 -0.60249996350E+01  0.56449234994E+02  0.47000000000E+01 0. -1.
        -11    1    4    4    0    0 -0.30356837088E+02  0.60791056719E+01  0.15667025254E+02  0.34697964840E+02  0.00000000000E+00 0.  1.
         12    1    4    4    0    0 -0.14636521069E+02  0.70852938152E+01  0.18736063178E+03  0.18806497675E+03  0.00000000000E+00 0. -1.
         -5    1    5    5    0  502 -0.20557711120E+02  0.25726956933E+02  0.45740694678E+02  0.56557907928E+02  0.47000000000E+01 0.  1.
         13    1    6    6    0    0  0.28052088119E+02 -0.77335081590E+02  0.82089925840E+01  0.82674192174E+02  0.00000000000E+00 0. -1.
        -14    1    6    6    0    0  0.70938966189E+02 -0.63881040585E+01  0.26652907668E+02  0.76049472612E+02  0.00000000000E+00 0.  1.
</event>
<event>
12    1  0.8219652E-002  0.1835935E+03  0.7818608E-02  0.1165381E+00
         21   -1    0    0  503  502  0.00000000000E+00  0.00000000000E+00  0.22496460462E+03  0.22496460462E+03  0.00000000000E+00 0. -1.
         21   -1    0    0  501  503 -0.00000000000E+00 -0.00000000000E+00 -0.14660633074E+03  0.14660633074E+03  0.00000000000E+00 0. -1.
          6    2    1    2  501    0 -0.18241504116E+02 -0.66505545184E+02  0.46681964283E+02  0.18943540600E+03  0.17014942623E+03 0.  0.
         24    2    3    3    0    0  0.16342457331E+02  0.22879484049E+02  0.20137838379E+02  0.89874296828E+02  0.82953661726E+02 0.  0.
         -6    2    1    2    0  502  0.18241504116E+02  0.66505545184E+02  0.31676309602E+02  0.18213552936E+03  0.16557240848E+03 0.  0.
        -24    2    5    5    0    0  0.16331847770E+02  0.10906341938E+03  0.25569748022E+02  0.13884350309E+03  0.80387484336E+02 0.  0.
          5    1    3    3  501    0 -0.34583961447E+02 -0.89385029232E+02  0.26544125904E+02  0.99561109175E+02  0.47000000000E+01 0. -1.
        -11    1    4    4    0    0  0.12329325628E+02 -0.65371453941E+01 -0.29159706297E+02  0.32327001279E+02  0.00000000000E+00 0.  1.
         12    1    4    4    0    0  0.40131317032E+01  0.29416629443E+02  0.49297544677E+02  0.57547295549E+02  0.00000000000E+00 0. -1.
         -5    1    5    5    0  502  0.19096563467E+01 -0.42557874199E+02  0.61065615799E+01  0.43292026264E+02  0.47000000000E+01 0.  1.
         11    1    6    6    0    0  0.13053187126E+01  0.50251895734E+02 -0.28298699243E+02  0.57686855181E+02  0.00000000000E+00 0. -1.
        -12    1    6    6    0    0  0.15026529057E+02  0.58811523648E+02  0.53868447265E+02  0.81156647911E+02  0.00000000000E+00 0.  1.
</event>
<event>
12    1  0.8219652E-002  0.1772758E+03  0.7818608E-02  0.1170524E+00
         21   -1    0    0  503  502  0.00000000000E+00  0.00000000000E+00  0.22647048181E+04  0.22647048181E+04  0.00000000000E+00 0.  1.
         21   -1    0    0  501  503 -0.00000000000E+00 -0.00000000000E+00 -0.17652121287E+02  0.17652121287E+02  0.00000000000E+00 0.  1.
          6    2    1    2  501    0 -0.95465439858E+01 -0.40860779572E+02  0.59390492687E+03  0.61973122288E+03  0.17199705415E+03 0.  0.
         24    2    3    3    0    0 -0.69451148006E+02 -0.21317575039E+02  0.29553631893E+03  0.31474529758E+03  0.80280667506E+02 0.  0.
         -6    2    1    2    0  502  0.95465439858E+01  0.40860779572E+02  0.16531477699E+04  0.16626257165E+04  0.17223816107E+03 0.  0.
        -24    2    5    5    0    0 -0.31701501837E+02  0.20091681745E+02  0.14943823595E+04  0.14972131951E+04  0.84024128040E+02 0.  0.
          5    1    3    3  501    0  0.59904604020E+02 -0.19543204533E+02  0.29836860794E+03  0.30498592530E+03  0.47000000000E+01 0. -1.
        -13    1    4    4    0    0  0.14956635986E+02 -0.16888419116E+02  0.83202505197E+02  0.86206592157E+02  0.00000000000E+00 0.  1.
         14    1    4    4    0    0 -0.84407783992E+02 -0.44291559232E+01  0.21233381374E+03  0.22853870542E+03  0.00000000000E+00 0. -1.
         -5    1    5    5    0  502  0.41248045822E+02  0.20769097828E+02  0.15876541036E+03  0.16541252140E+03  0.47000000000E+01 0.  1.
         13    1    6    6    0    0 -0.13856211266E+02 -0.33001858026E+02  0.63395341492E+03  0.63496303003E+03  0.00000000000E+00 0. -1.
        -14    1    6    6    0    0 -0.17845290570E+02  0.53093539771E+02  0.86042894463E+03  0.86225016504E+03  0.00000000000E+00 0.  1.
</event>
<event>
12    1  0.8219652E-002  0.2074603E+03  0.7818608E-02  0.1143729E+00
         21   -1    0    0  503  502  0.00000000000E+00  0.00000000000E+00  0.11000989249E+03  0.11000989249E+03  0.00000000000E+00 0. -1.
         21   -1    0    0  501  503 -0.00000000000E+00 -0.00000000000E+00 -0.57680435717E+03  0.57680435717E+03  0.00000000000E+00 0. -1.
          6    2    1    2  501    0 -0.38201570320E+02  0.10918302952E+03 -0.42858881242E+03  0.47586534265E+03  0.17140350139E+03 0.  0.
         24    2    3    3    0    0  0.14287436310E+02  0.95909115966E+01 -0.10315704646E+03  0.13147949790E+03  0.79682907269E+02 0.  0.
         -6    2    1    2    0  502  0.38201570320E+02 -0.10918302952E+03 -0.38205652258E+02  0.21094890701E+03  0.17221926603E+03 0.  0.
        -24    2    5    5    0    0  0.70342166374E+02 -0.60832520664E+02  0.25165997713E+02  0.12487425545E+03  0.79445807263E+02 0.  0.
          5    1    3    3  501    0 -0.52489006630E+02  0.99592117925E+02 -0.32543176596E+03  0.34438584475E+03  0.47000000000E+01 0. -1.
        -11    1    4    4    0    0 -0.95288730709E+01  0.31231853988E+02 -0.11965199689E+02  0.34776344390E+02  0.00000000000E+00 0.  1.
         12    1    4    4    0    0  0.23816309381E+02 -0.21640942392E+02 -0.91191846775E+02  0.96703153508E+02  0.00000000000E+00 0. -1.
         -5    1    5    5    0  502 -0.32140596054E+02 -0.48350508858E+02 -0.63371649971E+02  0.86074651562E+02  0.47000000000E+01 0.  1.
         11    1    6    6    0    0  0.51398988013E+02 -0.73181916314E+02  0.39856751734E+02  0.97908168724E+02  0.00000000000E+00 0. -1.
        -12    1    6    6    0    0  0.18943178361E+02  0.12349395651E+02 -0.14690754021E+02  0.26966086721E+02  0.00000000000E+00 0.  1.
</event>
<event>
12    1  0.8219652E-002  0.1932932E+03  0.7818608E-02  0.1157283E+00
         21   -1    0    0  503  502  0.00000000000E+00  0.00000000000E+00  0.39688189199E+03  0.39688189199E+03  0.00000000000E+00 0. -1.
         21   -1    0    0  501  503 -0.00000000000E+00 -0.00000000000E+00 -0.13618465589E+03  0.13618465589E+03  0.00000000000E+00 0. -1.
          6    2    1    2  501    0  0.33758907644E+02  0.62073259873E+02 -0.25991227817E+02  0.18730286690E+03  0.17150529610E+03 0.  0.
         24    2    3    3    0    0 -0.12619617629E+02  0.37378650493E+02  0.43743727784E+02  0.99862342132E+02  0.80638423806E+02 0.  0.
         -6    2    1    2    0  502 -0.33758907644E+02 -0.62073259873E+02  0.28668846392E+03  0.34576368098E+03  0.17991524200E+03 0.  0.
        -24    2    5    5    0    0 -0.29176931956E+02 -0.11398781676E+02  0.41488900607E+02  0.95296491333E+02  0.79867808313E+02 0.  0.
          5    1    3    3  501    0  0.46378525273E+02  0.24694609381E+02 -0.69734955601E+02  0.87440524768E+02  0.47000000000E+01 0. -1.
        -11    1    4    4    0    0  0.15651158172E+02  0.53732544322E+02  0.35157735709E+02  0.66092446252E+02  0.00000000000E+00 0.  1.
         12    1    4    4    0    0 -0.28270775801E+02 -0.16353893830E+02  0.85859920752E+01  0.33769895879E+02  0.00000000000E+00 0. -1.
         -5    1    5    5    0  502 -0.45819756881E+01 -0.50674478198E+02  0.24519956331E+03  0.25046718965E+03  0.47000000000E+01 0.  1.
         11    1    6    6    0    0 -0.46019450155E+02 -0.22825066667E+02  0.51391484437E+02  0.72662632305E+02  0.00000000000E+00 0. -1.
        -12    1    6    6    0    0  0.16842518199E+02  0.11426284991E+02 -0.99025838298E+01  0.22633859028E+02  0.00000000000E+00 0.  1.
</event>
<event>
12    1  0.8219652E-002  0.1916680E+03  0.7818608E-02  0.1157394E+00
         21   -1    0    0  503  502  0.00000000000E+00  0.00000000000E+00  0.92437449626E+03  0.92437449626E+03  0.00000000000E+00 0. -1.
         21   -1    0    0  501  503 -0.00000000000E+00 -0.00000000000E+00 -0.72285133153E+02  0.72285133153E+02  0.00000000000E+00 0. -1.
          6    2    1    2  501    0 -0.59458022736E+02 -0.51173091078E+02  0.88492247321E+02  0.20937494162E+03  0.17278034213E+03 0.  0.
         24    2    3    3    0    0 -0.56887769732E+02 -0.89433463367E+02  0.25770059324E+02  0.13570931086E+03  0.80736351061E+02 0.  0.
         -6    2    1    2    0  502  0.59458022736E+02  0.51173091078E+02  0.76359711579E+03  0.78728468779E+03  0.17487905155E+03 0.  0.
        -24    2    5    5    0    0  0.58678506056E+02  0.96039833293E+01  0.20601157506E+03  0.22813146765E+03  0.77896045497E+02 0.  0.
          5    1    3    3  501    0 -0.25702530042E+01  0.38260372289E+02  0.62722187997E+02  0.73665630761E+02  0.47000000000E+01 0. -1.
        -13    1    4    4    0    0 -0.18250636878E+02 -0.58718375933E+02  0.51354945735E+02  0.80114067867E+02  0.00000000000E+00 0.  1.
         14    1    4    4    0    0 -0.38637132854E+02 -0.30715087434E+02 -0.25584886411E+02  0.55595242997E+02  0.00000000000E+00 0. -1.
         -5    1    5    5    0  502  0.77951668074E+00  0.41569107749E+02  0.55758554073E+03  0.55915322014E+03  0.47000000000E+01 0.  1.
         13    1    6    6    0    0 -0.17808806387E+02 -0.72739228851E+01  0.49698278462E+02  0.53291485447E+02  0.00000000000E+00 0. -1.
        -14    1    6    6    0    0  0.76487312443E+02  0.16877906214E+02  0.15631329659E+03  0.17483998220E+03  0.00000000000E+00 0.  1.
</event>
<event>
12    1  0.8219652E-002  0.2645933E+03  0.7818608E-02  0.1106244E+00
         21   -1    0    0  501  502  0.00000000000E+00  0.00000000000E+00  0.10706017355E+04  0.10706017355E+04  0.00000000000E+00 0.  1.
         21   -1    0    0  502  503 -0.00000000000E+00 -0.00000000000E+00 -0.66727905623E+02  0.66727905623E+02  0.00000000000E+00 0.  1.
         -6    2    1    2    0  503  0.11300494789E+03 -0.14655116575E+03  0.34651860275E+03  0.42872151038E+03  0.17169632778E+03 0.  0.
        -24    2    3    3    0    0  0.53664265210E+02 -0.14143918519E+03  0.32126341673E+03  0.36385731850E+03  0.79354072581E+02 0.  0.
          6    2    1    2  501    0 -0.11300494789E+03  0.14655116575E+03  0.65735522710E+03  0.70860813073E+03  0.18910903178E+03 0.  0.
         24    2    5    5    0    0 -0.73649306751E+02  0.51819469105E+01  0.25493917106E+03  0.28024508997E+03  0.89956970562E+02 0.  0.
          5    1    5    5  501    0 -0.39355641137E+02  0.14136921884E+03  0.40241605604E+03  0.42836304076E+03  0.47000000000E+01 0. -1.
        -13    1    6    6    0    0 -0.55131972445E+02  0.33524619315E+02  0.22807329461E+03  0.23702502442E+03  0.00000000000E+00 0.  1.
         14    1    6    6    0    0 -0.18517334305E+02 -0.28342672405E+02  0.26865876449E+02  0.43220065551E+02  0.00000000000E+00 0. -1.
         -5    1    3    3    0  503  0.59340682678E+02 -0.51119805686E+01  0.25255186026E+02  0.64864191872E+02  0.47000000000E+01 0.  1.
         13    1    4    4    0    0 -0.16818150347E+02 -0.56677433187E+02  0.90257018366E+02  0.10789583392E+03  0.00000000000E+00 0. -1.
        -14    1    4    4    0    0  0.70482415558E+02 -0.84761751998E+02  0.23100639836E+03  0.25596148458E+03  0.00000000000E+00 0.  1.
</event>
<event>
12    1  0.8219652E-002  0.2226551E+03  0.7818608E-02  0.1132447E+00
         21   -1    0    0  503  502  0.00000000000E+00  0.00000000000E+00  0.22829922943E+03  0.22829922943E+03  0.00000000000E+00 0.  1.
         21   -1    0    0  501  503 -0.00000000000E+00 -0.00000000000E+00 -0.47225958030E+03  0.47225958030E+03  0.00000000000E+00 0. -1.
          6    2    1    2  501    0 -0.72779503299E+02  0.11882526732E+03 -0.38046436547E+03  0.43939096912E+03  0.16998526435E+03 0.  0.
         24    2    3    3    0    0 -0.20847125046E+02  0.12075211933E+03 -0.35151542011E+03  0.37971839496E+03  0.74881853263E+02 0.  0.
         -6    2    1    2    0  502  0.72779503299E+02 -0.11882526732E+03  0.13650401460E+03  0.26116784061E+03  0.17366345243E+03 0.  0.
        -24    2    5    5    0    0  0.57656192370E+00 -0.10745800673E+03  0.13290713890E+03  0.18783635439E+03  0.77914265864E+02 0.  0.
          5    1    3    3  501    0 -0.51932378253E+02 -0.19268520124E+01 -0.28948945361E+02  0.59672574163E+02  0.47000000000E+01 0. -1.
        -11    1    4    4    0    0  0.20211797387E+02  0.20807929667E+02 -0.36108880081E+02  0.46317792600E+02  0.00000000000E+00 0.  1.
         12    1    4    4    0    0 -0.41058922433E+02  0.99944189666E+02 -0.31540654003E+03  0.33340060236E+03  0.00000000000E+00 0. -1.
         -5    1    5    5    0  502  0.72202941375E+02 -0.11367260589E+02  0.35968757030E+01  0.73331486220E+02  0.47000000000E+01 0.  1.
         11    1    6    6    0    0 -0.24235334227E+02 -0.23514003944E+01  0.19120395378E+02  0.30959167113E+02  0.00000000000E+00 0. -1.
        -12    1    6    6    0    0  0.24811896151E+02 -0.10510660634E+03  0.11378674352E+03  0.15687718727E+03  0.00000000000E+00 0.  1.
</event>
<event>
12    1  0.8219652E-002  0.1949390E+03  0.7818608E-02  0.1154580E+00
         21   -1    0    0  501  502  0.00000000000E+00  0.00000000000E+00  0.45118416023E+03  0.45118416023E+03  0.00000000000E+00 0. -1.
         21   -1    0    0  502  503 -0.00000000000E+00 -0.00000000000E+00 -0.10068088699E+03  0.10068088699E+03  0.00000000000E+00 0. -1.
         -6    2    1    2    0  503 -0.88745235391E+02  0.19263577413E+01  0.29093165779E+03  0.35020345516E+03  0.17355633910E+03 0.  0.
        -24    2    3    3    0    0 -0.81186346313E+02  0.58837850447E+02  0.24870940620E+03  0.27878312657E+03  0.76226947040E+02 0.  0.
          6    2    1    2  501    0  0.88745235391E+02 -0.19263577413E+01  0.59571615457E+02  0.20166159207E+03  0.17099471538E+03 0.  0.
         24    2    5    5    0    0  0.64325443215E+02 -0.41171159261E+02  0.91937871496E+02  0.14503875899E+03  0.82163510108E+02 0.  0.
          5    1    5    5  501    0  0.24419792176E+02  0.39244801519E+02 -0.32366256039E+02  0.56622833082E+02  0.47000000000E+01 0. -1.
        -11    1    6    6    0    0  0.10640431544E+02 -0.30028943978E+02  0.83746034375E+02  0.89601085560E+02  0.00000000000E+00 0.  1.
         12    1    6    6    0    0  0.53685011670E+02 -0.11142215283E+02  0.81918371209E+01  0.55437673426E+02  0.00000000000E+00 0. -1.
         -5    1    3    3    0  503 -0.75588890783E+01 -0.56911492706E+02  0.42222251584E+02  0.71420328583E+02  0.47000000000E+01 0.  1.
         13    1    4    4    0    0 -0.89497191719E+02  0.28320675364E+02  0.17534009852E+03  0.19888679727E+03  0.00000000000E+00 0. -1.
        -14    1    4    4    0    0  0.83108454064E+01  0.30517175083E+02  0.73369307684E+02  0.79896329305E+02  0.00000000000E+00 0.  1.
</event>
<event>
12    1  0.8219652E-002  0.4063193E+03  0.7818608E-02  0.1041836E+00
         21   -1    0    0  501  502  0.00000000000E+00  0.00000000000E+00  0.16962459064E+03  0.16962459064E+03  0.00000000000E+00 0. -1.
         21   -1    0    0  502  503 -0.00000000000E+00 -0.00000000000E+00 -0.13536936151E+04  0.13536936151E+04  0.00000000000E+00 0.  1.
         -6    2    1    2    0  503 -0.32337475752E+03  0.17280432284E+03 -0.10004638367E+04  0.10798255607E+04  0.17510792455E+03 0.  0.
        -24    2    3    3    0    0 -0.14268847956E+03  0.12068095993E+03 -0.66096451017E+03  0.69169380639E+03  0.81500563189E+02 0.  0.
          6    2    1    2  501    0  0.32337475752E+03 -0.17280432284E+03 -0.18360518784E+03  0.44349264511E+03  0.16894464617E+03 0.  0.
         24    2    5    5    0    0  0.24494235780E+03 -0.13852088621E+03 -0.20265560040E+03  0.35567463117E+03  0.79059195052E+02 0.  0.
          5    1    5    5  501    0  0.78432399724E+02 -0.34283436630E+02  0.19050412561E+02  0.87818013940E+02  0.47000000000E+01 0. -1.
        -11    1    6    6    0    0  0.15879530095E+03 -0.45261436682E+02 -0.12129146993E+03  0.20488085790E+03  0.00000000000E+00 0.  1.
         12    1    6    6    0    0  0.86147056841E+02 -0.93259449529E+02 -0.81364130473E+02  0.15079377327E+03  0.00000000000E+00 0. -1.
         -5    1    3    3    0  503 -0.18068627796E+03  0.52123362913E+02 -0.33949932648E+03  0.38813175428E+03  0.47000000000E+01 0.  1.
         11    1    4    4    0    0 -0.80539661793E+02  0.45280987194E+02 -0.19754348546E+03  0.21808354722E+03  0.00000000000E+00 0. -1.
        -12    1    4    4    0    0 -0.62148817768E+02  0.75399972734E+02 -0.46342102472E+03  0.47361025917E+03  0.00000000000E+00 0.  1.
</event>
<event>
12    1  0.8219652E-002  0.2155211E+03  0.7818608E-02  0.1137387E+00
         21   -1    0    0  501  502  0.00000000000E+00  0.00000000000E+00  0.12805291706E+03  0.12805291706E+03  0.00000000000E+00 0.  1.
         21   -1    0    0  502  503 -0.00000000000E+00 -0.00000000000E+00 -0.53844313575E+03  0.53844313575E+03  0.00000000000E+00 0.  1.
         -6    2    1    2    0  503 -0.12824337350E+03 -0.29144320908E+02 -0.39593123583E+03  0.45049045098E+03  0.16995396032E+03 0.  0.
        -24    2    3    3    0    0 -0.84887192990E+01  0.84823320841E+01 -0.20093073579E+03  0.21853306861E+03  0.85085446335E+02 0.  0.
          6    2    1    2  501    0  0.12824337350E+03  0.29144320908E+02 -0.14458982863E+02  0.21600560182E+03  0.17074426358E+03 0.  0.
         24    2    5    5    0    0  0.14962406975E+03 -0.29528842131E+01 -0.33115091927E+02  0.17290681815E+03  0.80025475183E+02 0.  0.
          5    1    5    5  501    0 -0.21380696243E+02  0.32097205121E+02  0.18656109064E+02  0.43098783670E+02  0.47000000000E+01 0. -1.
        -13    1    6    6    0    0  0.10677357809E+03 -0.81788048012E+01  0.15150857744E+02  0.10815284701E+03  0.00000000000E+00 0.  1.
         14    1    6    6    0    0  0.42850491655E+02  0.52259205881E+01 -0.48265949671E+02  0.64753971142E+02  0.00000000000E+00 0. -1.
         -5    1    3    3    0  503 -0.11975465420E+03 -0.37626652992E+02 -0.19500050003E+03  0.23195738236E+03  0.47000000000E+01 0.  1.
         11    1    4    4    0    0 -0.70183331259E+01 -0.15986031047E+02 -0.14137847997E+01  0.17515963461E+02  0.00000000000E+00 0. -1.
        -12    1    4    4    0    0 -0.14703861732E+01  0.24468363131E+02 -0.19951695099E+03  0.20101710515E+03  0.00000000000E+00 0.  1.
</event>
<event>
12    1  0.8219652E-002  0.1888379E+03  0.7818608E-02  0.1159516E+00
         21   -1    0    0  503  502  0.00000000000E+00  0.00000000000E+00  0.98061968245E+03  0.98061968245E+03  0.00000000000E+00 0.  1.
         21   -1    0    0  501  503 -0.00000000000E+00 -0.00000000000E+00 -0.50999508506E+02  0.50999508506E+02  0.00000000000E+00 0.  1.
          6    2    1    2  501    0  0.71452592661E+02  0.33334842464E+02  0.18846735810E+03  0.26678767232E+03  0.17157806478E+03 0.  0.
         24    2    3    3    0    0  0.10204610714E+03  0.61047154672E+02  0.16696047466E+03  0.22000550252E+03  0.79915317459E+02 0.  0.
         -6    2    1    2    0  502 -0.71452592661E+02 -0.33334842464E+02  0.74115281585E+03  0.76483151864E+03  0.17158983286E+03 0.  0.
        -24    2    5    5    0    0  0.21848648720E+02 -0.43566105308E+02  0.35508136616E+03  0.36748651157E+03  0.81167669698E+02 0.  0.
          5    1    3    3  501    0 -0.30593514478E+02 -0.27712312208E+02  0.21506883436E+02  0.46782169800E+02  0.47000000000E+01 0. -1.
        -13    1    4    4    0    0  0.25524087927E+02  0.37215037212E+02  0.11739572888E+03  0.12577040677E+03  0.00000000000E+00 0.  1.
         14    1    4    4    0    0  0.76522019212E+02  0.23832117459E+02  0.49564745777E+02  0.94235095749E+02  0.00000000000E+00 0. -1.
         -5    1    5    5    0  502 -0.93301241381E+02  0.10231262845E+02  0.38607144969E+03  0.39734500707E+03  0.47000000000E+01 0.  1.
         11    1    6    6    0    0 -0.84508899933E+01 -0.66294078846E+01  0.16810454805E+01  0.10871637617E+02  0.00000000000E+00 0. -1.
        -12    1    6    6    0    0  0.30299538714E+02 -0.36936697424E+02  0.35340032068E+03  0.35661487395E+03  0.00000000000E+00 0.  1.
</event>
<event>
12    1  0.8219652E-002  0.2039742E+03  0.7818608E-02  0.1146705E+00
         21   -1    0    0  503  502  0.00000000000E+00  0.00000000000E+00  0.65774717600E+02  0.65774717600E+02  0.00000000000E+00 0.  1.
         21   -1    0    0  501  503 -0.00000000000E+00 -0.00000000000E+00 -0.65686366841E+03  0.65686366841E+03  0.00000000000E+00 0.  1.
          6    2    1    2  501    0 -0.10721691746E+03 -0.45025423001E+01 -0.36983050612E+03  0.42170524322E+03  0.17188649926E+03 0.  0.
         24    2    3    3    0    0 -0.50296336015E+02  0.12102786481E+02 -0.75251162696E+02  0.12118108595E+03  0.79661278214E+02 0.  0.
         -6    2    1    2    0  502  0.10721691746E+03  0.45025423001E+01 -0.22125844469E+03  0.30093314279E+03  0.17346387751E+03 0.  0.
        -24    2    5    5    0    0  0.11569742312E+03  0.53543913653E+02 -0.19231107580E+03  0.24316623837E+03  0.76768647255E+02 0.  0.
          5    1    3    3  501    0 -0.56920581450E+02 -0.16605328781E+02 -0.29457934342E+03  0.30052415728E+03  0.47000000000E+01 0. -1.
        -13    1    4    4    0    0 -0.68417834058E+02  0.67966616189E+01 -0.35965687353E+02  0.77593332788E+02  0.00000000000E+00 0.  1.
         14    1    4    4    0    0  0.18121498043E+02  0.53061248624E+01 -0.39285475343E+02  0.43587753157E+02  0.00000000000E+00 0. -1.
         -5    1    5    5    0  502 -0.84805056515E+01 -0.49041371353E+02 -0.28947368887E+02  0.57766904415E+02  0.47000000000E+01 0.  1.
         11    1    6    6    0    0  0.12928394321E+02 -0.18924076039E+02 -0.33690441395E+02  0.40746900189E+02  0.00000000000E+00 0. -1.
        -12    1    6    6    0    0  0.10276902880E+03  0.72467989692E+02 -0.15862063441E+03  0.20241933818E+03  0.00000000000E+00 0.  1.
</event>
<event>
12    1  0.8219652E-002  0.1807057E+03  0.7818608E-02  0.1168114E+00
         21   -1    0    0  503  502  0.00000000000E+00  0.00000000000E+00  0.17726950617E+04  0.17726950617E+04  0.00000000000E+00 0.  1.
         21   -1    0    0  501  503 -0.00000000000E+00 -0.00000000000E+00 -0.11413255212E+03  0.11413255212E+03  0.00000000000E+00 0.  1.
          6    2    1    2  501    0  0.46981538162E+02 -0.38172852423E+02 -0.35012379669E+02  0.18406635282E+03  0.17026486402E+03 0.  0.
         24    2    3    3    0    0  0.19198696316E+01  0.33293504688E+02 -0.47038633952E+02  0.98598727599E+02  0.79980826741E+02 0.  0.
         -6    2    1    2    0  502 -0.46981538162E+02  0.38172852423E+02  0.16935748893E+04  0.17027612611E+04  0.16593846721E+03 0.  0.
        -24    2    5    5    0    0 -0.50753837346E+02  0.16501334635E+02  0.50491068579E+03  0.51388424318E+03  0.79334536719E+02 0.  0.
          5    1    3    3  501    0  0.45061668530E+02 -0.71466357110E+02  0.12026254282E+02  0.85467625224E+02  0.47000000000E+01 0. -1.
        -13    1    4    4    0    0 -0.33608867946E+02  0.17222795495E+02 -0.34803721433E+00  0.37766411257E+02  0.00000000000E+00 0.  1.
         14    1    4    4    0    0  0.35528737578E+02  0.16070709192E+02 -0.46690596737E+02  0.60832316342E+02  0.00000000000E+00 0. -1.
         -5    1    5    5    0  502  0.37722991843E+01  0.21671517788E+02  0.11886642035E+04  0.11888770179E+04  0.47000000000E+01 0.  1.
         13    1    6    6    0    0  0.53940636759E+01  0.27020975604E+02  0.29678298765E+03  0.29805934108E+03  0.00000000000E+00 0. -1.
        -14    1    6    6    0    0 -0.56147901022E+02 -0.10519640969E+02  0.20812769814E+03  0.21582490210E+03  0.00000000000E+00 0.  1.
</event>
<event>
12    1  0.8219652E-002  0.1929031E+03  0.7818608E-02  0.1156317E+00
         21   -1    0    0  501  502  0.00000000000E+00  0.00000000000E+00  0.75973082725E+03  0.75973082725E+03  0.00000000000E+00 0.  1.
         21   -1    0    0  502  503 -0.00000000000E+00 -0.00000000000E+00 -0.71321113531E+02  0.71321113531E+02  0.00000000000E+00 0.  1.
         -6    2    1    2    0  503 -0.75582151780E+02  0.43603567060E+02  0.11022918843E+03  0.22217575872E+03  0.17203970777E+03 0.  0.
        -24    2    3    3    0    0 -0.29524111185E+02  0.57063620215E+01 -0.10009144778E+02  0.87874276870E+02  0.81960172324E+02 0.  0.
          6    2    1    2  501    0  0.75582151780E+02 -0.43603567060E+02  0.57818052528E+03  0.60887618206E+03  0.16977500563E+03 0.  0.
         24    2    5    5    0    0  0.37211447204E+02 -0.67979416189E+02  0.20916989667E+03  0.23704634596E+03  0.80206181986E+02 0.  0.
          5    1    5    5  501    0  0.38370704576E+02  0.24375849129E+02  0.36901062861E+03  0.37182983610E+03  0.47000000000E+01 0. -1.
        -13    1    6    6    0    0  0.19099889242E+02 -0.65244367201E+02  0.20784619535E+03  0.21868167308E+03  0.00000000000E+00 0.  1.
         14    1    6    6    0    0  0.18111557962E+02 -0.27350489877E+01  0.13237013287E+01  0.18364672880E+02  0.00000000000E+00 0. -1.
         -5    1    3    3    0  503 -0.46058040595E+02  0.37897205038E+02  0.12023833321E+03  0.13430148185E+03  0.47000000000E+01 0.  1.
         11    1    4    4    0    0  0.22682130794E+02 -0.52181430034E+01  0.16286984440E+02  0.28407286669E+02  0.00000000000E+00 0. -1.
        -12    1    4    4    0    0 -0.52206241979E+02  0.10924505025E+02 -0.26296129218E+02  0.59466990200E+02  0.00000000000E+00 0.  1.
</event>
<event>
12    1  0.8219652E-002  0.2159422E+03  0.7818608E-02  0.1136998E+00
         21   -1    0    0  503  502  0.00000000000E+00  0.00000000000E+00  0.10838313360E+03  0.10838313360E+03  0.00000000000E+00 0.  1.
         21   -1    0    0  501  503 -0.00000000000E+00 -0.00000000000E+00 -0.48072277383E+03  0.48072277383E+03  0.00000000000E+00 0.  1.
          6    2    1    2  501    0  0.12603274636E+03  0.35991371379E+02 -0.28224624178E+03  0.35537861743E+03  0.17161406925E+03 0.  0.
         24    2    3    3    0    0  0.23008973162E+02 -0.14892290056E+02 -0.53501563069E+02  0.99352714679E+02  0.79103422898E+02 0.  0.
         -6    2    1    2    0  502 -0.12603274636E+03 -0.35991371379E+02 -0.90093398451E+02  0.23372729000E+03  0.17126585671E+03 0.  0.
        -24    2    5    5    0    0 -0.10071326446E+03 -0.79085756137E+02 -0.27708725636E+02  0.15365145367E+03  0.80270027258E+02 0.  0.
          5    1    3    3  501    0  0.10302377320E+03  0.50883661435E+02 -0.22874467871E+03  0.25602590276E+03  0.47000000000E+01 0. -1.
        -13    1    4    4    0    0  0.14701843790E+02 -0.26772653882E+02 -0.70607242220E+02  0.76930500198E+02  0.00000000000E+00 0.  1.
         14    1    4    4    0    0  0.83071293717E+01  0.11880363826E+02  0.17105679151E+02  0.22422214481E+02  0.00000000000E+00 0. -1.
         -5    1    5    5    0  502 -0.25319481897E+02  0.43094384758E+02 -0.62384672815E+02  0.80075836327E+02  0.47000000000E+01 0.  1.
         11    1    6    6    0    0  0.12302029385E+02  0.17008352123E+00  0.19726526679E+01  0.12460345659E+02  0.00000000000E+00 0. -1.
        -12    1    6    6    0    0 -0.11301529385E+03 -0.79255839659E+02 -0.29681378304E+02  0.14119110801E+03  0.00000000000E+00 0.  1.
</event>
<event>
12    1  0.8219652E-002  0.2014805E+03  0.7818608E-02  0.1149160E+00
         21   -1    0    0  501  502  0.00000000000E+00  0.00000000000E+00  0.24728012390E+04  0.24728012390E+04  0.00000000000E+00 0. -1.
         21   -1    0    0  502  503 -0.00000000000E+00 -0.00000000000E+00 -0.22650831042E+02  0.22650831042E+02  0.00000000000E+00 0. -1.
         -6    2    1    2    0  503  0.90516444436E+02  0.56717744459E+02  0.55030651492E+03  0.58495443893E+03  0.16710567316E+03 0.  0.
        -24    2    3    3    0    0  0.94474630455E+02  0.73674928327E+01  0.49807748822E+03  0.51283595446E+03  0.77070073045E+02 0.  0.
          6    2    1    2  501    0 -0.90516444436E+02 -0.56717744459E+02  0.18998438931E+04  0.19104976312E+04  0.17083398767E+03 0.  0.
         24    2    5    5    0    0 -0.51388524447E+02 -0.63371366478E+01  0.16440742074E+04  0.16468512356E+04  0.80362012758E+02 0.  0.
          5    1    5    5  501    0 -0.39127919989E+02 -0.50380607811E+02  0.25576968569E+03  0.26364639554E+03  0.47000000000E+01 0. -1.
        -11    1    6    6    0    0  0.40470826023E+01 -0.17187848007E+02  0.88107890968E+02  0.89859898996E+02  0.00000000000E+00 0.  1.
         12    1    6    6    0    0 -0.55435607049E+02  0.10850711360E+02  0.15559663164E+04  0.15569913366E+04  0.00000000000E+00 0. -1.
         -5    1    3    3    0  503 -0.39581860193E+01  0.49350251626E+02  0.52229026699E+02  0.72118484469E+02  0.47000000000E+01 0.  1.
         13    1    4    4    0    0  0.24937802130E+02  0.36440727093E+02  0.13570431025E+03  0.14270767459E+03  0.00000000000E+00 0. -1.
        -14    1    4    4    0    0  0.69536828325E+02 -0.29073234260E+02  0.36237317798E+03  0.37012827987E+03  0.00000000000E+00 0.  1.
</event>
<event>
12    1  0.8219652E-002  0.1786497E+03  0.7818608E-02  0.1169577E+00
         21   -1    0    0  503  502  0.00000000000E+00  0.00000000000E+00  0.85573593627E+03  0.85573593627E+03  0.00000000000E+00 0. -1.
         21   -1    0    0  501  503 -0.00000000000E+00 -0.00000000000E+00 -0.20518743619E+03  0.20518743619E+03  0.00000000000E+00 0. -1.
          6    2    1    2  501    0  0.13861952143E+02 -0.43141532166E+02 -0.15542684139E+03  0.23538598517E+03  0.17086753195E+03 0.  0.
         24    2    3    3    0    0  0.51169649308E+01 -0.75204111189E+02 -0.16683897371E+03  0.19993446138E+03  0.80353618639E+02 0.  0.
         -6    2    1    2    0  502 -0.13861952143E+02  0.43141532166E+02  0.80597534147E+03  0.82553738730E+03  0.17280735299E+03 0.  0.
        -24    2    5    5    0    0  0.91149484959E+01 -0.38924619046E+02  0.49667251724E+03  0.50467430401E+03  0.80089671577E+02 0.  0.
          5    1    3    3  501    0  0.87449872118E+01  0.32062579023E+02  0.11412132319E+02  0.35451523790E+02  0.47000000000E+01 0. -1.
        -13    1    4    4    0    0 -0.29073638003E+01  0.13662666036E+02 -0.44752331615E+01  0.14667955526E+02  0.00000000000E+00 0.  1.
         14    1    4    4    0    0  0.80243287312E+01 -0.88866777225E+02 -0.16236374055E+03  0.18526650585E+03  0.00000000000E+00 0. -1.
         -5    1    5    5    0  502 -0.22976900639E+02  0.82066151211E+02  0.30930282424E+03  0.32086308329E+03  0.47000000000E+01 0.  1.
         13    1    6    6    0    0  0.25730093108E+02  0.15881248950E+02  0.22567877756E+03  0.22769532801E+03  0.00000000000E+00 0. -1.
        -14    1    6    6    0    0 -0.16615144612E+02 -0.54805867995E+02  0.27099373968E+03  0.27697897599E+03  0.00000000000E+00 0.  1.
</event>
<event>
12    1  0.8219652E-002  0.2500506E+03  0.7818608E-02  0.1113453E+00
         21   -1    0    0  503  502  0.00000000000E+00  0.00000000000E+00  0.74584218602E+03  0.74584218602E+03  0.00000000000E+00 0.  1.
         21   -1    0    0  501  503 -0.00000000000E+00 -0.00000000000E+00 -0.83451046779E+02  0.83451046779E+02  0.00000000000E+00 0.  1.
          6    2    1    2  501    0 -0.11775329166E+03 -0.13772527375E+03  0.32989274992E+03  0.41326382619E+03  0.17065659923E+03 0.  0.
         24    2    3    3    0    0 -0.12592631133E+03 -0.11687019661E+03  0.18002312065E+03  0.26165667507E+03  0.80869109666E+02 0.  0.
         -6    2    1    2    0  502  0.11775329166E+03  0.13772527375E+03  0.33249838933E+03  0.41602940662E+03  0.17231134478E+03 0.  0.
        -24    2    5    5    0    0  0.10720424141E+02  0.11783964996E+02  0.78605054745E+02  0.11304233870E+03  0.79661950660E+02 0.  0.
          5    1    3    3  501    0  0.81730196777E+01 -0.20855077138E+02  0.14986962927E+03  0.15160715112E+03  0.47000000000E+01 0. -1.
        -11    1    4    4    0    0 -0.94349169310E+02 -0.43181943611E+02  0.13309567896E+03  0.16876286843E+03  0.00000000000E+00 0.  1.
         12    1    4    4    0    0 -0.31577142024E+02 -0.73688252996E+02  0.46927441692E+02  0.92893806638E+02  0.00000000000E+00 0. -1.
         -5    1    5    5    0  502  0.10703286752E+03  0.12594130875E+03  0.25389333458E+03  0.30298706791E+03  0.47000000000E+01 0.  1.
         11    1    6    6    0    0 -0.20398215704E+02  0.31599244021E+02  0.17087668437E+02  0.41310868294E+02  0.00000000000E+00 0. -1.
        -12    1    6    6    0    0  0.31118639846E+02 -0.19815279025E+02  0.61517386308E+02  0.71731470408E+02  0.00000000000E+00 0.  1.
</event>
<event>
12    1  0.8219652E-002  0.2969997E+03  0.7818608E-02  0.1086870E+00
         21   -1    0    0  503  502  0.00000000000E+00  0.00000000000E+00  0.14401310686E+03  0.14401310686E+03  0.00000000000E+00 0.  1.
         21   -1    0    0  501  503 -0.00000000000E+00 -0.00000000000E+00 -0.70087723339E+03  0.70087723339E+03  0.00000000000E+00 0. -1.
          6    2    1    2  501    0  0.22972433669E+03  0.75087437955E+02 -0.43047358451E+03  0.52298786837E+03  0.17261926107E+03 0.  0.
         24    2    3    3    0    0  0.13058389354E+03 -0.24210233998E+02 -0.19821746220E+03  0.25159543761E+03  0.79823638245E+02 0.  0.
         -6    2    1    2    0  502 -0.22972433669E+03 -0.75087437955E+02 -0.12639054201E+03  0.32190247188E+03  0.17098315146E+03 0.  0.
        -24    2    5    5    0    0 -0.22098278790E+03 -0.73100482921E+02 -0.15569964178E+03  0.29089479549E+03  0.78742177034E+02 0.  0.
          5    1    3    3  501    0  0.99140443154E+02  0.99297671953E+02 -0.23225612231E+03  0.27139243076E+03  0.47000000000E+01 0. -1.
        -11    1    4    4    0    0  0.25525288767E+02  0.22890650112E+02 -0.20823958711E+02  0.40114330177E+02  0.00000000000E+00 0.  1.
         12    1    4    4    0    0  0.10505860477E+03 -0.47100884110E+02 -0.17739350349E+03  0.21148110743E+03  0.00000000000E+00 0. -1.
         -5    1    5    5    0  502 -0.87415487935E+01 -0.19869550341E+01  0.29309099768E+02  0.31007676386E+02  0.47000000000E+01 0.  1.
         13    1    6    6    0    0 -0.62052992513E+02 -0.54168408412E+02 -0.31046393209E+02  0.88026523736E+02  0.00000000000E+00 0. -1.
        -14    1    6    6    0    0 -0.15892979538E+03 -0.18932074509E+02 -0.12465324857E+03  0.20286827176E+03  0.00000000000E+00 0.  1.
</event>
<event>
12    1  0.8219652E-002  0.1976087E+03  0.7818608E-02  0.1152222E+00
         21   -1    0    0  501  502  0.00000000000E+00  0.00000000000E+00  0.39865531197E+03  0.39865531197E+03  0.00000000000E+00 0.  1.
         21   -1    0    0  502  503 -0.00000000000E+00 -0.00000000000E+00 -0.97231624758E+02  0.97231624758E+02  0.00000000000E+00 0.  1.
         -6    2    1    2    0  503 -0.61918905805E+02  0.72052934037E+02  0.16554721745E+03  0.25778880709E+03  0.17327322833E+03 0.  0.
        -24    2    3    3    0    0 -0.65210487164E+01  0.28133981464E+02  0.16590733939E+03  0.18693673123E+03  0.81154489906E+02 0.  0.
          6    2    1    2  501    0  0.61918905805E+02 -0.72052934037E+02  0.13587646976E+03  0.23809812964E+03  0.17088805724E+03 0.  0.
         24    2    5    5    0    0  0.51673702575E+02 -0.76569183609E+02  0.16563672273E+03  0.20595589332E+03  0.80307500636E+02 0.  0.
          5    1    5    5  501    0  0.10245203230E+02  0.45162495723E+01 -0.29760252968E+02  0.32142236328E+02  0.47000000000E+01 0. -1.
        -13    1    6    6    0    0 -0.12369191933E+02 -0.64486251655E+01  0.69268583078E+02  0.70659169803E+02  0.00000000000E+00 0.  1.
         14    1    6    6    0    0  0.64042894508E+02 -0.70120558444E+02  0.96368139653E+02  0.13529672351E+03  0.00000000000E+00 0. -1.
         -5    1    3    3    0  503 -0.55397857088E+02  0.43918952573E+02 -0.36012193609E+00  0.70852075854E+02  0.47000000000E+01 0.  1.
         13    1    4    4    0    0  0.10726352441E+02 -0.11423490827E+02  0.12959140266E+03  0.13053536847E+03  0.00000000000E+00 0. -1.
        -14    1    4    4    0    0 -0.17247401158E+02  0.39557472291E+02  0.36315936732E+02  0.56401362762E+02  0.00000000000E+00 0.  1.
</event>
<event>
12    1  0.8219652E-002  0.2227352E+03  0.7818608E-02  0.1132162E+00
         21   -1    0    0  503  502  0.00000000000E+00  0.00000000000E+00  0.45725783631E+03  0.45725783631E+03  0.00000000000E+00 0.  1.
         21   -1    0    0  501  503 -0.00000000000E+00 -0.00000000000E+00 -0.13091317843E+03  0.13091317843E+03  0.00000000000E+00 0. -1.
          6    2    1    2  501    0 -0.81580398625E+02  0.11284038685E+03  0.39832107679E+02  0.22626882646E+03  0.17384668729E+03 0.  0.
         24    2    3    3    0    0  0.58596224973E+01  0.73014240641E+02 -0.23688565829E+02  0.11099157295E+03  0.79953527762E+02 0.  0.
         -6    2    1    2    0  502  0.81580398625E+02 -0.11284038685E+03  0.28651255021E+03  0.36190218827E+03  0.17174235967E+03 0.  0.
        -24    2    5    5    0    0  0.12377415882E+03 -0.94288678493E+02  0.23176001129E+03  0.29017764715E+03  0.79246241465E+02 0.  0.
          5    1    3    3  501    0 -0.87440021122E+02  0.39826146212E+02  0.63520673509E+02  0.11527725352E+03  0.47000000000E+01 0. -1.
        -11    1    4    4    0    0 -0.20297804801E+01 -0.39342252339E+01 -0.32806802998E+02  0.33104145661E+02  0.00000000000E+00 0.  1.
         12    1    4    4    0    0  0.78894029774E+01  0.76948465875E+02  0.91182371691E+01  0.77887427284E+02  0.00000000000E+00 0. -1.
         -5    1    5    5    0  502 -0.42193760192E+02 -0.18551708359E+02  0.54752538910E+02  0.71724541123E+02  0.47000000000E+01 0.  1.
         13    1    6    6    0    0  0.64577257826E+02 -0.56106530746E+01  0.11537784994E+03  0.13233952513E+03  0.00000000000E+00 0. -1.
        -14    1    6    6    0    0  0.59196900991E+02 -0.88678025419E+02  0.11638216136E+03  0.15783812202E+03  0.00000000000E+00 0.  1.
</event>
<event>
12    1  0.8219652E-002  0.2381024E+03  0.7818608E-02  0.1121177E+00
         21   -1    0    0  503  502  0.00000000000E+00  0.00000000000E+00  0.52272467853E+03  0.52272467853E+03  0.00000000000E+00 0.  1.
         21   -1    0    0  501  503 -0.00000000000E+00 -0.00000000000E+00 -0.10822274508E+03  0.10822274508E+03  0.00000000000E+00 0. -1.
          6    2    1    2  501    0  0.10075451861E+03  0.13018064635E+03  0.21571131222E+03  0.32128512380E+03  0.17202990102E+03 0.  0.
         24    2    3    3    0    0  0.86661740637E+02  0.16382184016E+03  0.18205404830E+03  0.27143296510E+03  0.78640482170E+02 0.  0.
         -6    2    1    2    0  502 -0.10075451861E+03 -0.13018064635E+03  0.19879062122E+03  0.30966229981E+03  0.17109808630E+03 0.  0.
        -24    2    5    5    0    0 -0.83432882000E+02 -0.15402055706E+03  0.20373532165E+03  0.27941464701E+03  0.76688238233E+02 0.  0.
          5    1    3    3  501    0  0.14092777975E+02 -0.33641193809E+02  0.33657263924E+02  0.49852158698E+02  0.47000000000E+01 0. -1.
        -13    1    4    4    0    0  0.81152295064E+02  0.10674379474E+03  0.16286986991E+03  0.21096570155E+03  0.00000000000E+00 0.  1.
         14    1    4    4    0    0  0.55094455731E+01  0.57078045424E+02  0.19184178395E+02  0.60467263546E+02  0.00000000000E+00 0. -1.
         -5    1    5    5    0  502 -0.17321636612E+02  0.23839910711E+02 -0.49447004238E+01  0.30247652800E+02  0.47000000000E+01 0.  1.
         13    1    6    6    0    0 -0.34477252104E+02 -0.13262087836E+03  0.13502987391E+03  0.19237994994E+03  0.00000000000E+00 0. -1.
        -14    1    6    6    0    0 -0.48955629896E+02 -0.21399678706E+02  0.68705447733E+02  0.87034697077E+02  0.00000000000E+00 0.  1.
</event>
<event>
12    1  0.8219652E-002  0.3281307E+03  0.7818608E-02  0.1072331E+00
         21   -1    0    0  503  502  0.00000000000E+00  0.00000000000E+00  0.89685963212E+02  0.89685963212E+02  0.00000000000E+00 0. -1.
         21   -1    0    0  501  503 -0.00000000000E+00 -0.00000000000E+00 -0.11886858063E+04  0.11886858063E+04  0.00000000000E+00 0. -1.
          6    2    1    2  501    0 -0.18477125122E+03 -0.20821746116E+03 -0.55504690283E+03  0.64478430654E+03  0.17370898424E+03 0.  0.
         24    2    3    3    0    0 -0.20319964018E+03 -0.21637346948E+03 -0.52244404314E+03  0.60616873389E+03  0.79907344231E+02 0.  0.
         -6    2    1    2    0  502  0.18477125122E+03  0.20821746116E+03 -0.54395294025E+03  0.63358746297E+03  0.16749132996E+03 0.  0.
        -24    2    5    5    0    0  0.88140143493E+02  0.14029667045E+03 -0.43661357711E+03  0.47391707225E+03  0.80710191560E+02 0.  0.
          5    1    3    3  501    0  0.18428388959E+02  0.81560083230E+01 -0.32602859690E+02  0.38615572654E+02  0.47000000000E+01 0. -1.
        -13    1    4    4    0    0 -0.12816212607E+03 -0.13028516798E+03 -0.39384581977E+03  0.43418231805E+03  0.00000000000E+00 0.  1.
         14    1    4    4    0    0 -0.75037514106E+02 -0.86088301500E+02 -0.12859822337E+03  0.17198641584E+03  0.00000000000E+00 0. -1.
         -5    1    5    5    0  502  0.96631107727E+02  0.67920790716E+02 -0.10733936314E+03  0.15967039072E+03  0.47000000000E+01 0.  1.
         13    1    6    6    0    0  0.89400324143E+02  0.14957089907E+03 -0.42202798464E+03  0.45658678433E+03  0.00000000000E+00 0. -1.
        -14    1    6    6    0    0 -0.12601806499E+01 -0.92742286207E+01 -0.14585592468E+02  0.17330287921E+02  0.00000000000E+00 0.  1.
</event>
<event>
12    1  0.8219652E-002  0.1857861E+03  0.7818608E-02  0.1162751E+00
         21   -1    0    0  503  502  0.00000000000E+00  0.00000000000E+00  0.52222407416E+02  0.52222407416E+02  0.00000000000E+00 0. -1.
         21   -1    0    0  501  503 -0.00000000000E+00 -0.00000000000E+00 -0.16423765870E+04  0.16423765870E+04  0.00000000000E+00 0. -1.
          6    2    1    2  501    0  0.55263023410E+02  0.45713656186E+02 -0.14506587205E+04  0.14622728337E+04  0.16937348315E+03 0.  0.
         24    2    3    3    0    0  0.57439918908E+02 -0.31274798372E+02 -0.65951349409E+03  0.66737358208E+03  0.78434634393E+02 0.  0.
         -6    2    1    2    0  502 -0.55263023410E+02 -0.45713656186E+02 -0.13949545911E+03  0.23232616071E+03  0.17138471846E+03 0.  0.
        -24    2    5    5    0    0  0.75707836816E+01 -0.17446105274E+02 -0.55728667712E+01  0.81646060873E+02  0.79204413117E+02 0.  0.
          5    1    3    3  501    0 -0.21768954980E+01  0.76988454558E+02 -0.79114522640E+03  0.79489925165E+03  0.47000000000E+01 0. -1.
        -13    1    4    4    0    0 -0.14928295036E+02 -0.24462379736E+02 -0.15155494476E+03  0.15424060197E+03  0.00000000000E+00 0.  1.
         14    1    4    4    0    0  0.72368213944E+02 -0.68124186360E+01 -0.50795854933E+03  0.51313298011E+03  0.00000000000E+00 0. -1.
         -5    1    5    5    0  502 -0.62833807092E+02 -0.28267550912E+02 -0.13392259234E+03  0.15068009984E+03  0.47000000000E+01 0.  1.
         11    1    6    6    0    0 -0.13392365827E+02 -0.37185983720E+02 -0.25131290705E+02  0.46837320805E+02  0.00000000000E+00 0. -1.
        -12    1    6    6    0    0  0.20963149508E+02  0.19739878446E+02  0.19558423933E+02  0.34808740068E+02  0.00000000000E+00 0.  1.
</event>
<event>
12    1  0.8219652E-002  0.1766817E+03  0.7818608E-02  0.1171363E+00
         21   -1    0    0  503  502  0.00000000000E+00  0.00000000000E+00  0.50048664924E+02  0.50048664924E+02  0.00000000000E+00 0.  1.
         21   -1    0    0  501  503 -0.00000000000E+00 -0.00000000000E+00 -0.64161929963E+03  0.64161929963E+03  0.00000000000E+00 0.  1.
          6    2    1    2  501    0  0.33240877626E+02  0.12900047119E+02 -0.23033782371E+03  0.28954164594E+03  0.17177742734E+03 0.  0.
         24    2    3    3    0    0 -0.44591918837E+02  0.13620819998E+02 -0.15914245625E+03  0.18395123887E+03  0.79610118307E+02 0.  0.
         -6    2    1    2    0  502 -0.33240877626E+02 -0.12900047119E+02 -0.36123281100E+03  0.40212631861E+03  0.17304642503E+03 0.  0.
        -24    2    5    5    0    0 -0.98730421582E+01 -0.70698016664E+02 -0.16613758170E+03  0.19725831352E+03  0.78825501426E+02 0.  0.
          5    1    3    3  501    0  0.77832796464E+02 -0.72077287940E+00 -0.71195367458E+02  0.10559040708E+03  0.47000000000E+01 0. -1.
        -13    1    4    4    0    0 -0.22333139495E+02  0.45044590270E+02 -0.64543487670E+02  0.81814705481E+02  0.00000000000E+00 0.  1.
         14    1    4    4    0    0 -0.22258779342E+02 -0.31423770272E+02 -0.94598968581E+02  0.10213653339E+03  0.00000000000E+00 0. -1.
         -5    1    5    5    0  502 -0.23367835468E+02  0.57797969545E+02 -0.19509522929E+03  0.20486800509E+03  0.47000000000E+01 0.  1.
         13    1    6    6    0    0 -0.43697883824E+02 -0.31941252108E+02 -0.97041102640E+02  0.11111581453E+03  0.00000000000E+00 0. -1.
        -14    1    6    6    0    0  0.33824841666E+02 -0.38756764556E+02 -0.69096479064E+02  0.86142498987E+02  0.00000000000E+00 0.  1.
</event>
<event>
12    1  0.8219652E-002  0.1991294E+03  0.7818608E-02  0.1150551E+00
         21   -1    0    0  501  502  0.00000000000E+00  0.00000000000E+00  0.10537478121E+03  0.10537478121E+03  0.00000000000E+00 0.  1.
         21   -1    0    0  502  503 -0.00000000000E+00 -0.00000000000E+00 -0.47714874143E+03  0.47714874143E+03  0.00000000000E+00 0. -1.
         -6    2    1    2    0  503 -0.97612929867E+02  0.21592380698E+02 -0.32010599644E+03  0.37680021741E+03  0.17180232798E+03 0.  0.
        -24    2    3    3    0    0 -0.10544803723E+03 -0.37331605068E+02 -0.24717901815E+03  0.28259905410E+03  0.79068458129E+02 0.  0.
          6    2    1    2  501    0  0.97612929867E+02 -0.21592380698E+02 -0.51667963781E+02  0.20572330524E+03  0.17221493796E+03 0.  0.
         24    2    5    5    0    0 -0.11739210081E+02 -0.16707031470E+02 -0.39859581142E+02  0.95526730661E+02  0.84377936145E+02 0.  0.
          5    1    5    5  501    0  0.10935213995E+03 -0.48853492285E+01 -0.11808382639E+02  0.11019657458E+03  0.47000000000E+01 0. -1.
        -13    1    6    6    0    0 -0.35860177018E+02 -0.50725562130E+00 -0.52711645466E+02  0.63755212899E+02  0.00000000000E+00 0.  1.
         14    1    6    6    0    0  0.24120966937E+02 -0.16199775848E+02  0.12852064324E+02  0.31771517762E+02  0.00000000000E+00 0. -1.
         -5    1    3    3    0  503  0.78351073669E+01  0.58923985766E+02 -0.72926978295E+02  0.94201163312E+02  0.47000000000E+01 0.  1.
         13    1    4    4    0    0  0.69371475506E+01 -0.15270035552E+02 -0.10836213122E+02  0.19968012338E+02  0.00000000000E+00 0. -1.
        -14    1    4    4    0    0 -0.11238518478E+03 -0.22061569517E+02 -0.23634280502E+03  0.26263104176E+03  0.00000000000E+00 0.  1.
</event>
<event>
12    1  0.8219652E-002  0.2164712E+03  0.7818608E-02  0.1137564E+00
         21   -1    0    0  501  502  0.00000000000E+00  0.00000000000E+00  0.40110133454E+02  0.40110133454E+02  0.00000000000E+00 0. -1.
         21   -1    0    0  502  503 -0.00000000000E+00 -0.00000000000E+00 -0.12722005556E+04  0.12722005556E+04  0.00000000000E+00 0. -1.
         -6    2    1    2    0  503 -0.53833502496E+02 -0.12112430779E+03 -0.82082446500E+03  0.84755326749E+03  0.16439159033E+03 0.  0.
        -24    2    3    3    0    0 -0.17570068566E+02 -0.11410474855E+03 -0.77896451054E+03  0.79152955252E+03  0.80029512556E+02 0.  0.
          6    2    1    2  501    0  0.53833502496E+02  0.12112430779E+03 -0.41126595719E+03  0.46475742160E+03  0.17114505387E+03 0.  0.
         24    2    5    5    0    0 -0.25876395662E+02  0.33684816999E+02 -0.23698717903E+03  0.25405736244E+03  0.81104658536E+02 0.  0.
          5    1    5    5  501    0  0.79709898158E+02  0.87439490795E+02 -0.17427877816E+03  0.21070005916E+03  0.47000000000E+01 0. -1.
        -13    1    6    6    0    0 -0.18334358018E+02  0.60680932628E+02 -0.15784566951E+03  0.17009873501E+03  0.00000000000E+00 0.  1.
         14    1    6    6    0    0 -0.75420376441E+01 -0.26996115629E+02 -0.79141509519E+02  0.83958627430E+02  0.00000000000E+00 0. -1.
         -5    1    3    3    0  503 -0.36263433930E+02 -0.70195592414E+01 -0.41859954464E+02  0.56023714980E+02  0.47000000000E+01 0.  1.
         13    1    4    4    0    0 -0.48141060568E+02 -0.86021451329E+02 -0.57409079327E+03  0.58249248126E+03  0.00000000000E+00 0. -1.
        -14    1    4    4    0    0  0.30570992002E+02 -0.28083297223E+02 -0.20487371726E+03  0.20903707126E+03  0.00000000000E+00 0.  1.
</event>
<event>
12    1  0.8219652E-002  0.1744005E+03  0.7818608E-02  0.1174186E+00
         21   -1    0    0  503  502  0.00000000000E+00  0.00000000000E+00  0.19930727904E+03  0.19930727904E+03  0.00000000000E+00 0.  1.
         21   -1    0    0  501  503 -0.00000000000E+00 -0.00000000000E+00 -0.22567006499E+03  0.22567006499E+03  0.00000000000E+00 0.  1.
          6    2    1    2  501    0 -0.83201769067E+01  0.10703233345E+02 -0.13638368092E+03  0.21877327798E+03  0.17052112535E+03 0.  0.
         24    2    3    3    0    0 -0.35850499684E+02  0.46492904890E+02 -0.14154241076E+03  0.17308387270E+03  0.80479341519E+02 0.  0.
         -6    2    1    2    0  502  0.83201769067E+01 -0.10703233345E+02  0.11002089497E+03  0.20620406605E+03  0.17387275513E+03 0.  0.
        -24    2    5    5    0    0 -0.41113256418E+02 -0.39646737948E+02  0.11015849274E+03  0.14872798649E+03  0.81993638521E+02 0.  0.
          5    1    3    3  501    0  0.27530322777E+02 -0.35789671545E+02  0.51587298445E+01  0.45689405283E+02  0.47000000000E+01 0. -1.
        -13    1    4    4    0    0 -0.19144350584E+02 -0.55722235085E+01 -0.10602018476E+03  0.10787879964E+03  0.00000000000E+00 0.  1.
         14    1    4    4    0    0 -0.16706149100E+02  0.52065128398E+02 -0.35522225998E+02  0.65205073060E+02  0.00000000000E+00 0. -1.
         -5    1    5    5    0  502  0.49433433325E+02  0.28943504603E+02 -0.13759777205E+00  0.57476079565E+02  0.47000000000E+01 0.  1.
         11    1    6    6    0    0 -0.36616133297E+02 -0.14593155059E+00  0.58252318956E+01  0.37076890920E+02  0.00000000000E+00 0. -1.
        -12    1    6    6    0    0 -0.44971231212E+01 -0.39500806397E+02  0.10433326085E+03  0.11165109557E+03  0.00000000000E+00 0.  1.
</event>
<event>
12    1  0.8219652E-002  0.2314792E+03  0.7818608E-02  0.1126652E+00
         21   -1    0    0  501  502  0.00000000000E+00  0.00000000000E+00  0.23240129100E+03  0.23240129100E+03  0.00000000000E+00 0.  1.
         21   -1    0    0  502  503 -0.00000000000E+00 -0.00000000000E+00 -0.37815450677E+03  0.37815450677E+03  0.00000000000E+00 0. -1.
         -6    2    1    2    0  503 -0.10139858416E+03 -0.11263700420E+03 -0.26677873046E+03  0.34934743208E+03  0.16704481342E+03 0.  0.
        -24    2    3    3    0    0 -0.52013353705E+02 -0.12665592981E+03 -0.13663993962E+03  0.20937019771E+03  0.80114250098E+02 0.  0.
          6    2    1    2  501    0  0.10139858416E+03  0.11263700420E+03  0.12102551469E+03  0.26120836568E+03  0.17496818999E+03 0.  0.
         24    2    5    5    0    0  0.12118050968E+03  0.10315558494E+03  0.47554030436E+02  0.18438798500E+03  0.80073419884E+02 0.  0.
          5    1    5    5  501    0 -0.19781925521E+02  0.94814192680E+01  0.73471484255E+02  0.76820380677E+02  0.47000000000E+01 0. -1.
        -11    1    6    6    0    0 -0.11846626500E+02  0.97220623219E+01  0.13291169695E+01  0.15382704806E+02  0.00000000000E+00 0.  1.
         12    1    6    6    0    0  0.13302713618E+03  0.93433522614E+02  0.46224913466E+02  0.16900528020E+03  0.00000000000E+00 0. -1.
         -5    1    3    3    0  503 -0.49385230455E+02  0.14018925605E+02 -0.13013879084E+03  0.13997723437E+03  0.47000000000E+01 0.  1.
         13    1    4    4    0    0 -0.52857129128E+01 -0.77592843227E+02 -0.11386460835E+03  0.13789030827E+03  0.00000000000E+00 0. -1.
        -14    1    4    4    0    0 -0.46727640793E+02 -0.49063086582E+02 -0.22775331273E+02  0.71479889435E+02  0.00000000000E+00 0.  1.
</event>
<event>
12    1  0.8219652E-002  0.1845089E+03  0.7818608E-02  0.1163636E+00
         21   -1    0    0  503  502  0.00000000000E+00  0.00000000000E+00  0.17310801699E+03  0.17310801699E+03  0.00000000000E+00 0.  1.
         21   -1    0    0  501  503 -0.00000000000E+00 -0.00000000000E+00 -0.33027041273E+03  0.33027041273E+03  0.00000000000E+00 0.  1.
          6    2    1    2  501    0  0.35119051827E+02  0.57120116908E+02 -0.23894174022E+03  0.30155822556E+03  0.17131302528E+03 0.  0.
         24    2    3    3    0    0  0.61941105082E+02 -0.65441588680E+01 -0.84769449858E+02  0.13255009657E+03  0.80648260723E+02 0.  0.
         -6    2    1    2    0  502 -0.35119051827E+02 -0.57120116908E+02  0.81779344476E+02  0.20182020415E+03  0.17189379880E+03 0.  0.
        -24    2    5    5    0    0 -0.52810550876E+02  0.26371100946E+02  0.47057294836E+02  0.10956250351E+03  0.79405062358E+02 0.  0.
          5    1    3    3  501    0 -0.26822053255E+02  0.63664275776E+02 -0.15417229036E+03  0.16900812899E+03  0.47000000000E+01 0. -1.
        -11    1    4    4    0    0  0.21225642411E+02 -0.38306664005E+02 -0.62493803902E+02  0.76311230688E+02  0.00000000000E+00 0.  1.
         12    1    4    4    0    0  0.40715462670E+02  0.31762505137E+02 -0.22275645957E+02  0.56238865883E+02  0.00000000000E+00 0. -1.
         -5    1    5    5    0  502  0.17691499050E+02 -0.83491217855E+02  0.34722049640E+02  0.92257700647E+02  0.47000000000E+01 0.  1.
         13    1    6    6    0    0 -0.42973256628E+02  0.18149636467E+02  0.69507084267E+02  0.83709885034E+02  0.00000000000E+00 0. -1.
        -14    1    6    6    0    0 -0.98372942485E+01  0.82214644796E+01 -0.22449789431E+02  0.25852618471E+02  0.00000000000E+00 0.  1.
</event>
<event>
12    1  0.8219652E-002  0.3181026E+03  0.7818608E-02  0.1076625E+00
         21   -1    0    0  503  502  0.00000000000E+00  0.00000000000E+00  0.62657537149E+03  0.62657537149E+03  0.00000000000E+00 0. -1.
         21   -1    0    0  501  503 -0.00000000000E+00 -0.00000000000E+00 -0.16113150765E+03  0.16113150765E+03  0.00000000000E+00 0.  1.
          6    2    1    2  501    0 -0.60045952354E+02 -0.26177035404E+03  0.22501571255E+03  0.38964257646E+03  0.17047003213E+03 0.  0.
         24    2    3    3    0    0 -0.79737146396E+02 -0.83436788410E+02  0.84564505302E+02  0.16174076566E+03  0.75426848952E+02 0.  0.
         -6    2    1    2    0  502  0.60045952354E+02  0.26177035404E+03  0.24042815129E+03  0.39806430268E+03  0.16887941997E+03 0.  0.
        -24    2    5    5    0    0  0.80357527294E+02  0.11717855588E+03  0.78688093602E+02  0.18011640884E+03  0.77858580172E+02 0.  0.
          5    1    3    3  501    0  0.19691194042E+02 -0.17833356563E+03  0.14045120724E+03  0.22790181081E+03  0.47000000000E+01 0. -1.
        -11    1    4    4    0    0 -0.20627741166E+02 -0.18162828976E+02 -0.12921686977E+02  0.30370414162E+02  0.00000000000E+00 0.  1.
         12    1    4    4    0    0 -0.59109405230E+02 -0.65273959434E+02  0.97486192279E+02  0.13137035149E+03  0.00000000000E+00 0. -1.
         -5    1    5    5    0  502 -0.20311574940E+02  0.14459179816E+03  0.16174005769E+03  0.21794789385E+03  0.47000000000E+01 0.  1.
         11    1    6    6    0    0  0.41660070420E+02  0.73405153804E+02  0.86869220979E+02  0.12112035182E+03  0.00000000000E+00 0. -1.
        -12    1    6    6    0    0  0.38697456874E+02  0.43773402076E+02 -0.81811273774E+01  0.58996057012E+02  0.00000000000E+00 0.  1.
</event>
<event>
12    1  0.8219652E-002  0.1801286E+03  0.7818608E-02  0.1167689E+00
         21   -1    0    0  503  502  0.00000000000E+00  0.00000000000E+00  0.20964900467E+02  0.20964900467E+02  0.00000000000E+00 0.  1.
         21   -1    0    0  501  503 -0.00000000000E+00 -0.00000000000E+00 -0.16269787810E+04  0.16269787810E+04  0.00000000000E+00 0.  1.
          6    2    1    2  501    0 -0.42061388194E+02  0.35142261333E+02 -0.98527812910E+03  0.10016007547E+04  0.17154282640E+03 0.  0.
         24    2    3    3    0    0 -0.29800889580E+02 -0.17090095360E+02 -0.24638419989E+03  0.26074660745E+03  0.78124611779E+02 0.  0.
         -6    2    1    2    0  502  0.42061388194E+02 -0.35142261333E+02 -0.62073575139E+03  0.64634292669E+03  0.17158719918E+03 0.  0.
        -24    2    5    5    0    0  0.53309741525E+02 -0.20637261573E+02 -0.16938827860E+03  0.19459791935E+03  0.76864401245E+02 0.  0.
          5    1    3    3  501    0 -0.12260498614E+02  0.52232356694E+02 -0.73889392921E+03  0.74085414727E+03  0.47000000000E+01 0. -1.
        -13    1    4    4    0    0 -0.79234158307E+01  0.30892101529E+02 -0.76998353346E+02  0.83341759481E+02  0.00000000000E+00 0.  1.
         14    1    4    4    0    0 -0.21877473750E+02 -0.47982196890E+02 -0.16938584654E+03  0.17740484797E+03  0.00000000000E+00 0. -1.
         -5    1    5    5    0  502 -0.11248353330E+02 -0.14504999761E+02 -0.45134747279E+03  0.45174500735E+03  0.47000000000E+01 0.  1.
         13    1    6    6    0    0  0.32649334731E+02  0.27924333321E+02 -0.72738498709E+02  0.84478616491E+02  0.00000000000E+00 0. -1.
        -14    1    6    6    0    0  0.20660406793E+02 -0.48561594894E+02 -0.96649779896E+02  0.11011930286E+03  0.00000000000E+00 0.  1.
</event>
<event>
12    1  0.8219652E-002  0.3939521E+03  0.7818608E-02  0.1045895E+00
         21   -1    0    0  501  502  0.00000000000E+00  0.00000000000E+00  0.67969089949E+03  0.67969089949E+03  0.00000000000E+00 0. -1.
         21   -1    0    0  502  503 -0.00000000000E+00 -0.00000000000E+00 -0.22910376550E+03  0.22910376550E+03  0.00000000000E+00 0.  1.
         -6    2    1    2    0  503  0.33368058147E+03 -0.11952372008E+03  0.19895937528E+03  0.44134237320E+03  0.17195815552E+03 0.  0.
        -24    2    3    3    0    0  0.22946736730E+03 -0.19842625544E+02  0.87845498605E+02  0.25922950103E+03  0.80212842723E+02 0.  0.
          6    2    1    2  501    0 -0.33368058147E+03  0.11952372008E+03  0.25162775872E+03  0.46745229180E+03  0.17194902162E+03 0.  0.
         24    2    5    5    0    0 -0.75941956105E+02  0.21567339252E+02  0.23307424702E+02  0.10943425248E+03  0.72113027606E+02 0.  0.
          5    1    5    5  501    0 -0.25773862537E+03  0.97956380831E+02  0.22832033401E+03  0.35801803932E+03  0.47000000000E+01 0. -1.
        -11    1    6    6    0    0 -0.87624169536E+02  0.29238812204E+02  0.24002107959E+02  0.95441104418E+02  0.00000000000E+00 0.  1.
         12    1    6    6    0    0  0.11682213432E+02 -0.76714729512E+01 -0.69468325665E+00  0.13993148064E+02  0.00000000000E+00 0. -1.
         -5    1    3    3    0  503  0.10421321418E+03 -0.99681094540E+02  0.11111387668E+03  0.18211287216E+03  0.47000000000E+01 0.  1.
         13    1    4    4    0    0  0.83713859617E+02 -0.36502281134E+02  0.61701266249E+02  0.11021557547E+03  0.00000000000E+00 0. -1.
        -14    1    4    4    0    0  0.14575350768E+03  0.16659655590E+02  0.26144232356E+02  0.14901392556E+03  0.00000000000E+00 0.  1.
</event>
<event>
12    1  0.8219652E-002  0.1875255E+03  0.7818608E-02  0.1161262E+00
         21   -1    0    0  501  502  0.00000000000E+00  0.00000000000E+00  0.15898624697E+03  0.15898624697E+03  0.00000000000E+00 0.  1.
         21   -1    0    0  502  503 -0.00000000000E+00 -0.00000000000E+00 -0.21894467917E+03  0.21894467917E+03  0.00000000000E+00 0.  1.
         -6    2    1    2    0  503  0.71215805759E+02 -0.14487852697E+01 -0.20644116051E+02  0.18865839200E+03  0.17347051443E+03 0.  0.
        -24    2    3    3    0    0  0.68712261202E+02 -0.52570860650E+02 -0.51763275479E+02  0.12857323236E+03  0.79790783684E+02 0.  0.
          6    2    1    2  501    0 -0.71215805759E+02  0.14487852697E+01 -0.39314316150E+02  0.18927253413E+03  0.17089378793E+03 0.  0.
         24    2    5    5    0    0 -0.12064747913E+02  0.34913629280E+02  0.33235311957E+02  0.89752275049E+02  0.74741991303E+02 0.  0.
          5    1    5    5  501    0 -0.59151057847E+02 -0.33464844010E+02 -0.72549628107E+02  0.99520259080E+02  0.47000000000E+01 0. -1.
        -11    1    6    6    0    0 -0.30062241395E+02  0.50519267262E+02  0.18021981891E+02  0.61487613010E+02  0.00000000000E+00 0.  1.
         12    1    6    6    0    0  0.17997493483E+02 -0.15605637982E+02  0.15213330066E+02  0.28264662039E+02  0.00000000000E+00 0. -1.
         -5    1    3    3    0  503  0.25035445568E+01  0.51122075380E+02  0.31119159428E+02  0.60085159649E+02  0.47000000000E+01 0.  1.
         11    1    4    4    0    0  0.49329960545E+02  0.29858468182E+01  0.11595148558E+01  0.49433842287E+02  0.00000000000E+00 0. -1.
        -12    1    4    4    0    0  0.19382300657E+02 -0.55556707468E+02 -0.52922790334E+02  0.79139390068E+02  0.00000000000E+00 0.  1.
</event>
<event>
12    1  0.8219652E-002  0.2709207E+03  0.7818608E-02  0.1100897E+00
         21   -1    0    0  501  502  0.00000000000E+00  0.00000000000E+00  0.43240182918E+03  0.43240182918E+03  0.00000000000E+00 0. -1.
         21   -1    0    0  502  503 -0.00000000000E+00 -0.00000000000E+00 -0.20873420357E+03  0.20873420357E+03  0.00000000000E+00 0.  1.
         -6    2    1    2    0  503 -0.19056244660E+03 -0.82989902870E+02 -0.27658916616E+02  0.27232895622E+03  0.17377190420E+03 0.  0.
        -24    2    3    3    0    0 -0.56396208237E+02  0.14690281494E+02 -0.26905247570E+02  0.10630288612E+03  0.84735320713E+02 0.  0.
          6    2    1    2  501    0  0.19056244660E+03  0.82989902870E+02  0.25132654223E+03  0.36880707653E+03  0.17219831252E+03 0.  0.
         24    2    5    5    0    0  0.15251752521E+03  0.74988600039E+02  0.10115975070E+03  0.21361818463E+03  0.80712749994E+02 0.  0.
          5    1    5    5  501    0  0.38044921395E+02  0.80013028306E+01  0.15016679153E+03  0.15518889190E+03  0.47000000000E+01 0. -1.
        -11    1    6    6    0    0 -0.87343921470E+01  0.89949648729E+01  0.14021198156E+02  0.18809385874E+02  0.00000000000E+00 0.  1.
         12    1    6    6    0    0  0.16125191736E+03  0.65993635166E+02  0.87138552546E+02  0.19480879876E+03  0.00000000000E+00 0. -1.
         -5    1    3    3    0  503 -0.13416623837E+03 -0.97680184364E+02 -0.75366904627E+00  0.16602607010E+03  0.47000000000E+01 0.  1.
         11    1    4    4    0    0 -0.78127638308E+02  0.15413748989E+02 -0.13529660637E+02  0.80774768601E+02  0.00000000000E+00 0. -1.
        -12    1    4    4    0    0  0.21731430072E+02 -0.72346749495E+00 -0.13375586933E+02  0.25528117517E+02  0.00000000000E+00 0.  1.
</event>
<event>
12    1  0.8219652E-002  0.1787642E+03  0.7818608E-02  0.1169277E+00
         21   -1    0    0  501  502  0.00000000000E+00  0.00000000000E+00  0.48970811739E+03  0.48970811739E+03  0.00000000000E+00 0. -1.
         21   -1    0    0  502  503 -0.00000000000E+00 -0.00000000000E+00 -0.81852052947E+02  0.81852052947E+02  0.00000000000E+00 0. -1.
         -6    2    1    2    0  503  0.33634903765E+02  0.33453234040E+02  0.74188016866E+02  0.19354711907E+03  0.17235486601E+03 0.  0.
        -24    2    3    3    0    0  0.61694507398E+02  0.48912574205E+02  0.10140431997E+03  0.15124877739E+03  0.79966895627E+02 0.  0.
          6    2    1    2  501    0 -0.33634903765E+02 -0.33453234040E+02  0.33366804757E+03  0.37801305126E+03  0.17119893496E+03 0.  0.
         24    2    5    5    0    0  0.28395834132E+02 -0.61043840847E+02  0.15026140742E+03  0.18238805368E+03  0.78448949401E+02 0.  0.
          5    1    5    5  501    0 -0.62030737897E+02  0.27590606807E+02  0.18340664015E+03  0.19562499758E+03  0.47000000000E+01 0. -1.
        -11    1    6    6    0    0 -0.55603847818E+01  0.15766799806E+02  0.11854088099E+02  0.20494615383E+02  0.00000000000E+00 0.  1.
         12    1    6    6    0    0  0.33956218913E+02 -0.76810640653E+02  0.13840731932E+03  0.16189343829E+03  0.00000000000E+00 0. -1.
         -5    1    3    3    0  503 -0.28059603632E+02 -0.15459340165E+02 -0.27216303103E+02  0.42298341680E+02  0.47000000000E+01 0.  1.
         11    1    4    4    0    0 -0.16694677712E+02  0.52898946988E+01  0.24500808516E+01  0.17683273057E+02  0.00000000000E+00 0. -1.
        -12    1    4    4    0    0  0.78389185109E+02  0.43622679506E+02  0.98954239117E+02  0.13356550434E+03  0.00000000000E+00 0.  1.
</event>
<event>
12    1  0.8219652E-002  0.2468328E+03  0.7818608E-02  0.1115612E+00
         21   -1    0    0  503  502  0.00000000000E+00  0.00000000000E+00  0.76423478024E+03  0.76423478024E+03  0.00000000000E+00 0. -1.
         21   -1    0    0  501  503 -0.00000000000E+00 -0.00000000000E+00 -0.96546429504E+02  0.96546429504E+02  0.00000000000E+00 0. -1.
          6    2    1    2  501    0  0.16238687588E+03 -0.63041319193E+02  0.51757173729E+03  0.57341690065E+03  0.17487919636E+03 0.  0.
         24    2    3    3    0    0  0.83532464025E+02 -0.10442494190E+03  0.35757332637E+03  0.39024429354E+03  0.80930117204E+02 0.  0.
         -6    2    1    2    0  502 -0.16238687588E+03  0.63041319193E+02  0.15011661344E+03  0.28736430909E+03  0.17233555387E+03 0.  0.
        -24    2    5    5    0    0 -0.13801534894E+03  0.89533139382E+02  0.62753446682E+02  0.19275880836E+03  0.78444525247E+02 0.  0.
          5    1    3    3  501    0  0.78854411854E+02  0.41383622709E+02  0.15999841093E+03  0.18317260711E+03  0.47000000000E+01 0. -1.
        -11    1    4    4    0    0  0.37812817701E+01 -0.44745248432E+02  0.51284596282E+02  0.68165571698E+02  0.00000000000E+00 0.  1.
         12    1    4    4    0    0  0.79751182255E+02 -0.59679693470E+02  0.30628873008E+03  0.32207872184E+03  0.00000000000E+00 0. -1.
         -5    1    5    5    0  502 -0.24371526942E+02 -0.26491820189E+02  0.87363166758E+02  0.94605500730E+02  0.47000000000E+01 0. -1.
         13    1    6    6    0    0  0.55751320756E+00  0.32334674702E+02  0.11672177813E+02  0.34381415677E+02  0.00000000000E+00 0. -1.
        -14    1    6    6    0    0 -0.13857286215E+03  0.57198464681E+02  0.51081268869E+02  0.15837739269E+03  0.00000000000E+00 0.  1.
</event>
<event>
12    1  0.8219652E-002  0.1743868E+03  0.7818608E-02  0.1174170E+00
         21   -1    0    0  503  502  0.00000000000E+00  0.00000000000E+00  0.64989279641E+03  0.64989279641E+03  0.00000000000E+00 0. -1.
         21   -1    0    0  501  503 -0.00000000000E+00 -0.00000000000E+00 -0.58921957167E+02  0.58921957167E+02  0.00000000000E+00 0. -1.
          6    2    1    2  501    0 -0.30752452703E+02 -0.26793900361E+02  0.13123870082E+03  0.21825296904E+03  0.16954980229E+03 0.  0.
         24    2    3    3    0    0 -0.30613269501E+02 -0.52083545982E+02  0.15434271071E+03  0.18367738776E+03  0.79157074170E+02 0.  0.
         -6    2    1    2    0  502  0.30752452703E+02  0.26793900361E+02  0.45973213843E+03  0.49056178454E+03  0.16623356732E+03 0.  0.
        -24    2    5    5    0    0 -0.17855995376E+00 -0.38628654177E+02  0.18379439526E+03  0.20525393976E+03  0.82804560578E+02 0.  0.
          5    1    3    3  501    0 -0.13918320172E+00  0.25289645621E+02 -0.23104009897E+02  0.34575581281E+02  0.47000000000E+01 0. -1.
        -13    1    4    4    0    0 -0.57592597288E+02 -0.38671347073E+02  0.11088069828E+03  0.13079338515E+03  0.00000000000E+00 0.  1.
         14    1    4    4    0    0  0.26979327787E+02 -0.13412198910E+02  0.43462012429E+02  0.52884002608E+02  0.00000000000E+00 0. -1.
         -5    1    5    5    0  502  0.30931012656E+02  0.65422554538E+02  0.27593774317E+03  0.28530784478E+03  0.47000000000E+01 0.  1.
         11    1    6    6    0    0  0.23107849446E+02  0.17634366306E+02  0.43536595508E+02  0.52348626816E+02  0.00000000000E+00 0. -1.
        -12    1    6    6    0    0 -0.23286409400E+02 -0.56263020483E+02  0.14025779975E+03  0.15290531295E+03  0.00000000000E+00 0.  1.
</event>
<event>
12    1  0.8219652E-002  0.2342839E+03  0.7818608E-02  0.1123788E+00
         21   -1    0    0  501  502  0.00000000000E+00  0.00000000000E+00  0.46666421654E+03  0.46666421654E+03  0.00000000000E+00 0.  1.
         21   -1    0    0  502  503 -0.00000000000E+00 -0.00000000000E+00 -0.13558036136E+03  0.13558036136E+03  0.00000000000E+00 0.  1.
         -6    2    1    2    0  503  0.14346368021E+03  0.65745087916E+02  0.54584523231E+02  0.23983481636E+03  0.17215407296E+03 0.  0.
        -24    2    3    3    0    0  0.67218016104E+02 -0.91796470706E+01  0.78483555581E+02  0.13019736402E+03  0.78671198616E+02 0.  0.
          6    2    1    2  501    0 -0.14346368021E+03 -0.65745087916E+02  0.27649933196E+03  0.36240976154E+03  0.17316093834E+03 0.  0.
         24    2    5    5    0    0 -0.13333396615E+03 -0.86607390626E+02  0.28623120301E+03  0.33682370879E+03  0.79013432978E+02 0.  0.
          5    1    5    5  501    0 -0.10129714063E+02  0.20862302710E+02 -0.97318710486E+01  0.25586052752E+02  0.47000000000E+01 0. -1.
        -13    1    6    6    0    0 -0.24252374919E+02  0.14675139095E+02  0.38457367567E+02  0.47775584945E+02  0.00000000000E+00 0.  1.
         14    1    6    6    0    0 -0.10908159123E+03 -0.10128252972E+03  0.24777383544E+03  0.28904812385E+03  0.00000000000E+00 0. -1.
         -5    1    3    3    0  503  0.76245664107E+02  0.74924734987E+02 -0.23899032350E+02  0.10963745234E+03  0.47000000000E+01 0.  1.
         11    1    4    4    0    0  0.42636587529E+00  0.24230853870E+02  0.37110031767E+01  0.24517088157E+02  0.00000000000E+00 0. -1.
        -12    1    4    4    0    0  0.66791650229E+02 -0.33410500940E+02  0.74772552404E+02  0.10568027586E+03  0.00000000000E+00 0.  1.
</event>
<event>
12    1  0.8219652E-002  0.1902766E+03  0.7818608E-02  0.1158539E+00
         21   -1    0    0  503  502  0.00000000000E+00  0.00000000000E+00  0.14414333099E+03  0.14414333099E+03  0.00000000000E+00 0. -1.
         21   -1    0    0  501  503 -0.00000000000E+00 -0.00000000000E+00 -0.41168980293E+03  0.41168980293E+03  0.00000000000E+00 0. -1.
          6    2    1    2  501    0  0.10948955386E+02 -0.81245366751E+02 -0.30864234209E+03  0.36258140386E+03  0.17171048264E+03 0.  0.
         24    2    3    3    0    0  0.65687484830E+02 -0.15141328183E+02 -0.18512581608E+03  0.21210059871E+03  0.78555653577E+02 0.  0.
         -6    2    1    2    0  502 -0.10948955386E+02  0.81245366751E+02  0.41095870151E+02  0.19325173006E+03  0.17010782282E+03 0.  0.
        -24    2    5    5    0    0  0.22699350995E+02  0.22989765701E+02  0.78665242548E+02  0.11605411793E+03  0.78971818022E+02 0.  0.
          5    1    3    3  501    0 -0.54738529445E+02 -0.66104038568E+02 -0.12351652601E+03  0.15048080515E+03  0.47000000000E+01 0. -1.
        -11    1    4    4    0    0  0.20120690815E+02 -0.15803721928E+02 -0.47059609143E+01  0.26014340156E+02  0.00000000000E+00 0.  1.
         12    1    4    4    0    0  0.45566794016E+02  0.66239374472E+00 -0.18041985517E+03  0.18608625855E+03  0.00000000000E+00 0. -1.
         -5    1    5    5    0  502 -0.33648306381E+02  0.58255601051E+02 -0.37569372397E+02  0.77197612129E+02  0.47000000000E+01 0.  1.
         11    1    6    6    0    0  0.65992446738E+01  0.49143291326E+02  0.66659757447E+02  0.83079097104E+02  0.00000000000E+00 0. -1.
        -12    1    6    6    0    0  0.16100106321E+02 -0.26153525626E+02  0.12005485101E+02  0.32975020830E+02  0.00000000000E+00 0.  1.
</event>
<event>
12    1  0.8219652E-002  0.1773549E+03  0.7818608E-02  0.1170523E+00
         21   -1    0    0  503  502  0.00000000000E+00  0.00000000000E+00  0.92003787934E+03  0.92003787934E+03  0.00000000000E+00 0.  1.
         21   -1    0    0  501  503 -0.00000000000E+00 -0.00000000000E+00 -0.35063590098E+02  0.35063590098E+02  0.00000000000E+00 0.  1.
          6    2    1    2  501    0  0.35539220110E+02  0.23530850465E+02  0.36330563844E+03  0.40428425295E+03  0.17215700152E+03 0.  0.
         24    2    3    3    0    0  0.94881238570E+01 -0.45929966766E+02  0.27233807430E+03  0.28680807464E+03  0.76754534859E+02 0.  0.
         -6    2    1    2    0  502 -0.35539220110E+02 -0.23530850465E+02  0.52166865080E+03  0.55081721648E+03  0.17159454436E+03 0.  0.
        -24    2    5    5    0    0 -0.59834218368E+02  0.32445627003E+02  0.41658869597E+03  0.42921335192E+03  0.77750289099E+02 0.  0.
          5    1    3    3  501    0  0.26051096254E+02  0.69460817230E+02  0.90967564134E+02  0.11747617831E+03  0.47000000000E+01 0. -1.
        -13    1    4    4    0    0  0.38172217466E+02 -0.11441636722E+02  0.17719141028E+03  0.18161724895E+03  0.00000000000E+00 0.  1.
         14    1    4    4    0    0 -0.28684093609E+02 -0.34488330044E+02  0.95146664017E+02  0.10519082569E+03  0.00000000000E+00 0. -1.
         -5    1    5    5    0  502  0.24294998257E+02 -0.55976477468E+02  0.10507995483E+03  0.12160386457E+03  0.47000000000E+01 0.  1.
         11    1    6    6    0    0 -0.24058462760E+02  0.15383374562E+02  0.35386753083E+03  0.35501786887E+03  0.00000000000E+00 0. -1.
        -12    1    6    6    0    0 -0.35775755608E+02  0.17062252441E+02  0.62721165138E+02  0.74195483043E+02  0.00000000000E+00 0.  1.
</event>
<event>
12    1  0.8219652E-002  0.1992860E+03  0.7818608E-02  0.1150545E+00
         21   -1    0    0  503  502  0.00000000000E+00  0.00000000000E+00  0.13363382880E+03  0.13363382880E+03  0.00000000000E+00 0. -1.
         21   -1    0    0  501  503 -0.00000000000E+00 -0.00000000000E+00 -0.63008229016E+03  0.63008229016E+03  0.00000000000E+00 0.  1.
          6    2    1    2  501    0  0.36557287216E+02  0.92905034301E+02  0.30201288262E+02  0.20062210372E+03  0.17137482324E+03 0.  0.
         24    2    3    3    0    0  0.52495237083E+02  0.61648620747E+02 -0.40752951964E+02  0.12132786786E+03  0.80643326254E+02 0.  0.
         -6    2    1    2    0  502 -0.36557287216E+02 -0.92905034301E+02 -0.52664974963E+03  0.56309401525E+03  0.17247356487E+03 0.  0.
        -24    2    5    5    0    0 -0.58068302253E+02 -0.10626989749E+02 -0.37253500064E+03  0.38700924521E+03  0.86654304793E+02 0.  0.
          5    1    3    3  501    0 -0.15937949867E+02  0.31256413554E+02  0.70954240227E+02  0.79294235858E+02  0.47000000000E+01 0. -1.
        -11    1    4    4    0    0 -0.65552858776E+01  0.37311737095E+01 -0.37818235380E+02  0.38563095797E+02  0.00000000000E+00 0.  1.
         12    1    4    4    0    0  0.59050522961E+02  0.57917447037E+02 -0.29347165839E+01  0.82764772063E+02  0.00000000000E+00 0. -1.
         -5    1    5    5    0  502  0.21511015037E+02 -0.82278044552E+02 -0.15411474898E+03  0.17608477003E+03  0.47000000000E+01 0.  1.
         13    1    6    6    0    0 -0.40142020192E+02  0.10309378610E+02 -0.58092540268E+02  0.71361112010E+02  0.00000000000E+00 0. -1.
        -14    1    6    6    0    0 -0.17926282061E+02 -0.20936368359E+02 -0.31444246037E+03  0.31564813320E+03  0.00000000000E+00 0.  1.
</event>
<event>
12    1  0.8219652E-002  0.1813459E+03  0.7818608E-02  0.1166561E+00
         21   -1    0    0  501  502  0.00000000000E+00  0.00000000000E+00  0.95131729025E+02  0.95131729025E+02  0.00000000000E+00 0.  1.
         21   -1    0    0  502  503 -0.00000000000E+00 -0.00000000000E+00 -0.37175992165E+03  0.37175992165E+03  0.00000000000E+00 0.  1.
         -6    2    1    2    0  503 -0.17727958646E+01 -0.56530294280E+02 -0.75912900105E+02  0.19638662926E+03  0.17206429836E+03 0.  0.
        -24    2    3    3    0    0  0.40882643720E+02  0.23846002520E+01 -0.84353090444E+02  0.12301239579E+03  0.79621157831E+02 0.  0.
          6    2    1    2  501    0  0.17727958646E+01  0.56530294280E+02 -0.20071529252E+03  0.27050502142E+03  0.17230067030E+03 0.  0.
         24    2    5    5    0    0  0.34355270953E+02  0.29163448504E+02 -0.12360482070E+02  0.77346572082E+02  0.61635373974E+02 0.  0.
          5    1    5    5  501    0 -0.32582475088E+02  0.27366845775E+02 -0.18835481045E+03  0.19315844934E+03  0.47000000000E+01 0. -1.
        -11    1    6    6    0    0  0.45461024726E+02  0.38929834216E+02 -0.16319228545E+02  0.62036714787E+02  0.00000000000E+00 0.  1.
         12    1    6    6    0    0 -0.11105753773E+02 -0.97663857118E+01  0.39587464754E+01  0.15309857295E+02  0.00000000000E+00 0. -1.
         -5    1    3    3    0  503 -0.42655439585E+02 -0.58914894532E+02  0.84401903397E+01  0.73374233467E+02  0.47000000000E+01 0.  1.
         13    1    4    4    0    0  0.44534620670E+02  0.51170640043E+01 -0.68178703498E+01  0.45343137721E+02  0.00000000000E+00 0. -1.
        -14    1    4    4    0    0 -0.36519769499E+01 -0.27324637523E+01 -0.77535220095E+02  0.77669258069E+02  0.00000000000E+00 0.  1.
</event>
<event>
12    1  0.8219652E-002  0.1847802E+03  0.7818608E-02  0.1163518E+00
         21   -1    0    0  501  502  0.00000000000E+00  0.00000000000E+00  0.79800302797E+02  0.79800302797E+02  0.00000000000E+00 0.  1.
         21   -1    0    0  502  503 -0.00000000000E+00 -0.00000000000E+00 -0.43210034193E+03  0.43210034193E+03  0.00000000000E+00 0.  1.
         -6    2    1    2    0  503  0.70744627555E+02  0.19792257369E+01 -0.14345842070E+03  0.23304848670E+03  0.16947731122E+03 0.  0.
        -24    2    3    3    0    0  0.66487542366E+02 -0.14499219322E+02 -0.16842100908E+03  0.20247263439E+03  0.89435511540E+02 0.  0.
          6    2    1    2  501    0 -0.70744627555E+02 -0.19792257369E+01 -0.20884161843E+03  0.27885215803E+03  0.17068973252E+03 0.  0.
         24    2    5    5    0    0 -0.53510761832E+02 -0.53604662864E+02 -0.19029249919E+03  0.22116028936E+03  0.83449247026E+02 0.  0.
          5    1    5    5  501    0 -0.17233865723E+02  0.51625437127E+02 -0.18549119241E+02  0.57691868672E+02  0.47000000000E+01 0. -1.
        -13    1    6    6    0    0 -0.16785701041E+02 -0.14164689283E+02  0.14276849942E+01  0.22009917455E+02  0.00000000000E+00 0.  1.
         14    1    6    6    0    0 -0.36725060791E+02 -0.39439973580E+02 -0.19172018418E+03  0.19915037191E+03  0.00000000000E+00 0. -1.
         -5    1    3    3    0  503  0.42570851888E+01  0.16478445059E+02  0.24962588379E+02  0.30575852310E+02  0.47000000000E+01 0.  1.
         11    1    4    4    0    0 -0.22366616778E+02 -0.37549891082E+00 -0.31370452109E+02  0.38529362972E+02  0.00000000000E+00 0. -1.
        -12    1    4    4    0    0  0.88854159144E+02 -0.14123720411E+02 -0.13705055697E+03  0.16394327141E+03  0.00000000000E+00 0.  1.
</event>
<event>
12    1  0.8219652E-002  0.1982707E+03  0.7818608E-02  0.1153435E+00
         21   -1    0    0  501  502  0.00000000000E+00  0.00000000000E+00  0.65648206582E+03  0.65648206582E+03  0.00000000000E+00 0.  1.
         21   -1    0    0  502  503 -0.00000000000E+00 -0.00000000000E+00 -0.62447843260E+02  0.62447843260E+02  0.00000000000E+00 0. -1.
         -6    2    1    2    0  503  0.74315305701E+02  0.32942971910E+02  0.18234813937E+03  0.26198713127E+03  0.16964200235E+03 0.  0.
        -24    2    3    3    0    0  0.10586452842E+03 -0.58251762698E+01  0.16602574878E+03  0.20919666620E+03  0.70409266681E+02 0.  0.
          6    2    1    2  501    0 -0.74315305701E+02 -0.32942971910E+02  0.41168608319E+03  0.45694277781E+03  0.18084044636E+03 0.  0.
         24    2    5    5    0    0  0.20441198987E+02  0.23524897497E+02  0.15818510770E+03  0.18044277775E+03  0.81029650910E+02 0.  0.
          5    1    5    5  501    0 -0.94756504688E+02 -0.56467869407E+02  0.25350097549E+03  0.27650000005E+03  0.47000000000E+01 0. -1.
        -13    1    6    6    0    0  0.26021785796E+02  0.13165829771E+02  0.16451624589E+03  0.16708102098E+03  0.00000000000E+00 0.  1.
         14    1    6    6    0    0 -0.55805868083E+01  0.10359067726E+02 -0.63311381905E+01  0.13361756773E+02  0.00000000000E+00 0. -1.
         -5    1    3    3    0  503 -0.31549222723E+02  0.38768148180E+02  0.16322390587E+02  0.52790465069E+02  0.47000000000E+01 0.  1.
         13    1    4    4    0    0  0.42826498291E+02  0.19606504866E+02  0.26624126227E+02  0.54105157668E+02  0.00000000000E+00 0. -1.
        -14    1    4    4    0    0  0.63038030133E+02 -0.25431681136E+02  0.13940162255E+03  0.15509150853E+03  0.00000000000E+00 0.  1.
</event>
<event>
12    1  0.8219652E-002  0.1798831E+03  0.7818608E-02  0.1169298E+00
         21   -1    0    0  501  502  0.00000000000E+00  0.00000000000E+00  0.11905410676E+03  0.11905410676E+03  0.00000000000E+00 0.  1.
         21   -1    0    0  502  503 -0.00000000000E+00 -0.00000000000E+00 -0.38200686847E+03  0.38200686847E+03  0.00000000000E+00 0.  1.
         -6    2    1    2    0  503 -0.17301421874E+02 -0.19146818535E+02 -0.26963655751E+03  0.32105372602E+03  0.17235336373E+03 0.  0.
        -24    2    3    3    0    0 -0.35340273655E+02  0.24876801643E+02 -0.67091066003E+02  0.11294258880E+03  0.79918877779E+02 0.  0.
          6    2    1    2  501    0  0.17301421874E+02  0.19146818535E+02  0.66837957913E+01  0.18000724920E+03  0.17802246145E+03 0.  0.
         24    2    5    5    0    0 -0.38042479433E+02 -0.25485961588E+02  0.42424041180E+02  0.10029220913E+03  0.78498174902E+02 0.  0.
          5    1    5    5  501    0  0.55343901308E+02  0.44632780123E+02 -0.35740245388E+02  0.79715040073E+02  0.47000000000E+01 0. -1.
        -13    1    6    6    0    0 -0.25001874364E+02 -0.52286909034E+02  0.39934832699E+02  0.70383275292E+02  0.00000000000E+00 0.  1.
         14    1    6    6    0    0 -0.13040605069E+02  0.26800947446E+02  0.24892084808E+01  0.29908933840E+02  0.00000000000E+00 0. -1.
         -5    1    3    3    0  503  0.18038851780E+02 -0.44023620178E+02 -0.20254549151E+03  0.20811113722E+03  0.47000000000E+01 0.  1.
         11    1    4    4    0    0 -0.24601483048E+01 -0.15537039465E+02  0.10908821066E+02  0.19142996163E+02  0.00000000000E+00 0. -1.
        -12    1    4    4    0    0 -0.32880125350E+02  0.40413841109E+02 -0.77999887069E+02  0.93799592637E+02  0.00000000000E+00 0.  1.
</event>
<event>
12    1  0.8219652E-002  0.1964910E+03  0.7818608E-02  0.1152880E+00
         21   -1    0    0  501  502  0.00000000000E+00  0.00000000000E+00  0.12309155716E+03  0.12309155716E+03  0.00000000000E+00 0. -1.
         21   -1    0    0  502  503 -0.00000000000E+00 -0.00000000000E+00 -0.31421358862E+03  0.31421358862E+03  0.00000000000E+00 0. -1.
         -6    2    1    2    0  503 -0.94204995380E+02  0.10477976317E+02 -0.11150435950E+03  0.22592465071E+03  0.17211727534E+03 0.  0.
        -24    2    3    3    0    0 -0.12093627168E+03 -0.17007733555E+02 -0.51304799618E+02  0.15439771599E+03  0.79319779569E+02 0.  0.
          6    2    1    2  501    0  0.94204995380E+02 -0.10477976317E+02 -0.79617671969E+02  0.21138049507E+03  0.17134284597E+03 0.  0.
         24    2    5    5    0    0  0.12459861040E+02  0.43015299270E+02 -0.10076809553E+02  0.91372915864E+02  0.79005718492E+02 0.  0.
          5    1    5    5  501    0  0.81745134340E+02 -0.53493275587E+02 -0.69540862417E+02  0.12000757921E+03  0.47000000000E+01 0. -1.
        -13    1    6    6    0    0 -0.21786926198E+02 -0.12832106094E+02 -0.19716981362E+01  0.25361795944E+02  0.00000000000E+00 0.  1.
         14    1    6    6    0    0  0.34246787238E+02  0.55847405364E+02 -0.81051114164E+01  0.66011119920E+02  0.00000000000E+00 0. -1.
         -5    1    3    3    0  503  0.26731276304E+02  0.27485709872E+02 -0.60199559881E+02  0.71526934716E+02  0.47000000000E+01 0.  1.
         13    1    4    4    0    0 -0.62093535347E+02  0.31002644628E+02 -0.19742437974E+02  0.72156323098E+02  0.00000000000E+00 0. -1.
        -14    1    4    4    0    0 -0.58842736337E+02 -0.48010378184E+02 -0.31562361645E+02  0.82241392896E+02  0.00000000000E+00 0.  1.
</event>
<event>
12    1  0.8219652E-002  0.2163011E+03  0.7818608E-02  0.1136703E+00
         21   -1    0    0  501  502  0.00000000000E+00  0.00000000000E+00  0.30186012489E+03  0.30186012489E+03  0.00000000000E+00 0. -1.
         21   -1    0    0  502  503 -0.00000000000E+00 -0.00000000000E+00 -0.20100436382E+03  0.20100436382E+03  0.00000000000E+00 0. -1.
         -6    2    1    2    0  503 -0.10224593298E+03 -0.79171045665E+02 -0.70040870406E+02  0.22719837694E+03  0.17317936850E+03 0.  0.
        -24    2    3    3    0    0 -0.44272619574E+02 -0.48645947978E+02 -0.10934880219E+03  0.15064845756E+03  0.80070619633E+02 0.  0.
          6    2    1    2  501    0  0.10224593298E+03  0.79171045665E+02  0.17089663148E+03  0.27566611177E+03  0.17338933429E+03 0.  0.
         24    2    5    5    0    0  0.86854636482E+02  0.26681056879E+02  0.18131787215E+03  0.21978424363E+03  0.84695550723E+02 0.  0.
          5    1    5    5  501    0  0.15391296497E+02  0.52489988786E+02 -0.10421240666E+02  0.55881868147E+02  0.47000000000E+01 0. -1.
        -13    1    6    6    0    0 -0.56774200378E+01  0.26583522340E+02  0.19768260701E+02  0.33611023332E+02  0.00000000000E+00 0.  1.
         14    1    6    6    0    0  0.92532056520E+02  0.97534539333E-01  0.16154961144E+03  0.18617322029E+03  0.00000000000E+00 0. -1.
         -5    1    3    3    0  503 -0.57973313405E+02 -0.30525097687E+02  0.39307931780E+02  0.76549919378E+02  0.47000000000E+01 0.  1.
         13    1    4    4    0    0 -0.54032917616E+02 -0.64758130821E+02 -0.94494609461E+02  0.12665860772E+03  0.00000000000E+00 0. -1.
        -14    1    4    4    0    0  0.97602980419E+01  0.16112182843E+02 -0.14854192725E+02  0.23989849840E+02  0.00000000000E+00 0.  1.
</event>
<event>
12    1  0.8219652E-002  0.2279305E+03  0.7818608E-02  0.1128178E+00
         21   -1    0    0  501  502  0.00000000000E+00  0.00000000000E+00  0.13560628172E+04  0.13560628172E+04  0.00000000000E+00 0.  1.
         21   -1    0    0  502  503 -0.00000000000E+00 -0.00000000000E+00 -0.53853554849E+02  0.53853554849E+02  0.00000000000E+00 0. -1.
         -6    2    1    2    0  503 -0.39046889743E+02 -0.14423549110E+03  0.27196497798E+03  0.35484824189E+03  0.17211562691E+03 0.  0.
        -24    2    3    3    0    0 -0.64496512446E+02 -0.32444008351E+02  0.17059899359E+03  0.20173987600E+03  0.79890845277E+02 0.  0.
          6    2    1    2  501    0  0.39046889743E+02  0.14423549110E+03  0.10302442844E+04  0.10550681302E+04  0.17157195960E+03 0.  0.
         24    2    5    5    0    0  0.37988719673E+02  0.17502086480E+03  0.91793277600E+03  0.93851417755E+03  0.78312414574E+02 0.  0.
          5    1    5    5  501    0  0.10581700692E+01 -0.30785373693E+02  0.11231150836E+03  0.11655395260E+03  0.47000000000E+01 0. -1.
        -11    1    6    6    0    0  0.54942235787E+02  0.74064295942E+02  0.39078979683E+03  0.40152314319E+03  0.00000000000E+00 0.  1.
         12    1    6    6    0    0 -0.16953516114E+02  0.10095656885E+03  0.52714297917E+03  0.53699103436E+03  0.00000000000E+00 0. -1.
         -5    1    3    3    0  503  0.25449622703E+02 -0.11179148275E+03  0.10136598439E+03  0.15310836588E+03  0.47000000000E+01 0.  1.
         13    1    4    4    0    0 -0.41670489970E+02 -0.59263488170E+02  0.11634970972E+03  0.13706146692E+03  0.00000000000E+00 0. -1.
        -14    1    4    4    0    0 -0.22826022475E+02  0.26819479818E+02  0.54249283879E+02  0.64678409080E+02  0.00000000000E+00 0.  1.
</event>
<event>
12    1  0.8219652E-002  0.1878994E+03  0.7818608E-02  0.1160540E+00
         21   -1    0    0  501  502  0.00000000000E+00  0.00000000000E+00  0.35673354043E+03  0.35673354043E+03  0.00000000000E+00 0.  1.
         21   -1    0    0  502  503 -0.00000000000E+00 -0.00000000000E+00 -0.12756806801E+03  0.12756806801E+03  0.00000000000E+00 0.  1.
         -6    2    1    2    0  503 -0.75352748590E+02  0.56391544924E+00 -0.67475173710E+00  0.18790065893E+03  0.17212741680E+03 0.  0.
        -24    2    3    3    0    0 -0.63803584169E+02  0.22916099118E+02  0.61540821469E+02  0.12062606593E+03  0.78532350811E+02 0.  0.
          6    2    1    2  501    0  0.75352748590E+02 -0.56391544924E+00  0.22984022416E+03  0.29640094951E+03  0.17131444630E+03 0.  0.
         24    2    5    5    0    0 -0.14611922628E+02  0.32344060226E+02  0.14683965191E+03  0.16956340805E+03  0.77007918176E+02 0.  0.
          5    1    5    5  501    0  0.89964671218E+02 -0.32907975675E+02  0.83000572247E+02  0.12683754146E+03  0.47000000000E+01 0. -1.
        -13    1    6    6    0    0  0.23971868983E+02  0.13350582132E+01  0.94588776871E+02  0.97588265652E+02  0.00000000000E+00 0.  1.
         14    1    6    6    0    0 -0.38583791611E+02  0.31009002013E+02  0.52250875037E+02  0.71975142397E+02  0.00000000000E+00 0. -1.
         -5    1    3    3    0  503 -0.11549164421E+02 -0.22352183668E+02 -0.62215573206E+02  0.67274592997E+02  0.47000000000E+01 0.  1.
         11    1    4    4    0    0 -0.22331210522E+02  0.44700687469E+02  0.53302247228E+02  0.73061371347E+02  0.00000000000E+00 0. -1.
        -12    1    4    4    0    0 -0.41472373647E+02 -0.21784588351E+02  0.82385742409E+01  0.47564694586E+02  0.00000000000E+00 0.  1.
</event>
<event>
12    1  0.8219652E-002  0.1790793E+03  0.7818608E-02  0.1168925E+00
         21   -1    0    0  503  502  0.00000000000E+00  0.00000000000E+00  0.23249625479E+02  0.23249625479E+02  0.00000000000E+00 0. -1.
         21   -1    0    0  501  503 -0.00000000000E+00 -0.00000000000E+00 -0.15024130873E+04  0.15024130873E+04  0.00000000000E+00 0. -1.
          6    2    1    2  501    0 -0.16208475223E+02 -0.44939095365E+02 -0.96595674140E+03  0.98241631326E+03  0.17258954006E+03 0.  0.
         24    2    3    3    0    0  0.16998638353E+02 -0.68821044811E+02 -0.89018602159E+03  0.89618202842E+03  0.75404145169E+02 0.  0.
         -6    2    1    2    0  502  0.16208475223E+02  0.44939095365E+02 -0.51320672045E+03  0.54324639955E+03  0.17161956691E+03 0.  0.
        -24    2    5    5    0    0  0.62391636868E+02  0.41942358651E+02 -0.45969052669E+03  0.47233844622E+03  0.78334855921E+02 0.  0.
          5    1    3    3  501    0 -0.33207113577E+02  0.23881949446E+02 -0.75770719805E+02  0.86234284836E+02  0.47000000000E+01 0. -1.
        -13    1    4    4    0    0  0.46924850250E+02 -0.46076218435E+02 -0.54358161526E+03  0.54754536974E+03  0.00000000000E+00 0.  1.
         14    1    4    4    0    0 -0.29926211896E+02 -0.22744826376E+02 -0.34660440633E+03  0.34863665868E+03  0.00000000000E+00 0. -1.
         -5    1    5    5    0  502 -0.46183161644E+02  0.29967367145E+01 -0.53516193763E+02  0.70907953329E+02  0.47000000000E+01 0.  1.
         13    1    6    6    0    0  0.39155305848E+02  0.58205130851E+02 -0.40175278453E+03  0.40783118457E+03  0.00000000000E+00 0. -1.
        -14    1    6    6    0    0  0.23236331019E+02 -0.16262772200E+02 -0.57937742155E+02  0.64507261645E+02  0.00000000000E+00 0.  1.
</event>
<event>
12    1  0.8219652E-002  0.1840703E+03  0.7818608E-02  0.1164182E+00
         21   -1    0    0  503  502  0.00000000000E+00  0.00000000000E+00  0.59527321495E+02  0.59527321495E+02  0.00000000000E+00 0. -1.
         21   -1    0    0  501  503 -0.00000000000E+00 -0.00000000000E+00 -0.82149422859E+03  0.82149422859E+03  0.00000000000E+00 0. -1.
          6    2    1    2  501    0 -0.61227073225E+02  0.23029387478E+02 -0.62755047889E+03  0.65398890218E+03  0.17205456526E+03 0.  0.
         24    2    3    3    0    0 -0.33936211538E+02 -0.52297517526E+02 -0.40604306384E+03  0.41839060280E+03  0.79328620434E+02 0.  0.
         -6    2    1    2    0  502  0.61227073225E+02 -0.23029387478E+02 -0.13441642820E+03  0.22703264791E+03  0.17087112062E+03 0.  0.
        -24    2    5    5    0    0  0.83498862880E+02  0.33211923106E+02 -0.56540377736E+02  0.12831138947E+03  0.72054884744E+02 0.  0.
          5    1    3    3  501    0 -0.27290861688E+02  0.75326905003E+02 -0.22150741505E+03  0.23559829938E+03  0.47000000000E+01 0. -1.
        -13    1    4    4    0    0  0.17787204136E+02 -0.27349456475E+02 -0.67026846450E+02  0.74545124223E+02  0.00000000000E+00 0.  1.
         14    1    4    4    0    0 -0.51723415674E+02 -0.24948061051E+02 -0.33901621739E+03  0.34384547857E+03  0.00000000000E+00 0. -1.
         -5    1    5    5    0  502 -0.22271789655E+02 -0.56241310584E+02 -0.77876050464E+02  0.98721258433E+02  0.47000000000E+01 0.  1.
         11    1    6    6    0    0  0.85470841401E+02  0.47478980497E+02 -0.58247103226E+02  0.11380792307E+03  0.00000000000E+00 0. -1.
        -12    1    6    6    0    0 -0.19719785207E+01 -0.14267057391E+02  0.17067254901E+01  0.14503466406E+02  0.00000000000E+00 0.  1.
</event>
<event>
12    1  0.8219652E-002  0.1759786E+03  0.7818608E-02  0.1171954E+00
         21   -1    0    0  501  502  0.00000000000E+00  0.00000000000E+00  0.54191752489E+02  0.54191752489E+02  0.00000000000E+00 0.  1.
         21   -1    0    0  502  503 -0.00000000000E+00 -0.00000000000E+00 -0.56889286543E+03  0.56889286543E+03  0.00000000000E+00 0.  1.
         -6    2    1    2    0  503 -0.27973739377E+02  0.19847047151E+02 -0.26058977346E+03  0.31444477135E+03  0.17260373351E+03 0.  0.
        -24    2    3    3    0    0  0.49650972583E+02 -0.27522467269E+01 -0.16050229534E+03  0.18569727713E+03  0.79055031364E+02 0.  0.
          6    2    1    2  501    0  0.27973739377E+02 -0.19847047151E+02 -0.25411133948E+03  0.30863984657E+03  0.17178342954E+03 0.  0.
         24    2    5    5    0    0  0.79452914522E+02 -0.23989352070E+02 -0.21507984643E+03  0.24373367111E+03  0.79110729048E+02 0.  0.
          5    1    5    5  501    0 -0.51479175145E+02  0.41423049184E+01 -0.39031493042E+02  0.64906175459E+02  0.47000000000E+01 0. -1.
        -11    1    6    6    0    0  0.30326290427E+02  0.17275375378E+02 -0.14317302002E+03  0.14736565457E+03  0.00000000000E+00 0.  1.
         12    1    6    6    0    0  0.49126624096E+02 -0.41264727448E+02 -0.71906826418E+02  0.96368016540E+02  0.00000000000E+00 0. -1.
         -5    1    3    3    0  503 -0.77624711961E+02  0.22599293878E+02 -0.10008747813E+03  0.12874749422E+03  0.47000000000E+01 0.  1.
         13    1    4    4    0    0  0.26034879830E+02 -0.39752072964E+02 -0.10230802264E+03  0.11280502546E+03  0.00000000000E+00 0. -1.
        -14    1    4    4    0    0  0.23616092754E+02  0.36999826237E+02 -0.58194272695E+02  0.72892251667E+02  0.00000000000E+00 0.  1.
</event>
<event>
12    1  0.8219652E-002  0.1801454E+03  0.7818608E-02  0.1168061E+00
         21   -1    0    0  501  502  0.00000000000E+00  0.00000000000E+00  0.14896582772E+03  0.14896582772E+03  0.00000000000E+00 0.  1.
         21   -1    0    0  502  503 -0.00000000000E+00 -0.00000000000E+00 -0.49244164395E+03  0.49244164395E+03  0.00000000000E+00 0.  1.
         -6    2    1    2    0  503 -0.68085156360E+01 -0.46836455269E+02 -0.41173487491E+03  0.44876359432E+03  0.17211376164E+03 0.  0.
        -24    2    3    3    0    0 -0.31320225416E+02 -0.48706182590E+02 -0.41218998785E+03  0.42373127672E+03  0.79337003009E+02 0.  0.
          6    2    1    2  501    0  0.68085156360E+01  0.46836455269E+02  0.68259058680E+02  0.19264387735E+03  0.17381701574E+03 0.  0.
         24    2    5    5    0    0 -0.27468486666E+02  0.16281406538E+02 -0.25148047159E+02  0.88454140280E+02  0.78562769161E+02 0.  0.
          5    1    5    5  501    0  0.34277002302E+02  0.30555048732E+02  0.93407105839E+02  0.10418973707E+03  0.47000000000E+01 0. -1.
        -11    1    6    6    0    0  0.16458310521E+02 -0.20645445943E+02 -0.14385917918E+02  0.30067674631E+02  0.00000000000E+00 0.  1.
         12    1    6    6    0    0 -0.43926797187E+02  0.36926852481E+02 -0.10762129241E+02  0.58386465649E+02  0.00000000000E+00 0. -1.
         -5    1    3    3    0  503  0.24511709779E+02  0.18697273207E+01  0.45511294262E+00  0.25032317599E+02  0.47000000000E+01 0.  1.
         13    1    4    4    0    0  0.25824058603E+02 -0.10531351878E+02 -0.15657452364E+03  0.15903890351E+03  0.00000000000E+00 0. -1.
        -14    1    4    4    0    0 -0.57144284019E+02 -0.38174830712E+02 -0.25561546421E+03  0.26469237322E+03  0.00000000000E+00 0.  1.
</event>
<event>
12    1  0.8219652E-002  0.1838865E+03  0.7818608E-02  0.1164948E+00
         21   -1    0    0  501  502  0.00000000000E+00  0.00000000000E+00  0.68374504346E+03  0.68374504346E+03  0.00000000000E+00 0.  1.
         21   -1    0    0  502  503 -0.00000000000E+00 -0.00000000000E+00 -0.69198791183E+02  0.69198791183E+02  0.00000000000E+00 0.  1.
         -6    2    1    2    0  503  0.19790691209E+02  0.56609290544E+02  0.99219888452E+02  0.20579165766E+03  0.17002745914E+03 0.  0.
        -24    2    3    3    0    0  0.72322805384E+02  0.59020935105E+02  0.47126767977E+02  0.13162143284E+03  0.79932536322E+02 0.  0.
          6    2    1    2  501    0 -0.19790691209E+02 -0.56609290544E+02  0.51532636382E+03  0.54715217698E+03  0.17383313922E+03 0.  0.
         24    2    5    5    0    0 -0.60566663269E+02 -0.73693279245E+02  0.45853404121E+03  0.47502728201E+03  0.79362658721E+02 0.  0.
          5    1    5    5  501    0  0.40775972060E+02  0.17083988700E+02  0.56792322617E+02  0.72124894978E+02  0.47000000000E+01 0. -1.
        -13    1    6    6    0    0 -0.26108963369E+02  0.12041117442E+02  0.15853156330E+03  0.16111773037E+03  0.00000000000E+00 0.  1.
         14    1    6    6    0    0 -0.34457699899E+02 -0.85734396687E+02  0.30000247791E+03  0.31390955163E+03  0.00000000000E+00 0. -1.
         -5    1    3    3    0  503 -0.52532114175E+02 -0.24116445612E+01  0.52093120475E+02  0.74170224821E+02  0.47000000000E+01 0.  1.
         11    1    4    4    0    0  0.54594828869E+02  0.33548899285E+02 -0.11673823288E+02  0.65133725002E+02  0.00000000000E+00 0. -1.
        -12    1    4    4    0    0  0.17727976515E+02  0.25472035821E+02  0.58800591265E+02  0.66487707836E+02  0.00000000000E+00 0.  1.
</event>
<event>
12    1  0.8219652E-002  0.1936340E+03  0.7818608E-02  0.1155538E+00
         21   -1    0    0  503  502  0.00000000000E+00  0.00000000000E+00  0.99446819783E+02  0.99446819783E+02  0.00000000000E+00 0. -1.
         21   -1    0    0  501  503 -0.00000000000E+00 -0.00000000000E+00 -0.63206671273E+03  0.63206671273E+03  0.00000000000E+00 0. -1.
          6    2    1    2  501    0 -0.87183447383E+02 -0.45529340371E+01 -0.50048332830E+03  0.53663551506E+03  0.17283642966E+03 0.  0.
         24    2    3    3    0    0 -0.54150309163E+02 -0.48441099156E+00 -0.49276160794E+03  0.50214702328E+03  0.80032119114E+02 0.  0.
         -6    2    1    2    0  502  0.87183447383E+02  0.45529340371E+01 -0.32136564652E+02  0.19487801745E+03  0.17123959879E+03 0.  0.
        -24    2    5    5    0    0  0.11562250232E+03  0.39934314498E+02 -0.28745835070E+02  0.14911548938E+03  0.80285699978E+02 0.  0.
          5    1    3    3  501    0 -0.33033138221E+02 -0.40685230455E+01 -0.77217203598E+01  0.34488491788E+02  0.47000000000E+01 0. -1.
        -13    1    4    4    0    0  0.21646649224E+01  0.18081764545E+02 -0.29806953152E+03  0.29862531977E+03  0.00000000000E+00 0.  1.
         14    1    4    4    0    0 -0.56314974085E+02 -0.18566175536E+02 -0.19469207642E+03  0.20352170351E+03  0.00000000000E+00 0. -1.
         -5    1    5    5    0  502 -0.28439054936E+02 -0.35381380461E+02 -0.33907295817E+01  0.45762528078E+02  0.47000000000E+01 0.  1.
         11    1    6    6    0    0  0.65490886576E+02  0.62770533566E+02 -0.11794024778E+02  0.91478386131E+02  0.00000000000E+00 0. -1.
        -12    1    6    6    0    0  0.50131615743E+02 -0.22836219067E+02 -0.16951810292E+02  0.57637103245E+02  0.00000000000E+00 0.  1.
</event>
<event>
12    1  0.8219652E-002  0.2665766E+03  0.7818608E-02  0.1106062E+00
         21   -1    0    0  501  502  0.00000000000E+00  0.00000000000E+00  0.91472881561E+02  0.91472881561E+02  0.00000000000E+00 0.  1.
         21   -1    0    0  502  503 -0.00000000000E+00 -0.00000000000E+00 -0.85249038959E+03  0.85249038959E+03  0.00000000000E+00 0. -1.
         -6    2    1    2    0  503  0.88828015455E+02  0.16233131604E+03 -0.57551872704E+03  0.63425931979E+03  0.19188852772E+03 0.  0.
        -24    2    3    3    0    0  0.49490326334E+02  0.17552581112E+03 -0.55085190839E+03  0.58576096489E+03  0.80121658988E+02 0.  0.
          6    2    1    2  501    0 -0.88828015455E+02 -0.16233131604E+03 -0.18549878099E+03  0.30970395136E+03  0.16512076563E+03 0.  0.
         24    2    5    5    0    0 -0.48907115348E+02 -0.33110734880E+02 -0.11982193905E+03  0.15928063392E+03  0.86745585299E+02 0.  0.
          5    1    5    5  501    0 -0.39920900107E+02 -0.12922058116E+03 -0.65676841937E+02  0.15042331744E+03  0.47000000000E+01 0. -1.
        -11    1    6    6    0    0 -0.18235017651E+02 -0.53823661258E+01  0.11078604385E+02  0.22005026902E+02  0.00000000000E+00 0.  1.
         12    1    6    6    0    0 -0.30672097697E+02 -0.27728368755E+02 -0.13090054344E+03  0.13727560702E+03  0.00000000000E+00 0. -1.
         -5    1    3    3    0  503  0.39337689121E+02 -0.13194495081E+02 -0.24666818646E+02  0.48498354899E+02  0.47000000000E+01 0.  1.
         11    1    4    4    0    0  0.68314181443E+02  0.13194279696E+03 -0.45765106810E+03  0.48116549044E+03  0.00000000000E+00 0. -1.
        -12    1    4    4    0    0 -0.18823855109E+02  0.43583014161E+02 -0.93200840291E+02  0.10459547445E+03  0.00000000000E+00 0.  1.
</event>
<event>
12    1  0.8219652E-002  0.5015376E+03  0.7818608E-02  0.1013639E+00
         21   -1    0    0  501  502  0.00000000000E+00  0.00000000000E+00  0.44529104787E+03  0.44529104787E+03  0.00000000000E+00 0.  1.
         21   -1    0    0  502  503 -0.00000000000E+00 -0.00000000000E+00 -0.11243097197E+04  0.11243097197E+04  0.00000000000E+00 0. -1.
         -6    2    1    2    0  503  0.33821423851E+02 -0.46718098499E+03 -0.89463637775E+03  0.10236786850E+04  0.16775529869E+03 0.  0.
        -24    2    3    3    0    0  0.84287031770E+02 -0.36307100683E+03 -0.68852303473E+03  0.78726704122E+03  0.82465538912E+02 0.  0.
          6    2    1    2  501    0 -0.33821423851E+02  0.46718098499E+03  0.21561770596E+03  0.54592208256E+03  0.17927064358E+03 0.  0.
         24    2    5    5    0    0  0.38116731773E+01  0.43144907696E+03  0.22508028366E+03  0.49296313977E+03  0.78668216108E+02 0.  0.
          5    1    5    5  501    0 -0.37633097028E+02  0.35731908037E+02 -0.94625777013E+01  0.52958942783E+02  0.47000000000E+01 0. -1.
        -11    1    6    6    0    0  0.24061209262E+02  0.48242025220E+02  0.17522154168E+02  0.56685630235E+02  0.00000000000E+00 0.  1.
         12    1    6    6    0    0 -0.20249536085E+02  0.38320705174E+03  0.20755812949E+03  0.43627750954E+03  0.00000000000E+00 0. -1.
         -5    1    3    3    0  503 -0.50465607919E+02 -0.10410997816E+03 -0.20611334302E+03  0.23641164376E+03  0.47000000000E+01 0.  1.
         13    1    4    4    0    0  0.57862730836E+02 -0.13068116149E+03 -0.32455194339E+03  0.35462603619E+03  0.00000000000E+00 0. -1.
        -14    1    4    4    0    0  0.26424300934E+02 -0.23238984534E+03 -0.36397109134E+03  0.43264100502E+03  0.00000000000E+00 0.  1.
</event>
<event>
12    1  0.8219652E-002  0.2177283E+03  0.7818608E-02  0.1135824E+00
         21   -1    0    0  501  502  0.00000000000E+00  0.00000000000E+00  0.32891953056E+03  0.32891953056E+03  0.00000000000E+00 0. -1.
         21   -1    0    0  502  503 -0.00000000000E+00 -0.00000000000E+00 -0.14746809815E+03  0.14746809815E+03  0.00000000000E+00 0.  1.
         -6    2    1    2    0  503 -0.30643144545E+02  0.12918536288E+03  0.13050095008E+03  0.25277732685E+03  0.17099128255E+03 0.  0.
        -24    2    3    3    0    0 -0.77158352842E+02  0.97621620257E+02  0.13014320536E+03  0.19636675663E+03  0.78353411239E+02 0.  0.
          6    2    1    2  501    0  0.30643144545E+02 -0.12918536288E+03  0.50950482329E+02  0.22361030186E+03  0.17256232253E+03 0.  0.
         24    2    5    5    0    0  0.81697536078E+02 -0.80709216536E+02  0.63089953067E+01  0.14011515216E+03  0.80024917426E+02 0.  0.
          5    1    5    5  501    0 -0.51054391533E+02 -0.48476146348E+02  0.44641487022E+02  0.83495149698E+02  0.47000000000E+01 0. -1.
        -11    1    6    6    0    0  0.48803127961E+02 -0.89784285647E+02  0.18553656800E+02  0.10386145304E+03  0.00000000000E+00 0.  1.
         12    1    6    6    0    0  0.32894408116E+02  0.90750691113E+01 -0.12244661493E+02  0.36253699119E+02  0.00000000000E+00 0. -1.
         -5    1    3    3    0  503  0.46515208297E+02  0.31563742627E+02  0.35774471798E+00  0.56410570222E+02  0.47000000000E+01 0.  1.
         13    1    4    4    0    0  0.16342458636E+02  0.14314302850E+02  0.16835564974E+02  0.27484749741E+02  0.00000000000E+00 0. -1.
        -14    1    4    4    0    0 -0.93500811478E+02  0.83307317407E+02  0.11330764039E+03  0.16888200689E+03  0.00000000000E+00 0.  1.
</event>
<event>
12    1  0.8219652E-002  0.1790324E+03  0.7818608E-02  0.1170401E+00
         21   -1    0    0  503  502  0.00000000000E+00  0.00000000000E+00  0.26266157934E+03  0.26266157934E+03  0.00000000000E+00 0.  1.
         21   -1    0    0  501  503 -0.00000000000E+00 -0.00000000000E+00 -0.12315661064E+03  0.12315661064E+03  0.00000000000E+00 0.  1.
          6    2    1    2  501    0 -0.69105540151E+01  0.48076967627E+02  0.11225137343E+03  0.21131248154E+03  0.17231785586E+03 0.  0.
         24    2    3    3    0    0  0.35397149055E+02  0.84350748161E+02  0.59267787921E+02  0.13427301616E+03  0.78412787907E+02 0.  0.
         -6    2    1    2    0  502  0.69105540151E+01 -0.48076967627E+02  0.27253595274E+02  0.17450570843E+03  0.16537936161E+03 0.  0.
        -24    2    5    5    0    0 -0.10333689748E+02 -0.22892283932E+02  0.78644563492E+02  0.11454944229E+03  0.79408850603E+02 0.  0.
          5    1    3    3  501    0 -0.42307703070E+02 -0.36273780534E+02  0.52983585508E+02  0.77039465383E+02  0.47000000000E+01 0. -1.
        -13    1    4    4    0    0  0.12772160506E+01  0.70488861156E+02  0.66301450492E+02  0.96779094671E+02  0.00000000000E+00 0.  1.
         14    1    4    4    0    0  0.34119933004E+02  0.13861887005E+02 -0.70336625706E+01  0.37493921490E+02  0.00000000000E+00 0. -1.
         -5    1    5    5    0  502  0.17244243763E+02 -0.25184683695E+02 -0.51390968218E+02  0.59956266146E+02  0.47000000000E+01 0.  1.
         11    1    6    6    0    0  0.10493039224E+02 -0.46913411174E+02  0.30759356039E+02  0.57071096047E+02  0.00000000000E+00 0. -1.
        -12    1    6    6    0    0 -0.20826728971E+02  0.24021127242E+02  0.47885207453E+02  0.57478346240E+02  0.00000000000E+00 0.  1.
</event>
<event>
12    1  0.8219652E-002  0.1942835E+03  0.7818608E-02  0.1155424E+00
         21   -1    0    0  501  502  0.00000000000E+00  0.00000000000E+00  0.97950186738E+03  0.97950186738E+03  0.00000000000E+00 0.  1.
         21   -1    0    0  502  503 -0.00000000000E+00 -0.00000000000E+00 -0.50002141157E+02  0.50002141157E+02  0.00000000000E+00 0.  1.
         -6    2    1    2    0  503 -0.89419882775E+02 -0.16263830828E+01  0.20779049742E+03  0.28210164481E+03  0.16854045992E+03 0.  0.
        -24    2    3    3    0    0 -0.75887363042E+02  0.61226918146E+02  0.13417467402E+03  0.18424948070E+03  0.80233413344E+02 0.  0.
          6    2    1    2  501    0  0.89419882775E+02  0.16263830828E+01  0.72170922880E+03  0.74740236372E+03  0.17247469903E+03 0.  0.
         24    2    5    5    0    0  0.68563133733E+02  0.14113261397E+02  0.21258338918E+03  0.23767485154E+03  0.79984687552E+02 0.  0.
          5    1    5    5  501    0  0.20856749042E+02 -0.12486878314E+02  0.50912583962E+03  0.50972751218E+03  0.47000000000E+01 0. -1.
        -11    1    6    6    0    0  0.25895143378E+02  0.12310261243E+02  0.18415105070E+03  0.18636982175E+03  0.00000000000E+00 0.  1.
         12    1    6    6    0    0  0.42667990355E+02  0.18030001541E+01  0.28432338477E+02  0.51305029790E+02  0.00000000000E+00 0. -1.
         -5    1    3    3    0  503 -0.13532519733E+02 -0.62853301229E+02  0.73615823406E+02  0.97852164112E+02  0.47000000000E+01 0.  1.
         11    1    4    4    0    0 -0.17665479597E+02  0.37997548052E+01  0.89015487788E+02  0.90830965932E+02  0.00000000000E+00 0. -1.
        -12    1    4    4    0    0 -0.58221883445E+02  0.57427163341E+02  0.45159186228E+02  0.93418514771E+02  0.00000000000E+00 0.  1.
</event>
<event>
12    1  0.8219652E-002  0.1824356E+03  0.7818608E-02  0.1165499E+00
         21   -1    0    0  503  502  0.00000000000E+00  0.00000000000E+00  0.14280691128E+04  0.14280691128E+04  0.00000000000E+00 0.  1.
         21   -1    0    0  501  503 -0.00000000000E+00 -0.00000000000E+00 -0.75837359247E+02  0.75837359247E+02  0.00000000000E+00 0.  1.
          6    2    1    2  501    0 -0.11189231140E+02  0.58870561249E+02  0.50101969626E+02  0.18905867079E+03  0.17216861434E+03 0.  0.
         24    2    3    3    0    0 -0.12269718915E+02  0.98836435129E+02  0.59523751146E+02  0.14771500748E+03  0.91419142265E+02 0.  0.
         -6    2    1    2    0  502  0.11189231140E+02 -0.58870561249E+02  0.13021297839E+04  0.13148478013E+04  0.17231315798E+03 0.  0.
        -24    2    5    5    0    0  0.55666578120E+01 -0.40731656016E+02  0.12869395844E+04  0.12900795681E+04  0.80010890425E+02 0.  0.
          5    1    3    3  501    0  0.10804877753E+01 -0.39965873880E+02 -0.94217815198E+01  0.41343663309E+02  0.47000000000E+01 0. -1.
        -11    1    4    4    0    0 -0.36322879475E+00  0.34286104613E+02 -0.23729164702E+02  0.41698227326E+02  0.00000000000E+00 0.  1.
         12    1    4    4    0    0 -0.11906490120E+02  0.64550330516E+02  0.83252915847E+02  0.10601678015E+03  0.00000000000E+00 0. -1.
         -5    1    5    5    0  502  0.56225733276E+01 -0.18138905233E+02  0.15190199548E+02  0.24768233206E+02  0.47000000000E+01 0.  1.
         13    1    6    6    0    0 -0.21549006860E+02  0.59681755513E+01  0.13217418062E+03  0.13405220191E+03  0.00000000000E+00 0. -1.
        -14    1    6    6    0    0  0.27115664672E+02 -0.46699831568E+02  0.11547654038E+04  0.11560273661E+04  0.00000000000E+00 0.  1.
</event>
<event>
12    1  0.8219652E-002  0.2165781E+03  0.7818608E-02  0.1138390E+00
         21   -1    0    0  501  502  0.00000000000E+00  0.00000000000E+00  0.99174517075E+03  0.99174517075E+03  0.00000000000E+00 0.  1.
         21   -1    0    0  502  503 -0.00000000000E+00 -0.00000000000E+00 -0.75356876317E+02  0.75356876317E+02  0.00000000000E+00 0.  1.
         -6    2    1    2    0  503  0.99791553686E+02  0.54681012200E+02  0.11407842002E+03  0.23607423488E+03  0.17253634741E+03 0.  0.
        -24    2    3    3    0    0  0.82891362618E+02 -0.28856129172E+02  0.82413261586E+02  0.14503115329E+03  0.80860593327E+02 0.  0.
          6    2    1    2  501    0 -0.99791553686E+02 -0.54681012200E+02  0.80230987441E+03  0.83102781218E+03  0.18427621323E+03 0.  0.
         24    2    5    5    0    0 -0.57989642991E+02 -0.92804462935E+02  0.70928863953E+03  0.72205149654E+03  0.79325421164E+02 0.  0.
          5    1    5    5  501    0 -0.41801910695E+02  0.38123450736E+02  0.93021234872E+02  0.10897631564E+03  0.47000000000E+01 0. -1.
        -11    1    6    6    0    0 -0.52025909140E+02 -0.14587447444E+02  0.36225903100E+03  0.36626642541E+03  0.00000000000E+00 0.  1.
         12    1    6    6    0    0 -0.59637338512E+01 -0.78217015491E+02  0.34702960853E+03  0.35578507112E+03  0.00000000000E+00 0. -1.
         -5    1    3    3    0  503  0.16900191068E+02  0.83537141371E+02  0.31665158437E+02  0.91043081590E+02  0.47000000000E+01 0.  1.
         13    1    4    4    0    0  0.14800530477E+02 -0.25561213869E+02  0.69679804037E+02  0.75681612347E+02  0.00000000000E+00 0. -1.
        -14    1    4    4    0    0  0.68090832141E+02 -0.32949153029E+01  0.12733457549E+02  0.69349540947E+02  0.00000000000E+00 0.  1.
</event>
<event>
12    1  0.8219652E-002  0.1756543E+03  0.7818608E-02  0.1172936E+00
         21   -1    0    0  503  502  0.00000000000E+00  0.00000000000E+00  0.43265824062E+03  0.43265824062E+03  0.00000000000E+00 0. -1.
         21   -1    0    0  501  503 -0.00000000000E+00 -0.00000000000E+00 -0.77985366207E+02  0.77985366207E+02  0.00000000000E+00 0. -1.
          6    2    1    2  501    0  0.31961463784E+02 -0.12637959620E+01  0.25779316239E+03  0.31004422773E+03  0.16925417640E+03 0.  0.
         24    2    3    3    0    0 -0.14894135826E+02  0.48070288301E+02  0.14661483458E+03  0.17961413281E+03  0.90734442686E+02 0.  0.
         -6    2    1    2    0  502 -0.31961463784E+02  0.12637959620E+01  0.96879712018E+02  0.20059937909E+03  0.17271739907E+03 0.  0.
        -24    2    5    5    0    0  0.45393775364E+02  0.27243848369E+02  0.35058914470E+02  0.98116711500E+02  0.74799328045E+02 0.  0.
          5    1    3    3  501    0  0.46855599610E+02 -0.49334084263E+02  0.11117832782E+03  0.13043009492E+03  0.47000000000E+01 0. -1.
        -11    1    4    4    0    0  0.40513405570E+01 -0.23472070828E+02  0.13684203784E+02  0.27470145658E+02  0.00000000000E+00 0.  1.
         12    1    4    4    0    0 -0.18945476383E+02  0.71542359129E+02  0.13293063079E+03  0.15214398716E+03  0.00000000000E+00 0. -1.
         -5    1    5    5    0  502 -0.77355239148E+02 -0.25980052407E+02  0.61820797548E+02  0.10248266759E+03  0.47000000000E+01 0.  1.
         13    1    6    6    0    0  0.38841748208E+02  0.48920591813E+02  0.82249073973E+01  0.63004403092E+02  0.00000000000E+00 0. -1.
        -14    1    6    6    0    0  0.65520271559E+01 -0.21676743444E+02  0.26834007073E+02  0.35112308409E+02  0.00000000000E+00 0.  1.
</event>
<event>
12    1  0.8219652E-002  0.1775150E+03  0.7818608E-02  0.1170492E+00
         21   -1    0    0  501  502  0.00000000000E+00  0.00000000000E+00  0.67205822014E+03  0.67205822014E+03  0.00000000000E+00 0.  1.
         21   -1    0    0  502  503 -0.00000000000E+00 -0.00000000000E+00 -0.10359233698E+03  0.10359233698E+03  0.00000000000E+00 0.  1.
         -6    2    1    2    0  503  0.30164996470E+01  0.41030659244E+02 -0.37875619587E+01  0.17649651394E+03  0.17159271412E+03 0.  0.
        -24    2    3    3    0    0 -0.19626947578E+02  0.30733221844E+02 -0.65872329611E+02  0.10944898383E+03  0.79436567501E+02 0.  0.
          6    2    1    2  501    0 -0.30164996470E+01 -0.41030659244E+02  0.57225344512E+03  0.59915404319E+03  0.17268163698E+03 0.  0.
         24    2    5    5    0    0 -0.37817050942E+02 -0.85131323755E+02  0.38425759308E+03  0.40288770027E+03  0.77376543984E+02 0.  0.
          5    1    5    5  501    0  0.34800551295E+02  0.44100664511E+02  0.18799585203E+03  0.19626634292E+03  0.47000000000E+01 0. -1.
        -11    1    6    6    0    0 -0.26874179250E+02 -0.14168881996E+02  0.23826393073E+03  0.24019300451E+03  0.00000000000E+00 0.  1.
         12    1    6    6    0    0 -0.10942871692E+02 -0.70962441759E+02  0.14599366235E+03  0.16269469576E+03  0.00000000000E+00 0. -1.
         -5    1    3    3    0  503  0.22643447225E+02  0.10297437400E+02  0.62084767652E+02  0.67047530108E+02  0.47000000000E+01 0.  1.
         11    1    4    4    0    0  0.52828061752E+01  0.27590642462E+02  0.97750158330E+01  0.29743949420E+02  0.00000000000E+00 0. -1.
        -12    1    4    4    0    0 -0.24909753753E+02  0.31425793821E+01 -0.75647345444E+02  0.79705034407E+02  0.00000000000E+00 0.  1.
</event>
<event>
12    1  0.8219652E-002  0.1943455E+03  0.7818608E-02  0.1155141E+00
         21   -1    0    0  501  502  0.00000000000E+00  0.00000000000E+00  0.13101327393E+03  0.13101327393E+03  0.00000000000E+00 0. -1.
         21   -1    0    0  502  503 -0.00000000000E+00 -0.00000000000E+00 -0.30292624429E+03  0.30292624429E+03  0.00000000000E+00 0. -1.
         -6    2    1    2    0  503 -0.82242781916E+02 -0.36319020528E+02 -0.32164377811E+02  0.19456563133E+03  0.16952371889E+03 0.  0.
        -24    2    3    3    0    0 -0.17594868263E+02 -0.65830825813E+02  0.16559042145E+02  0.10827333131E+03  0.82496274945E+02 0.  0.
          6    2    1    2  501    0  0.82242781916E+02  0.36319020528E+02 -0.13974859255E+03  0.23937388688E+03  0.17229986120E+03 0.  0.
         24    2    5    5    0    0  0.49248302133E+01  0.10524396541E+02 -0.41307230059E+01  0.81077567208E+02  0.80134213397E+02 0.  0.
          5    1    5    5  501    0  0.77317951702E+02  0.25794623986E+02 -0.13561786954E+03  0.15829631967E+03  0.47000000000E+01 0. -1.
        -13    1    6    6    0    0 -0.26611787361E+02 -0.22269830995E+02 -0.73350973845E+01  0.35467397039E+02  0.00000000000E+00 0.  1.
         14    1    6    6    0    0  0.31536617574E+02  0.32794227536E+02  0.32043743786E+01  0.45610170169E+02  0.00000000000E+00 0. -1.
         -5    1    3    3    0  503 -0.64647913652E+02  0.29511805286E+02 -0.48723419956E+02  0.86292300021E+02  0.47000000000E+01 0.  1.
         11    1    4    4    0    0 -0.14636230138E+02 -0.54075151151E+02 -0.27621224970E+02  0.62460173499E+02  0.00000000000E+00 0. -1.
        -12    1    4    4    0    0 -0.29586381248E+01 -0.11755674662E+02  0.44180267115E+02  0.45813157811E+02  0.00000000000E+00 0.  1.
</event>
<event>
12    1  0.8219652E-002  0.1768527E+03  0.7818608E-02  0.1170937E+00
         21   -1    0    0  501  502  0.00000000000E+00  0.00000000000E+00  0.10257071859E+04  0.10257071859E+04  0.00000000000E+00 0.  1.
         21   -1    0    0  502  503 -0.00000000000E+00 -0.00000000000E+00 -0.39452921469E+02  0.39452921469E+02  0.00000000000E+00 0.  1.
         -6    2    1    2    0  503  0.22027630346E+02  0.34567437452E+02  0.23903129140E+03  0.29734293377E+03  0.17203702439E+03 0.  0.
        -24    2    3    3    0    0  0.79903877075E+02  0.38575256666E+02  0.17190278459E+03  0.20849447302E+03  0.77760516537E+02 0.  0.
          6    2    1    2  501    0 -0.22027630346E+02 -0.34567437452E+02  0.74722297306E+03  0.76781717364E+03  0.17181651965E+03 0.  0.
         24    2    5    5    0    0  0.23907703966E+01 -0.75254425945E+02  0.65326503031E+03  0.66245174129E+03  0.80113452683E+02 0.  0.
          5    1    5    5  501    0 -0.24418400743E+02  0.40686988493E+02  0.93957942753E+02  0.10536543235E+03  0.47000000000E+01 0. -1.
        -13    1    6    6    0    0  0.15472427153E+02 -0.83647908517E+02  0.41220302658E+03  0.42088918224E+03  0.00000000000E+00 0.  1.
         14    1    6    6    0    0 -0.13081656756E+02  0.83934825716E+01  0.24106200373E+03  0.24156255905E+03  0.00000000000E+00 0. -1.
         -5    1    3    3    0  503 -0.57876246729E+02 -0.40078192140E+01  0.67128506813E+02  0.88848460747E+02  0.47000000000E+01 0.  1.
         13    1    4    4    0    0  0.28826986648E+02 -0.18299157328E+02  0.90973821903E+02  0.97170420344E+02  0.00000000000E+00 0. -1.
        -14    1    4    4    0    0  0.51076890427E+02  0.56874413994E+02  0.80928962684E+02  0.11132405268E+03  0.00000000000E+00 0.  1.
</event>
<event>
12    1  0.8219652E-002  0.2263396E+03  0.7818608E-02  0.1129609E+00
         21   -1    0    0  503  502  0.00000000000E+00  0.00000000000E+00  0.60366603795E+03  0.60366603795E+03  0.00000000000E+00 0. -1.
         21   -1    0    0  501  503 -0.00000000000E+00 -0.00000000000E+00 -0.35605435093E+03  0.35605435093E+03  0.00000000000E+00 0. -1.
          6    2    1    2  501    0 -0.10464534076E+03 -0.10240016425E+03 -0.29569667069E+03  0.37115130603E+03  0.16994213700E+03 0.  0.
         24    2    3    3    0    0 -0.34857685078E+02 -0.11076900090E+03 -0.25246746942E+03  0.28850018290E+03  0.77509371358E+02 0.  0.
         -6    2    1    2    0  502  0.10464534076E+03  0.10240016425E+03  0.54330835771E+03  0.58856908285E+03  0.17260693136E+03 0.  0.
        -24    2    5    5    0    0  0.11279065607E+03  0.40301426432E+02  0.26776696290E+03  0.30596025487E+03  0.86986171736E+02 0.  0.
          5    1    3    3  501    0 -0.69787655683E+02  0.83688366498E+01 -0.43229201274E+02  0.82651123134E+02  0.47000000000E+01 0. -1.
        -11    1    4    4    0    0 -0.28494882433E+02 -0.10093723397E+03 -0.13748634086E+03  0.17292419568E+03  0.00000000000E+00 0.  1.
         12    1    4    4    0    0 -0.63628026448E+01 -0.98317669296E+01 -0.11498112855E+03  0.11557598722E+03  0.00000000000E+00 0. -1.
         -5    1    5    5    0  502 -0.81453153039E+01  0.62098737817E+02  0.27554139481E+03  0.28260882798E+03  0.47000000000E+01 0.  1.
         13    1    6    6    0    0  0.20037677094E+02  0.39092500468E+02  0.37667523920E+02  0.57866868365E+02  0.00000000000E+00 0. -1.
        -14    1    6    6    0    0  0.92752978971E+02  0.12089259642E+01  0.23009943898E+03  0.24809338650E+03  0.00000000000E+00 0.  1.
</event>
<event>
12    1  0.8219652E-002  0.1863877E+03  0.7818608E-02  0.1161970E+00
         21   -1    0    0  501  502  0.00000000000E+00  0.00000000000E+00  0.62120736569E+03  0.62120736569E+03  0.00000000000E+00 0. -1.
         21   -1    0    0  502  503 -0.00000000000E+00 -0.00000000000E+00 -0.71870756031E+02  0.71870756031E+02  0.00000000000E+00 0. -1.
         -6    2    1    2    0  503 -0.38676663925E+02 -0.55989367133E+02  0.11057051487E+03  0.21671688115E+03  0.17352139422E+03 0.  0.
        -24    2    3    3    0    0 -0.61920878324E+02  0.15890392173E+02  0.94731326320E+02  0.13938665940E+03  0.79799228676E+02 0.  0.
          6    2    1    2  501    0  0.38676663925E+02  0.55989367133E+02  0.43876609479E+03  0.47636124057E+03  0.17255043327E+03 0.  0.
         24    2    5    5    0    0  0.80128180690E+02  0.30546703121E+01  0.31722486128E+03  0.33738400570E+03  0.82258728045E+02 0.  0.
          5    1    5    5  501    0 -0.41451516765E+02  0.52934696821E+02  0.12154123351E+03  0.13897723487E+03  0.47000000000E+01 0. -1.
        -13    1    6    6    0    0  0.14852960030E+02 -0.43932107584E+01  0.22756298834E+01  0.15655325413E+02  0.00000000000E+00 0.  1.
         14    1    6    6    0    0  0.65275220660E+02  0.74478810705E+01  0.31494923139E+03  0.32172868029E+03  0.00000000000E+00 0. -1.
         -5    1    3    3    0  503  0.23244214399E+02 -0.71879759306E+02  0.15839188551E+02  0.77330221744E+02  0.47000000000E+01 0.  1.
         11    1    4    4    0    0 -0.20324044635E+02 -0.12137097369E+02  0.85075596133E+02  0.88307604317E+02  0.00000000000E+00 0. -1.
        -12    1    4    4    0    0 -0.41596833689E+02  0.28027489542E+02  0.96557301870E+01  0.51079055085E+02  0.00000000000E+00 0.  1.
</event>
<event>
12    1  0.8219652E-002  0.1835909E+03  0.7818608E-02  0.1164577E+00
         21   -1    0    0  503  502  0.00000000000E+00  0.00000000000E+00  0.59461428592E+03  0.59461428592E+03  0.00000000000E+00 0. -1.
         21   -1    0    0  501  503 -0.00000000000E+00 -0.00000000000E+00 -0.60652973558E+02  0.60652973558E+02  0.00000000000E+00 0. -1.
          6    2    1    2  501    0  0.21378364697E+01  0.64227069250E+02  0.17981876067E+03  0.25636556950E+03  0.17105213171E+03 0.  0.
         24    2    3    3    0    0 -0.55903244596E+02  0.39051899940E+01  0.10539802645E+03  0.14425833561E+03  0.81001852738E+02 0.  0.
         -6    2    1    2    0  502 -0.21378364697E+01 -0.64227069250E+02  0.35414255169E+03  0.39890168998E+03  0.17197652336E+03 0.  0.
        -24    2    5    5    0    0 -0.52062368792E+02 -0.85237014790E+02  0.26887748803E+03  0.29777751968E+03  0.80003179446E+02 0.  0.
          5    1    3    3  501    0  0.58041081066E+02  0.60321879256E+02  0.74420734222E+02  0.11210723389E+03  0.47000000000E+01 0. -1.
        -13    1    4    4    0    0 -0.92289708311E+01 -0.75556888995E+01  0.94145236300E+02  0.94897775818E+02  0.00000000000E+00 0.  1.
         14    1    4    4    0    0 -0.46674273765E+02  0.11460878893E+02  0.11252790153E+02  0.49360559789E+02  0.00000000000E+00 0. -1.
         -5    1    5    5    0  502  0.49924532322E+02  0.21009945540E+02  0.85265063656E+02  0.10112417030E+03  0.47000000000E+01 0.  1.
         13    1    6    6    0    0 -0.58991970927E+02 -0.37424729037E+02  0.99028191807E+02  0.12119094747E+03  0.00000000000E+00 0. -1.
        -14    1    6    6    0    0  0.69296021349E+01 -0.47812285753E+02  0.16984929623E+03  0.17658657221E+03  0.00000000000E+00 0.  1.
</event>
<event>
12    1  0.8219652E-002  0.1775370E+03  0.7818608E-02  0.1170707E+00
         21   -1    0    0  501  502  0.00000000000E+00  0.00000000000E+00  0.10288236043E+04  0.10288236043E+04  0.00000000000E+00 0. -1.
         21   -1    0    0  502  503 -0.00000000000E+00 -0.00000000000E+00 -0.48540094980E+02  0.48540094980E+02  0.00000000000E+00 0. -1.
         -6    2    1    2    0  503  0.39624122661E+02  0.13612980994E+02  0.16158519674E+03  0.24006073318E+03  0.17252244915E+03 0.  0.
        -24    2    3    3    0    0  0.69089244174E+02  0.40083150354E+02  0.51956743573E+02  0.12340161011E+03  0.78412190201E+02 0.  0.
          6    2    1    2  501    0 -0.39624122661E+02 -0.13612980994E+02  0.81869831253E+03  0.83730296605E+03  0.17045218000E+03 0.  0.
         24    2    5    5    0    0 -0.27212880391E+01  0.44339146759E+02  0.29003358303E+03  0.30417188035E+03  0.80172864305E+02 0.  0.
          5    1    5    5  501    0 -0.36902834622E+02 -0.57952127753E+02  0.52866472950E+03  0.53313108570E+03  0.47000000000E+01 0. -1.
        -13    1    6    6    0    0 -0.28878176437E+02  0.48376316982E+02  0.12607653438E+03  0.13809239530E+03  0.00000000000E+00 0.  1.
         14    1    6    6    0    0  0.26156888398E+02 -0.40371702235E+01  0.16395704865E+03  0.16607948505E+03  0.00000000000E+00 0. -1.
         -5    1    3    3    0  503 -0.29465121514E+02 -0.26470169361E+02  0.10962845317E+03  0.11665912307E+03  0.47000000000E+01 0.  1.
         13    1    4    4    0    0  0.85579687038E+01  0.27365750730E+01 -0.20184758578E+02  0.22094165527E+02  0.00000000000E+00 0. -1.
        -14    1    4    4    0    0  0.60531275471E+02  0.37346575281E+02  0.72141502151E+02  0.10130744458E+03  0.00000000000E+00 0.  1.
</event>
<event>
12    1  0.8219652E-002  0.1969768E+03  0.7818608E-02  0.1152770E+00
         21   -1    0    0  503  502  0.00000000000E+00  0.00000000000E+00  0.38597102411E+03  0.38597102411E+03  0.00000000000E+00 0.  1.
         21   -1    0    0  501  503 -0.00000000000E+00 -0.00000000000E+00 -0.14876658159E+03  0.14876658159E+03  0.00000000000E+00 0.  1.
          6    2    1    2  501    0  0.70893023453E+02  0.62336516847E+02 -0.34904708112E+02  0.20004545560E+03  0.17288199314E+03 0.  0.
         24    2    3    3    0    0  0.30744606351E+02  0.31075382425E+02 -0.87637085371E+02  0.12661557386E+03  0.80251695304E+02 0.  0.
         -6    2    1    2    0  502 -0.70893023453E+02 -0.62336516847E+02  0.27210915063E+03  0.33469215009E+03  0.17048103522E+03 0.  0.
        -24    2    5    5    0    0  0.92592743435E+01 -0.41058312255E+02  0.21887568030E+03  0.23603595314E+03  0.77684545332E+02 0.  0.
          5    1    3    3  501    0  0.40148417102E+02  0.31261134421E+02  0.52732377258E+02  0.73429881740E+02  0.47000000000E+01 0. -1.
        -13    1    4    4    0    0  0.50688021962E+02  0.44266423050E+02 -0.68053913880E+02  0.95708552253E+02  0.00000000000E+00 0.  1.
         14    1    4    4    0    0 -0.19943415611E+02 -0.13191040625E+02 -0.19583171491E+02  0.30907021607E+02  0.00000000000E+00 0. -1.
         -5    1    5    5    0  502 -0.80152297796E+02 -0.21278204591E+02  0.53233470334E+02  0.98656196949E+02  0.47000000000E+01 0.  1.
         11    1    6    6    0    0  0.24212174371E+01  0.23394472221E+02  0.56083572694E+02  0.60815546947E+02  0.00000000000E+00 0. -1.
        -12    1    6    6    0    0  0.68380569065E+01 -0.64452784477E+02  0.16279210760E+03  0.17522040619E+03  0.00000000000E+00 0.  1.
</event>
<event>
12    1  0.8219652E-002  0.3038938E+03  0.7818608E-02  0.1083427E+00
         21   -1    0    0  501  502  0.00000000000E+00  0.00000000000E+00  0.64650585055E+02  0.64650585055E+02  0.00000000000E+00 0. -1.
         21   -1    0    0  502  503 -0.00000000000E+00 -0.00000000000E+00 -0.15273254678E+04  0.15273254678E+04  0.00000000000E+00 0.  1.
         -6    2    1    2    0  503  0.58575125932E+02 -0.24260759885E+03 -0.93944772736E+03  0.98737707711E+03  0.17338387347E+03 0.  0.
        -24    2    3    3    0    0  0.33912184585E+02 -0.20963037361E+03 -0.90722042562E+03  0.93487520060E+03  0.76470976421E+02 0.  0.
          6    2    1    2  501    0 -0.58575125932E+02  0.24260759885E+03 -0.52322715536E+03  0.60459897571E+03  0.17170839504E+03 0.  0.
         24    2    5    5    0    0 -0.53853609667E+02  0.85427508203E+02 -0.33865338199E+03  0.36207590170E+03  0.78833844425E+02 0.  0.
          5    1    5    5  501    0 -0.47215162642E+01  0.15718009065E+03 -0.18457377337E+03  0.24252307401E+03  0.47000000000E+01 0. -1.
        -11    1    6    6    0    0  0.16101093101E+02  0.28477908673E+02 -0.14201861113E+03  0.14573785503E+03  0.00000000000E+00 0.  1.
         12    1    6    6    0    0 -0.69954702768E+02  0.56949599530E+02 -0.19663477086E+03  0.21633804667E+03  0.00000000000E+00 0. -1.
         -5    1    3    3    0  503  0.24662941347E+02 -0.32977225237E+02 -0.32227301736E+02  0.52501876512E+02  0.47000000000E+01 0.  1.
         13    1    4    4    0    0  0.47880663268E+02 -0.80897571498E+02 -0.44745770331E+03  0.45722573335E+03  0.00000000000E+00 0. -1.
        -14    1    4    4    0    0 -0.13968478684E+02 -0.12873280212E+03 -0.45976272231E+03  0.47764946725E+03  0.00000000000E+00 0.  1.
</event>
<event>
12    1  0.8219652E-002  0.1968012E+03  0.7818608E-02  0.1152582E+00
         21   -1    0    0  501  502  0.00000000000E+00  0.00000000000E+00  0.39511584273E+03  0.39511584273E+03  0.00000000000E+00 0. -1.
         21   -1    0    0  502  503 -0.00000000000E+00 -0.00000000000E+00 -0.20492505871E+03  0.20492505871E+03  0.00000000000E+00 0. -1.
         -6    2    1    2    0  503  0.92414362310E+02 -0.26511479354E+02 -0.12193106163E+03  0.23105477493E+03  0.17110187704E+03 0.  0.
        -24    2    3    3    0    0  0.16755229540E+02 -0.62753926382E+02 -0.10096609418E+03  0.14445547240E+03  0.80339519161E+02 0.  0.
          6    2    1    2  501    0 -0.92414362310E+02  0.26511479354E+02  0.31212184566E+03  0.36898612651E+03  0.17171907909E+03 0.  0.
         24    2    5    5    0    0  0.93935630546E+01  0.45266404185E+02  0.17206793468E+03  0.19476273873E+03  0.78662976517E+02 0.  0.
          5    1    5    5  501    0 -0.10180792536E+03 -0.18754924831E+02  0.14005391097E+03  0.17422338779E+03  0.47000000000E+01 0. -1.
        -13    1    6    6    0    0 -0.39128543807E+01 -0.27491912263E+01 -0.72311816811E+01  0.86693984976E+01  0.00000000000E+00 0.  1.
         14    1    6    6    0    0  0.13306417435E+02  0.48015595411E+02  0.17929911637E+03  0.18609334023E+03  0.00000000000E+00 0. -1.
         -5    1    3    3    0  503  0.75659132770E+02  0.36242447028E+02 -0.20964967449E+02  0.86599302527E+02  0.47000000000E+01 0.  1.
         13    1    4    4    0    0  0.40603515804E+02 -0.52344623237E+02 -0.97965836083E+02  0.11826204005E+03  0.00000000000E+00 0. -1.
        -14    1    4    4    0    0 -0.23848286263E+02 -0.10409303144E+02 -0.30002580986E+01  0.26193432351E+02  0.00000000000E+00 0.  1.
</event>
<event>
12    1  0.8219652E-002  0.2487785E+03  0.7818608E-02  0.1114198E+00
         21   -1    0    0  503  502  0.00000000000E+00  0.00000000000E+00  0.81628531084E+03  0.81628531084E+03  0.00000000000E+00 0.  1.
         21   -1    0    0  501  503 -0.00000000000E+00 -0.00000000000E+00 -0.75884301652E+02  0.75884301652E+02  0.00000000000E+00 0. -1.
          6    2    1    2  501    0  0.17608015636E+03  0.32851251845E+02  0.39843613156E+03  0.46972554019E+03  0.17264792488E+03 0.  0.
         24    2    3    3    0    0  0.18759205669E+03 -0.10148038638E+02  0.32300393359E+03  0.38201254616E+03  0.79424693178E+02 0.  0.
         -6    2    1    2    0  502 -0.17608015636E+03 -0.32851251845E+02  0.34196487763E+03  0.42244407231E+03  0.17156803456E+03 0.  0.
        -24    2    5    5    0    0 -0.11249718882E+03 -0.45633200351E+02  0.10641628955E+03  0.17808491181E+03  0.75178472099E+02 0.  0.
          5    1    3    3  501    0 -0.11511900334E+02  0.42999290483E+02  0.75432197971E+02  0.87712994032E+02  0.47000000000E+01 0. -1.
        -13    1    4    4    0    0  0.10762072650E+03  0.21333800105E+02  0.23314204258E+03  0.25766754513E+03  0.00000000000E+00 0.  1.
         14    1    4    4    0    0  0.79971330188E+02 -0.31481838743E+02  0.89861891013E+02  0.12434500102E+03  0.00000000000E+00 0. -1.
         -5    1    5    5    0  502 -0.63582967533E+02  0.12781948505E+02  0.23554858808E+03  0.24435916049E+03  0.47000000000E+01 0.  1.
         13    1    6    6    0    0 -0.27439747918E+02  0.13923074600E+02  0.20101073752E+01  0.30835568809E+02  0.00000000000E+00 0. -1.
        -14    1    6    6    0    0 -0.85057440905E+02 -0.59556274951E+02  0.10440618217E+03  0.14724934301E+03  0.00000000000E+00 0.  1.
</event>
<event>
12    1  0.8219652E-002  0.1928601E+03  0.7818608E-02  0.1156378E+00
         21   -1    0    0  501  502  0.00000000000E+00  0.00000000000E+00  0.49283401785E+03  0.49283401785E+03  0.00000000000E+00 0.  1.
         21   -1    0    0  502  503 -0.00000000000E+00 -0.00000000000E+00 -0.75571645925E+02  0.75571645925E+02  0.00000000000E+00 0.  1.
         -6    2    1    2    0  503  0.50885276308E+02 -0.66164370625E+02  0.24123025261E+03  0.30884793162E+03  0.17386194181E+03 0.  0.
        -24    2    3    3    0    0 -0.22198397008E+02 -0.56990163911E+02  0.20094078183E+03  0.22476035329E+03  0.79996068632E+02 0.  0.
          6    2    1    2  501    0 -0.50885276308E+02  0.66164370625E+02  0.17603211931E+03  0.25955773215E+03  0.17151056528E+03 0.  0.
         24    2    5    5    0    0 -0.87439034123E+02  0.41834641489E+02  0.64960894650E+02  0.14002940965E+03  0.77411858378E+02 0.  0.
          5    1    5    5  501    0  0.36553757815E+02  0.24329729136E+02  0.11107122466E+03  0.11952832249E+03  0.47000000000E+01 0. -1.
        -13    1    6    6    0    0  0.40795513430E+01  0.27617825288E+02  0.18985803929E+01  0.27981987426E+02  0.00000000000E+00 0.  1.
         14    1    6    6    0    0 -0.91518585467E+02  0.14216816201E+02  0.63062314257E+02  0.11204742223E+03  0.00000000000E+00 0. -1.
         -5    1    3    3    0  503  0.73083673316E+02 -0.91742067138E+01  0.40289470781E+02  0.84087578334E+02  0.47000000000E+01 0.  1.
         13    1    4    4    0    0 -0.11976550126E+02 -0.47054972148E+02  0.39230646611E+02  0.62423167096E+02  0.00000000000E+00 0. -1.
        -14    1    4    4    0    0 -0.10221846882E+02 -0.99351917626E+01  0.16171013522E+03  0.16233718619E+03  0.00000000000E+00 0.  1.
</event>
<event>
12    1  0.8219652E-002  0.1913259E+03  0.7818608E-02  0.1157776E+00
         21   -1    0    0  503  502  0.00000000000E+00  0.00000000000E+00  0.56365876128E+03  0.56365876128E+03  0.00000000000E+00 0. -1.
         21   -1    0    0  501  503 -0.00000000000E+00 -0.00000000000E+00 -0.35584204057E+03  0.35584204057E+03  0.00000000000E+00 0. -1.
          6    2    1    2  501    0  0.68229740966E+02  0.45723006239E+02 -0.31242941342E+03  0.36518893277E+03  0.17030833037E+03 0.  0.
         24    2    3    3    0    0 -0.79064424204E-01 -0.28343047056E+02 -0.17893548507E+03  0.19787308758E+03  0.79577109798E+02 0.  0.
         -6    2    1    2    0  502 -0.68229740966E+02 -0.45723006239E+02  0.52024613412E+03  0.55431186908E+03  0.17279964492E+03 0.  0.
        -24    2    5    5    0    0 -0.64823980393E+02 -0.50769413716E+02  0.52971809384E+03  0.54211049807E+03  0.80640259000E+02 0.  0.
          5    1    3    3  501    0  0.68308805390E+02  0.74066053294E+02 -0.13349392835E+03  0.16731584519E+03  0.47000000000E+01 0. -1.
        -13    1    4    4    0    0 -0.18209749307E+02 -0.41702021057E+01 -0.24752542985E+01  0.18844427274E+02  0.00000000000E+00 0.  1.
         14    1    4    4    0    0  0.18130684883E+02 -0.24172844950E+02 -0.17646023077E+03  0.17902866031E+03  0.00000000000E+00 0. -1.
         -5    1    5    5    0  502 -0.34057605729E+01  0.50464074771E+01 -0.94719597230E+01  0.12201371009E+02  0.47000000000E+01 0.  1.
         13    1    6    6    0    0 -0.40643205437E+02 -0.40366642893E+02  0.49617992726E+03  0.49947558121E+03  0.00000000000E+00 0. -1.
        -14    1    6    6    0    0 -0.24180774956E+02 -0.10402770823E+02  0.33538166584E+02  0.42634916865E+02  0.00000000000E+00 0.  1.
</event>
<event>
12    1  0.8219652E-002  0.1909787E+03  0.7818608E-02  0.1157610E+00
         21   -1    0    0  503  502  0.00000000000E+00  0.00000000000E+00  0.22637560416E+03  0.22637560416E+03  0.00000000000E+00 0.  1.
         21   -1    0    0  501  503 -0.00000000000E+00 -0.00000000000E+00 -0.16666278869E+03  0.16666278869E+03  0.00000000000E+00 0. -1.
          6    2    1    2  501    0  0.83571296223E+02  0.33307624051E+01  0.66056456553E+02  0.20207994844E+03  0.17169040328E+03 0.  0.
         24    2    3    3    0    0  0.11034924003E+03  0.31155853548E+02  0.19101394267E+02  0.14110321644E+03  0.79985076369E+02 0.  0.
         -6    2    1    2    0  502 -0.83571296223E+02 -0.33307624051E+01 -0.63436410827E+01  0.19095844441E+03  0.17155066360E+03 0.  0.
        -24    2    5    5    0    0 -0.34612721763E+02  0.30284226367E+02 -0.60350870063E+02  0.11054836877E+03  0.80396140738E+02 0.  0.
          5    1    3    3  501    0 -0.26777943803E+02 -0.27825091142E+02  0.46955062286E+02  0.60976732002E+02  0.47000000000E+01 0. -1.
        -11    1    4    4    0    0  0.11410254235E+02  0.35476743009E+02  0.19519504455E+02  0.42069041472E+02  0.00000000000E+00 0.  1.
         12    1    4    4    0    0  0.98938985791E+02 -0.43208894614E+01 -0.41811018816E+00  0.99034174966E+02  0.00000000000E+00 0. -1.
         -5    1    5    5    0  502 -0.48958574460E+02 -0.33614988772E+02  0.54007228980E+02  0.80410075646E+02  0.47000000000E+01 0.  1.
         13    1    6    6    0    0 -0.42036214138E+02  0.43534521445E+02 -0.70016763577E+02  0.92545367460E+02  0.00000000000E+00 0. -1.
        -14    1    6    6    0    0  0.74234923748E+01 -0.13250295078E+02  0.96658935145E+01  0.18003001309E+02  0.00000000000E+00 0.  1.
</event>
<event>
12    1  0.8219652E-002  0.1819555E+03  0.7818608E-02  0.1166510E+00
         21   -1    0    0  501  502  0.00000000000E+00  0.00000000000E+00  0.91673583938E+02  0.91673583938E+02  0.00000000000E+00 0. -1.
         21   -1    0    0  502  503 -0.00000000000E+00 -0.00000000000E+00 -0.62535031353E+03  0.62535031353E+03  0.00000000000E+00 0. -1.
         -6    2    1    2    0  503  0.16235598747E+02  0.57952848983E+02 -0.50095626547E+03  0.53214976823E+03  0.16912737372E+03 0.  0.
        -24    2    3    3    0    0 -0.24188061978E+02  0.93488173273E+02 -0.38294509879E+03  0.40235933299E+03  0.76947925709E+02 0.  0.
          6    2    1    2  501    0 -0.16235598747E+02 -0.57952848983E+02 -0.32720464127E+02  0.18487412925E+03  0.17171397008E+03 0.  0.
         24    2    5    5    0    0 -0.28230736540E+02  0.32841127984E+02 -0.13108757056E+02  0.91097060414E+02  0.79065294104E+02 0.  0.
          5    1    5    5  501    0  0.11995137793E+02 -0.90793976967E+02 -0.19611707071E+02  0.93777068831E+02  0.47000000000E+01 0. -1.
        -11    1    6    6    0    0 -0.50488168360E+02  0.71793829668E+01 -0.22669693011E+02  0.55807827993E+02  0.00000000000E+00 0.  1.
         12    1    6    6    0    0  0.22257431820E+02  0.25661745017E+02  0.95609359552E+01  0.35289232421E+02  0.00000000000E+00 0. -1.
         -5    1    3    3    0  503  0.40423660724E+02 -0.35535324290E+02 -0.11801116667E+03  0.12979043524E+03  0.47000000000E+01 0.  1.
         11    1    4    4    0    0  0.65881075667E+01  0.77039648539E+02 -0.33008180757E+03  0.33901697641E+03  0.00000000000E+00 0. -1.
        -12    1    4    4    0    0 -0.30776169545E+02  0.16448524734E+02 -0.52863291225E+02  0.63342356578E+02  0.00000000000E+00 0.  1.
</event>
<event>
12    1  0.8219652E-002  0.1744948E+03  0.7818608E-02  0.1173317E+00
         21   -1    0    0  503  502  0.00000000000E+00  0.00000000000E+00  0.43384971925E+03  0.43384971925E+03  0.00000000000E+00 0. -1.
         21   -1    0    0  501  503 -0.00000000000E+00 -0.00000000000E+00 -0.87660522694E+02  0.87660522694E+02  0.00000000000E+00 0. -1.
          6    2    1    2  501    0 -0.29720811667E+02 -0.67967368480E+01  0.56372150154E+02  0.18337459496E+03  0.17181065300E+03 0.  0.
         24    2    3    3    0    0  0.46689329175E+02 -0.13991585401E+02  0.50835925607E+02  0.10628364055E+03  0.79600646952E+02 0.  0.
         -6    2    1    2    0  502  0.29720811667E+02  0.67967368480E+01  0.28981704640E+03  0.33813564698E+03  0.17150006735E+03 0.  0.
        -24    2    5    5    0    0 -0.48639623791E+02 -0.11612623080E+02  0.16181381602E+03  0.18685385904E+03  0.78930270260E+02 0.  0.
          5    1    3    3  501    0 -0.76410140842E+02  0.71948485526E+01  0.55362245470E+01  0.77090954408E+02  0.47000000000E+01 0. -1.
        -13    1    4    4    0    0  0.65942242077E+02  0.20757552510E+01  0.25774935132E+02  0.70831033672E+02  0.00000000000E+00 0.  1.
         14    1    4    4    0    0 -0.19252912902E+02 -0.16067340652E+02  0.25060990475E+02  0.35452606877E+02  0.00000000000E+00 0. -1.
         -5    1    5    5    0  502  0.78360435458E+02  0.18409359928E+02  0.12800323037E+03  0.15128178795E+03  0.47000000000E+01 0.  1.
         11    1    6    6    0    0  0.11362655463E+02 -0.25719545351E+02  0.77265340015E+02  0.82222489137E+02  0.00000000000E+00 0. -1.
        -12    1    6    6    0    0 -0.60002279255E+02  0.14106922271E+02  0.84548476010E+02  0.10463136990E+03  0.00000000000E+00 0.  1.
</event>
<event>
12    1  0.8219652E-002  0.1925253E+03  0.7818608E-02  0.1156398E+00
         21   -1    0    0  501  502  0.00000000000E+00  0.00000000000E+00  0.60219575197E+03  0.60219575197E+03  0.00000000000E+00 0. -1.
         21   -1    0    0  502  503 -0.00000000000E+00 -0.00000000000E+00 -0.61568249348E+02  0.61568249348E+02  0.00000000000E+00 0.  1.
         -6    2    1    2    0  503 -0.41248711161E+02 -0.74877868169E+02  0.24789129640E+03  0.31387274184E+03  0.17250464320E+03 0.  0.
        -24    2    3    3    0    0 -0.37147428466E+02  0.46352583412E+00  0.47144089523E+02  0.99362422183E+02  0.79184464810E+02 0.  0.
          6    2    1    2  501    0  0.41248711161E+02  0.74877868169E+02  0.29273620622E+03  0.34989125948E+03  0.17152625371E+03 0.  0.
         24    2    5    5    0    0  0.88358577205E+02  0.24291487298E+02  0.18837891191E+03  0.22462811133E+03  0.81079340316E+02 0.  0.
          5    1    5    5  501    0 -0.47109866044E+02  0.50586380871E+02  0.10435729431E+03  0.12526314815E+03  0.47000000000E+01 0. -1.
        -13    1    6    6    0    0  0.56856518331E+02  0.13950832716E+02  0.36093713732E+02  0.68775326834E+02  0.00000000000E+00 0.  1.
         14    1    6    6    0    0  0.31502058874E+02  0.10340654582E+02  0.15228519818E+03  0.15585278450E+03  0.00000000000E+00 0. -1.
         -5    1    3    3    0  503 -0.41012826955E+01 -0.75341394003E+02  0.20074720687E+03  0.21451031965E+03  0.47000000000E+01 0.  1.
         11    1    4    4    0    0  0.43854900172E+00 -0.20887116656E+02  0.51830245396E+02  0.55882361307E+02  0.00000000000E+00 0. -1.
        -12    1    4    4    0    0 -0.37585977467E+02  0.21350642490E+02 -0.46861558724E+01  0.43480060876E+02  0.00000000000E+00 0.  1.
</event>
<event>
12    1  0.8219652E-002  0.1738133E+03  0.7818608E-02  0.1173952E+00
         21   -1    0    0  501  502  0.00000000000E+00  0.00000000000E+00  0.27824792755E+03  0.27824792755E+03  0.00000000000E+00 0.  1.
         21   -1    0    0  502  503 -0.00000000000E+00 -0.00000000000E+00 -0.11255811124E+03  0.11255811124E+03  0.00000000000E+00 0.  1.
         -6    2    1    2    0  503  0.23104726139E+01 -0.28511980719E+02  0.45845704330E+02  0.17975785650E+03  0.17144324729E+03 0.  0.
        -24    2    3    3    0    0 -0.34583185488E+02  0.11271159749E+02 -0.23462434422E+02  0.91612814833E+02  0.80742716403E+02 0.  0.
          6    2    1    2  501    0 -0.23104726139E+01  0.28511980719E+02  0.11984411198E+03  0.21104818229E+03  0.17134892105E+03 0.  0.
         24    2    5    5    0    0  0.11163681533E+02  0.13133008373E+01  0.14838002113E+03  0.16912314051E+03  0.80371969247E+02 0.  0.
          5    1    5    5  501    0 -0.13474154147E+02  0.27198679882E+02 -0.28535909152E+02  0.41925041782E+02  0.47000000000E+01 0. -1.
        -13    1    6    6    0    0  0.54751555347E+01  0.31158625500E+02  0.12959893184E+03  0.13340434927E+03  0.00000000000E+00 0.  1.
         14    1    6    6    0    0  0.56885259987E+01 -0.29845324663E+02  0.18781089287E+02  0.35718791232E+02  0.00000000000E+00 0. -1.
         -5    1    3    3    0  503  0.36893658102E+02 -0.39783140468E+02  0.69308138752E+02  0.88145041669E+02  0.47000000000E+01 0.  1.
         13    1    4    4    0    0 -0.15722404456E+01 -0.15760468974E+02  0.23387493841E+02  0.28246047342E+02  0.00000000000E+00 0. -1.
        -14    1    4    4    0    0 -0.33010945042E+02  0.27031628723E+02 -0.46849928263E+02  0.63366767491E+02  0.00000000000E+00 0.  1.
</event>
<event>
12    1  0.8219652E-002  0.2160294E+03  0.7818608E-02  0.1137382E+00
         21   -1    0    0  501  502  0.00000000000E+00  0.00000000000E+00  0.18937370436E+04  0.18937370436E+04  0.00000000000E+00 0.  1.
         21   -1    0    0  502  503 -0.00000000000E+00 -0.00000000000E+00 -0.13866187990E+03  0.13866187990E+03  0.00000000000E+00 0. -1.
         -6    2    1    2    0  503 -0.46903650921E+01 -0.12379266635E+03 -0.44205913577E+02  0.22050594153E+03  0.17698046132E+03 0.  0.
        -24    2    3    3    0    0  0.38351216231E+02 -0.53781042712E+02  0.31319903164E+02  0.10879003326E+03  0.80567478927E+02 0.  0.
          6    2    1    2  501    0  0.46903650921E+01  0.12379266635E+03  0.17992810773E+04  0.18118929820E+04  0.17377329849E+03 0.  0.
         24    2    5    5    0    0  0.20703872716E+02 -0.42659621045E+01  0.56643213516E+03  0.57229867380E+03  0.78952894269E+02 0.  0.
          5    1    5    5  501    0 -0.16013507624E+02  0.12805862846E+03  0.12328489421E+04  0.12395943082E+04  0.47000000000E+01 0. -1.
        -13    1    6    6    0    0  0.28144803525E+02  0.24892962250E+02  0.46449739692E+03  0.46601461488E+03  0.00000000000E+00 0.  1.
         14    1    6    6    0    0 -0.74409308088E+01 -0.29158924355E+02  0.10193473825E+03  0.10628405893E+03  0.00000000000E+00 0. -1.
         -5    1    3    3    0  503 -0.43041581323E+02 -0.70011623641E+02 -0.75525816741E+02  0.11171590828E+03  0.47000000000E+01 0.  1.
         13    1    4    4    0    0  0.33698160510E+02 -0.23210385218E+01 -0.17204437303E+02  0.37907069321E+02  0.00000000000E+00 0. -1.
        -14    1    4    4    0    0  0.46530557206E+01 -0.51460004190E+02  0.48524340467E+02  0.70882963937E+02  0.00000000000E+00 0.  1.
</event>
<event>
12    1  0.8219652E-002  0.3121525E+03  0.7818608E-02  0.1080571E+00
         21   -1    0    0  503  502  0.00000000000E+00  0.00000000000E+00  0.80093192960E+02  0.80093192960E+02  0.00000000000E+00 0.  1.
         21   -1    0    0  501  503 -0.00000000000E+00 -0.00000000000E+00 -0.13365718159E+04  0.13365718159E+04  0.00000000000E+00 0. -1.
          6    2    1    2  501    0  0.10734136258E+03 -0.23748707811E+03 -0.37384143861E+03  0.48045585410E+03  0.15217794234E+03 0.  0.
         24    2    3    3    0    0  0.70312642972E+02 -0.23232146127E+03 -0.27659635650E+03  0.37616536716E+03  0.77959668371E+02 0.  0.
         -6    2    1    2    0  502 -0.10734136258E+03  0.23748707811E+03 -0.88263718436E+03  0.93620915478E+03  0.17180483665E+03 0.  0.
        -24    2    5    5    0    0 -0.23049437195E+02  0.47030928232E+02 -0.18641022067E+03  0.20948173086E+03  0.79941481279E+02 0.  0.
          5    1    3    3  501    0  0.37028719606E+02 -0.51656168375E+01 -0.97245082106E+02  0.10429048694E+03  0.47000000000E+01 0. -1.
        -11    1    4    4    0    0  0.54427105432E+02 -0.13726469173E+03 -0.21823613711E+03  0.26349747047E+03  0.00000000000E+00 0.  1.
         12    1    4    4    0    0  0.15885537540E+02 -0.95056769537E+02 -0.58360219392E+02  0.11266789669E+03  0.00000000000E+00 0. -1.
         -5    1    5    5    0  502 -0.84291925384E+02  0.19045614988E+03 -0.69622696369E+03  0.72672742392E+03  0.47000000000E+01 0.  1.
         13    1    6    6    0    0 -0.93626986687E+01  0.65238096854E+02 -0.16707375341E+03  0.17960319732E+03  0.00000000000E+00 0. -1.
        -14    1    6    6    0    0 -0.13686738526E+02 -0.18207168622E+02 -0.19336467256E+02  0.29878533542E+02  0.00000000000E+00 0.  1.
</event>
<event>
12    1  0.8219652E-002  0.1734882E+03  0.7818608E-02  0.1175176E+00
         21   -1    0    0  501  502  0.00000000000E+00  0.00000000000E+00  0.41053222782E+03  0.41053222782E+03  0.00000000000E+00 0. -1.
         21   -1    0    0  502  503 -0.00000000000E+00 -0.00000000000E+00 -0.73203085499E+02  0.73203085499E+02  0.00000000000E+00 0. -1.
         -6    2    1    2    0  503 -0.21832120391E+02 -0.17650894892E+02  0.13361313207E+03  0.21615662219E+03  0.16757989343E+03 0.  0.
        -24    2    3    3    0    0  0.23017660488E+02 -0.61549328185E+02  0.63775293280E+02  0.12214604290E+03  0.80834616779E+02 0.  0.
          6    2    1    2  501    0  0.21832120391E+02  0.17650894892E+02  0.20371601024E+03  0.26757869113E+03  0.17120148231E+03 0.  0.
         24    2    5    5    0    0 -0.49149738378E+02  0.24686381014E+02  0.15032038731E+03  0.17835366724E+03  0.78668275599E+02 0.  0.
          5    1    5    5  501    0  0.70981858769E+02 -0.70354861222E+01  0.53395622933E+02  0.89225023888E+02  0.47000000000E+01 0. -1.
        -11    1    6    6    0    0 -0.15569114814E+02  0.50802152665E+02  0.90589176636E+02  0.10502216421E+03  0.00000000000E+00 0.  1.
         12    1    6    6    0    0 -0.33580623564E+02 -0.26115771651E+02  0.59731210675E+02  0.73331503029E+02  0.00000000000E+00 0. -1.
         -5    1    3    3    0  503 -0.44849780879E+02  0.43898433293E+02  0.69837838794E+02  0.94010579287E+02  0.47000000000E+01 0.  1.
         11    1    4    4    0    0 -0.24258237551E+02 -0.77091550807E+01 -0.11161255201E+01  0.25478204358E+02  0.00000000000E+00 0. -1.
        -12    1    4    4    0    0  0.47275898039E+02 -0.53840173104E+02  0.64891418801E+02  0.96667838546E+02  0.00000000000E+00 0.  1.
</event>
<event>
12    1  0.8219652E-002  0.1774628E+03  0.7818608E-02  0.1170436E+00
         21   -1    0    0  503  502  0.00000000000E+00  0.00000000000E+00  0.75972821156E+02  0.75972821156E+02  0.00000000000E+00 0. -1.
         21   -1    0    0  501  503 -0.00000000000E+00 -0.00000000000E+00 -0.48989437357E+03  0.48989437357E+03  0.00000000000E+00 0. -1.
          6    2    1    2  501    0  0.20260578114E+02  0.37224520930E+02 -0.31869536129E+03  0.36446938864E+03  0.17168298100E+03 0.  0.
         24    2    3    3    0    0  0.43626829922E+02 -0.24585652614E+02 -0.10503715272E+03  0.14077674378E+03  0.79230887496E+02 0.  0.
         -6    2    1    2    0  502 -0.20260578114E+02 -0.37224520930E+02 -0.95226191121E+02  0.20139780608E+03  0.17232786436E+03 0.  0.
        -24    2    5    5    0    0  0.36576265872E+02 -0.48871776600E+02 -0.13640317776E+02  0.10117590165E+03  0.79525033997E+02 0.  0.
          5    1    3    3  501    0 -0.23366251808E+02  0.61810173544E+02 -0.21365820857E+03  0.22369264486E+03  0.47000000000E+01 0. -1.
        -11    1    4    4    0    0  0.53671957489E+02 -0.45104721667E+01 -0.28339988400E+02  0.60861961210E+02  0.00000000000E+00 0.  1.
         12    1    4    4    0    0 -0.10045127567E+02 -0.20075180448E+02 -0.76697164323E+02  0.79914782568E+02  0.00000000000E+00 0. -1.
         -5    1    5    5    0  502 -0.56836843986E+02  0.11647255670E+02 -0.81585873344E+02  0.10022190443E+03  0.47000000000E+01 0.  1.
         13    1    6    6    0    0  0.15750092622E+02 -0.44507485507E+01  0.30865225583E+02  0.34936180824E+02  0.00000000000E+00 0. -1.
        -14    1    6    6    0    0  0.20826173250E+02 -0.44421028049E+02 -0.44505543360E+02  0.66239720825E+02  0.00000000000E+00 0.  1.
</event>
<event>
12    1  0.8219652E-002  0.2215463E+03  0.7818608E-02  0.1132765E+00
         21   -1    0    0  501  502  0.00000000000E+00  0.00000000000E+00  0.13686932983E+04  0.13686932983E+04  0.00000000000E+00 0. -1.
         21   -1    0    0  502  503 -0.00000000000E+00 -0.00000000000E+00 -0.58106028215E+02  0.58106028215E+02  0.00000000000E+00 0.  1.
         -6    2    1    2    0  503 -0.59714606270E+02 -0.12592723403E+03  0.21377734848E+03  0.30786935119E+03  0.17221869876E+03 0.  0.
        -24    2    3    3    0    0 -0.88363297002E+02 -0.13845235471E+03  0.16918297675E+03  0.25320332775E+03  0.92260060589E+02 0.  0.
          6    2    1    2  501    0  0.59714606270E+02  0.12592723403E+03  0.10968099216E+04  0.11189299754E+04  0.17201390375E+03 0.  0.
         24    2    5    5    0    0  0.76682131444E+02  0.89140722979E+02  0.48172521958E+03  0.50249471922E+03  0.81335956931E+02 0.  0.
          5    1    5    5  501    0 -0.16967525174E+02  0.36786511056E+02  0.61508470207E+03  0.61643525615E+03  0.47000000000E+01 0. -1.
        -13    1    6    6    0    0  0.27294267738E+02  0.54242355632E+02  0.10792727039E+03  0.12383660965E+03  0.00000000000E+00 0.  1.
         14    1    6    6    0    0  0.49387863706E+02  0.34898367346E+02  0.37379794919E+03  0.37865810957E+03  0.00000000000E+00 0. -1.
         -5    1    3    3    0  503  0.28648690732E+02  0.12525120672E+02  0.44594371734E+02  0.54666023441E+02  0.47000000000E+01 0.  1.
         11    1    4    4    0    0  0.15714042898E+02 -0.34879892853E+02  0.17416525777E+02  0.42034193697E+02  0.00000000000E+00 0. -1.
        -12    1    4    4    0    0 -0.10407733990E+03 -0.10357246185E+03  0.15176645097E+03  0.21116913405E+03  0.00000000000E+00 0.  1.
</event>
<event>
12    1  0.8219652E-002  0.2007739E+03  0.7818608E-02  0.1150301E+00
         21   -1    0    0  503  502  0.00000000000E+00  0.00000000000E+00  0.12587214848E+03  0.12587214848E+03  0.00000000000E+00 0. -1.
         21   -1    0    0  501  503 -0.00000000000E+00 -0.00000000000E+00 -0.35425205974E+03  0.35425205974E+03  0.00000000000E+00 0. -1.
          6    2    1    2  501    0 -0.79877529080E+02  0.62661118686E+02 -0.19927945184E+03  0.28288242419E+03  0.17321469494E+03 0.  0.
         24    2    3    3    0    0 -0.11635934617E+02 -0.26121372780E+02 -0.56410862508E+02  0.10129836700E+03  0.79129341324E+02 0.  0.
         -6    2    1    2    0  502  0.79877529080E+02 -0.62661118686E+02 -0.29100459418E+02  0.19724178403E+03  0.16658526100E+03 0.  0.
        -24    2    5    5    0    0 -0.15377706379E+02 -0.41163951370E+02  0.78726746534E+01  0.92720060318E+02  0.81265526721E+02 0.  0.
          5    1    3    3  501    0 -0.68241594463E+02  0.88782491466E+02 -0.14286858933E+03  0.18158405719E+03  0.47000000000E+01 0. -1.
        -13    1    4    4    0    0  0.75126605442E+01  0.23011069982E+02 -0.38746557990E+02  0.45686378345E+02  0.00000000000E+00 0.  1.
         14    1    4    4    0    0 -0.19148595161E+02 -0.49132442763E+02 -0.17664304517E+02  0.55611988658E+02  0.00000000000E+00 0. -1.
         -5    1    5    5    0  502  0.95255235459E+02 -0.21497167316E+02 -0.36973134071E+02  0.10452172371E+03  0.47000000000E+01 0.  1.
         13    1    6    6    0    0  0.10029509191E+02 -0.58676940425E+02 -0.39869448753E+01  0.59661295005E+02  0.00000000000E+00 0. -1.
        -14    1    6    6    0    0 -0.25407215570E+02  0.17512989054E+02  0.11859619529E+02  0.33058765313E+02  0.00000000000E+00 0.  1.
</event>
<event>
12    1  0.8219652E-002  0.1920107E+03  0.7818608E-02  0.1156678E+00
         21   -1    0    0  501  502  0.00000000000E+00  0.00000000000E+00  0.42200090374E+03  0.42200090374E+03  0.00000000000E+00 0. -1.
         21   -1    0    0  502  503 -0.00000000000E+00 -0.00000000000E+00 -0.99322243727E+02  0.99322243727E+02  0.00000000000E+00 0. -1.
         -6    2    1    2    0  503 -0.50268988068E+02 -0.69444508696E+02  0.25189143846E+03  0.31667965575E+03  0.17171836432E+03 0.  0.
        -24    2    3    3    0    0 -0.58952298951E+02 -0.61027125376E+02  0.65223861073E+02  0.12956170718E+03  0.73023286217E+02 0.  0.
          6    2    1    2  501    0  0.50268988068E+02  0.69444508696E+02  0.70787221553E+02  0.20464349172E+03  0.17180982806E+03 0.  0.
         24    2    5    5    0    0  0.28710418385E+02  0.31005558719E+01 -0.22472275798E+02  0.88085712703E+02  0.80126075857E+02 0.  0.
          5    1    5    5  501    0  0.21558569682E+02  0.66343952824E+02  0.93259497351E+02  0.11655777902E+03  0.47000000000E+01 0. -1.
        -11    1    6    6    0    0  0.41092504976E+02  0.92883769628E+01 -0.45001313231E+02  0.61644027321E+02  0.00000000000E+00 0.  1.
         12    1    6    6    0    0 -0.12382086590E+02 -0.61878210909E+01  0.22529037434E+02  0.26441685382E+02  0.00000000000E+00 0. -1.
         -5    1    3    3    0  503  0.86833108836E+01 -0.84173833199E+01  0.18666757739E+03  0.18711794857E+03  0.47000000000E+01 0.  1.
         11    1    4    4    0    0  0.35222228445E+01 -0.33228557099E+02  0.48957180181E+02  0.59273506324E+02  0.00000000000E+00 0. -1.
        -12    1    4    4    0    0 -0.62474521796E+02 -0.27798568277E+02  0.16266680892E+02  0.70288200853E+02  0.00000000000E+00 0.  1.
</event>
<event>
12    1  0.8219652E-002  0.1943130E+03  0.7818608E-02  0.1158515E+00
         21   -1    0    0  501  502  0.00000000000E+00  0.00000000000E+00  0.44636388268E+03  0.44636388268E+03  0.00000000000E+00 0.  1.
         21   -1    0    0  502  503 -0.00000000000E+00 -0.00000000000E+00 -0.25402504705E+03  0.25402504705E+03  0.00000000000E+00 0.  1.
         -6    2    1    2    0  503 -0.50057628952E+02 -0.33597584797E+01 -0.19709083621E+03  0.26517289923E+03  0.17016114297E+03 0.  0.
        -24    2    3    3    0    0 -0.89738035956E+02 -0.32771270825E+01 -0.87654227364E+02  0.14866966802E+03  0.79722970053E+02 0.  0.
          6    2    1    2  501    0  0.50057628952E+02  0.33597584797E+01  0.38942967185E+03  0.43521603050E+03  0.18772445152E+03 0.  0.
         24    2    5    5    0    0  0.51987523668E+02  0.53827215767E+02  0.35667310569E+03  0.37483580721E+03  0.87670441247E+02 0.  0.
          5    1    5    5  501    0 -0.19298947160E+01 -0.50467457287E+02  0.32756566156E+02  0.60380223294E+02  0.47000000000E+01 0. -1.
        -13    1    6    6    0    0  0.19360691895E+02  0.38143350229E+02  0.49016230048E+02  0.65056455217E+02  0.00000000000E+00 0.  1.
         14    1    6    6    0    0  0.32626831773E+02  0.15683865538E+02  0.30765687564E+03  0.30977935199E+03  0.00000000000E+00 0. -1.
         -5    1    3    3    0  503  0.39680407004E+02 -0.82631397186E-01 -0.10943660885E+03  0.11650323122E+03  0.47000000000E+01 0.  1.
         13    1    4    4    0    0 -0.69388753952E+02 -0.32042011159E+02 -0.32128770590E+02  0.82908066880E+02  0.00000000000E+00 0. -1.
        -14    1    4    4    0    0 -0.20349282005E+02  0.28764884077E+02 -0.55525456774E+02  0.65761601137E+02  0.00000000000E+00 0.  1.
</event>
<event>
12    1  0.8219652E-002  0.2428330E+03  0.7818608E-02  0.1118151E+00
         21   -1    0    0  501  502  0.00000000000E+00  0.00000000000E+00  0.33897326955E+02  0.33897326955E+02  0.00000000000E+00 0.  1.
         21   -1    0    0  502  503 -0.00000000000E+00 -0.00000000000E+00 -0.33850187007E+04  0.33850187007E+04  0.00000000000E+00 0. -1.
         -6    2    1    2    0  503 -0.16785273704E+03  0.25476669137E+02 -0.28735035279E+04  0.28837458935E+04  0.17362099901E+03 0.  0.
        -24    2    3    3    0    0 -0.11224436410E+02 -0.53861508845E+01 -0.12460685847E+04  0.12484931538E+04  0.76767432940E+02 0.  0.
          6    2    1    2  501    0  0.16785273704E+03 -0.25476669137E+02 -0.47761784587E+03  0.53517013420E+03  0.17165274203E+03 0.  0.
         24    2    5    5    0    0  0.15542596230E+03  0.21118072349E+02 -0.27758450280E+03  0.32935244058E+03  0.82563134563E+02 0.  0.
          5    1    5    5  501    0  0.12426774736E+02 -0.46594741485E+02 -0.20003334307E+03  0.20581769362E+03  0.47000000000E+01 0. -1.
        -13    1    6    6    0    0  0.12294776657E+03 -0.15819536055E+02 -0.22794837158E+03  0.25947422055E+03  0.00000000000E+00 0.  1.
         14    1    6    6    0    0  0.32478195731E+02  0.36937608404E+02 -0.49636131215E+02  0.69878220030E+02  0.00000000000E+00 0. -1.
         -5    1    3    3    0  503 -0.15662830063E+03  0.30862820021E+02 -0.16274349432E+04  0.16352527397E+04  0.47000000000E+01 0.  1.
         11    1    4    4    0    0 -0.42788590384E+02 -0.77049476512E+01 -0.87408896570E+03  0.87516955480E+03  0.00000000000E+00 0. -1.
        -12    1    4    4    0    0  0.31564153974E+02  0.23187967667E+01 -0.37197961897E+03  0.37332359899E+03  0.00000000000E+00 0.  1.
</event>
<event>
12    1  0.8219652E-002  0.2394467E+03  0.7818608E-02  0.1120186E+00
         21   -1    0    0  501  502  0.00000000000E+00  0.00000000000E+00  0.18217162335E+04  0.18217162335E+04  0.00000000000E+00 0. -1.
         21   -1    0    0  502  503 -0.00000000000E+00 -0.00000000000E+00 -0.97363363384E+02  0.97363363384E+02  0.00000000000E+00 0.  1.
         -6    2    1    2    0  503 -0.36135149090E+02  0.16316670015E+03  0.72619459940E+02  0.25008049629E+03  0.17128207035E+03 0.  0.
        -24    2    3    3    0    0 -0.32055056722E+02  0.12865624303E+03 -0.14878912540E+02  0.15581664324E+03  0.80482847491E+02 0.  0.
          6    2    1    2  501    0  0.36135149090E+02 -0.16316670015E+03  0.16517334102E+04  0.16689991006E+04  0.17148066497E+03 0.  0.
         24    2    5    5    0    0  0.71627219950E+02 -0.16913585872E+03  0.14793473577E+04  0.14928333859E+04  0.79658746959E+02 0.  0.
          5    1    5    5  501    0 -0.35492070860E+02  0.59691585664E+01  0.17238605254E+03  0.17616571477E+03  0.47000000000E+01 0. -1.
        -11    1    6    6    0    0  0.85144227008E+02 -0.10831640978E+03  0.10431078246E+04  0.10521672480E+04  0.00000000000E+00 0.  1.
         12    1    6    6    0    0 -0.13517007058E+02 -0.60819448933E+02  0.43623953306E+03  0.44066613786E+03  0.00000000000E+00 0. -1.
         -5    1    3    3    0  503 -0.40800923682E+01  0.34510457117E+02  0.87498372480E+02  0.94263853045E+02  0.47000000000E+01 0.  1.
         11    1    4    4    0    0  0.55536344845E+01  0.50482333112E+01  0.20522405178E+02  0.21851696269E+02  0.00000000000E+00 0. -1.
        -12    1    4    4    0    0 -0.37608691206E+02  0.12360800972E+03 -0.35401317718E+02  0.13396494697E+03  0.00000000000E+00 0.  1.
</event>
<event>
12    1  0.8219652E-002  0.2068040E+03  0.7818608E-02  0.1144193E+00
         21   -1    0    0  501  502  0.00000000000E+00  0.00000000000E+00  0.33515398143E+03  0.33515398143E+03  0.00000000000E+00 0. -1.
         21   -1    0    0  502  503 -0.00000000000E+00 -0.00000000000E+00 -0.15906751734E+03  0.15906751734E+03  0.00000000000E+00 0. -1.
         -6    2    1    2    0  503  0.10958936827E+03 -0.34546746140E+02 -0.22171988242E+02  0.20798917319E+03  0.17194357155E+03 0.  0.
        -24    2    3    3    0    0  0.73242212588E+02 -0.62628708058E+02 -0.68996643947E+02  0.14222937778E+03  0.78624946737E+02 0.  0.
          6    2    1    2  501    0 -0.10958936827E+03  0.34546746140E+02  0.19825845233E+03  0.28623232558E+03  0.17152032819E+03 0.  0.
         24    2    5    5    0    0 -0.11414802620E+03 -0.24301429348E+02  0.15931235080E+03  0.21536076609E+03  0.85904034244E+02 0.  0.
          5    1    5    5  501    0  0.45586579345E+01  0.58848175488E+02  0.38946101531E+02  0.70871559493E+02  0.47000000000E+01 0. -1.
        -13    1    6    6    0    0 -0.71423034024E+02 -0.34555996906E+02  0.41330319055E+02  0.89462628983E+02  0.00000000000E+00 0.  1.
         14    1    6    6    0    0 -0.42724992176E+02  0.10254567558E+02  0.11798203174E+03  0.12589813711E+03  0.00000000000E+00 0. -1.
         -5    1    3    3    0  503  0.36347155677E+02  0.28081961918E+02  0.46824655705E+02  0.65759795414E+02  0.47000000000E+01 0.  1.
         13    1    4    4    0    0  0.37750830844E+02  0.13591994808E+02 -0.18833742992E+02  0.44323553867E+02  0.00000000000E+00 0. -1.
        -14    1    4    4    0    0  0.35491381744E+02 -0.76220702866E+02 -0.50162900955E+02  0.97905823911E+02  0.00000000000E+00 0.  1.
</event>
<event>
12    1  0.8219652E-002  0.1871220E+03  0.7818608E-02  0.1161358E+00
         21   -1    0    0  503  502  0.00000000000E+00  0.00000000000E+00  0.31657614498E+02  0.31657614498E+02  0.00000000000E+00 0. -1.
         21   -1    0    0  501  503 -0.00000000000E+00 -0.00000000000E+00 -0.14186847287E+04  0.14186847287E+04  0.00000000000E+00 0.  1.
          6    2    1    2  501    0  0.54524371009E+02 -0.45896323488E+02 -0.10360258120E+04  0.10525778898E+04  0.17173046139E+03 0.  0.
         24    2    3    3    0    0 -0.74387205837E+01  0.25179670842E+02 -0.29940488036E+03  0.30993146743E+03  0.75662948219E+02 0.  0.
         -6    2    1    2    0  502 -0.54524371009E+02  0.45896323488E+02 -0.35100130225E+03  0.39776445347E+03  0.17301811096E+03 0.  0.
        -24    2    5    5    0    0  0.37615909687E+02  0.25430556327E+02 -0.17528062245E+03  0.19824371204E+03  0.80719284559E+02 0.  0.
          5    1    3    3  501    0  0.61963091593E+02 -0.71075994329E+02 -0.73662093162E+03  0.74264642232E+03  0.47000000000E+01 0. -1.
        -11    1    4    4    0    0  0.19444932896E+02 -0.17524546213E+02 -0.14914295306E+03  0.15142270498E+03  0.00000000000E+00 0.  1.
         12    1    4    4    0    0 -0.26883653480E+02  0.42704217054E+02 -0.15026192730E+03  0.15850876245E+03  0.00000000000E+00 0. -1.
         -5    1    5    5    0  502 -0.92140280696E+02  0.20465767160E+02 -0.17572067980E+03  0.19952074143E+03  0.47000000000E+01 0.  1.
         11    1    6    6    0    0  0.70380080015E+01  0.23846654540E+02 -0.51647949107E+01  0.25394322119E+02  0.00000000000E+00 0. -1.
        -12    1    6    6    0    0  0.30577901685E+02  0.15839017871E+01 -0.17011582754E+03  0.17284938992E+03  0.00000000000E+00 0.  1.
</event>
<event>
12    1  0.8219652E-002  0.1834768E+03  0.7818608E-02  0.1164497E+00
         21   -1    0    0  501  502  0.00000000000E+00  0.00000000000E+00  0.82451618256E+03  0.82451618256E+03  0.00000000000E+00 0. -1.
         21   -1    0    0  502  503 -0.00000000000E+00 -0.00000000000E+00 -0.49515394267E+02  0.49515394267E+02  0.00000000000E+00 0. -1.
         -6    2    1    2    0  503 -0.50928145577E+02  0.36989609795E+02  0.20435071792E+03  0.27463236796E+03  0.17234214335E+03 0.  0.
        -24    2    3    3    0    0 -0.34470999478E+01 -0.41888880194E+02  0.11811632213E+03  0.14839953985E+03  0.79400233573E+02 0.  0.
          6    2    1    2  501    0  0.50928145577E+02 -0.36989609795E+02  0.57065007038E+03  0.59939920887E+03  0.17226723868E+03 0.  0.
         24    2    5    5    0    0 -0.32075498435E+02 -0.23046375264E+02  0.39237823714E+03  0.40220145220E+03  0.79027553160E+02 0.  0.
          5    1    5    5  501    0  0.83003644012E+02 -0.13943234532E+02  0.17827183324E+03  0.19719775667E+03  0.47000000000E+01 0. -1.
        -13    1    6    6    0    0 -0.26172246914E+02  0.59500914981E+01  0.34694298988E+03  0.34797963780E+03  0.00000000000E+00 0.  1.
         14    1    6    6    0    0 -0.59032515207E+01 -0.28996466762E+02  0.45435247261E+02  0.54221814400E+02  0.00000000000E+00 0. -1.
         -5    1    3    3    0  503 -0.47481045629E+02  0.78878489989E+02  0.86234395788E+02  0.12623282812E+03  0.47000000000E+01 0.  1.
         13    1    4    4    0    0 -0.32028941758E+02 -0.63047229155E+01  0.87629968039E+02  0.93512640534E+02  0.00000000000E+00 0. -1.
        -14    1    4    4    0    0  0.28581841810E+02 -0.35584157279E+02  0.30486354091E+02  0.54886899313E+02  0.00000000000E+00 0.  1.
</event>
<event>
12    1  0.8219652E-002  0.1742415E+03  0.7818608E-02  0.1173679E+00
         21   -1    0    0  501  502  0.00000000000E+00  0.00000000000E+00  0.99034637009E+02  0.99034637009E+02  0.00000000000E+00 0.  1.
         21   -1    0    0  502  503 -0.00000000000E+00 -0.00000000000E+00 -0.36583831479E+03  0.36583831479E+03  0.00000000000E+00 0.  1.
         -6    2    1    2    0  503 -0.11471513887E+02  0.27990646307E+02 -0.22773447127E+03  0.28630499576E+03  0.17085809691E+03 0.  0.
        -24    2    3    3    0    0  0.19468140417E+01  0.27128965109E+02 -0.28334517396E+02  0.86396952841E+02  0.76953347889E+02 0.  0.
          6    2    1    2  501    0  0.11471513887E+02 -0.27990646307E+02 -0.39069206517E+02  0.17856795605E+03  0.17159557138E+03 0.  0.
         24    2    5    5    0    0 -0.18711604322E+02 -0.17981916205E+02  0.40003523976E+02  0.93211163634E+02  0.80090983568E+02 0.  0.
          5    1    5    5  501    0  0.30183118209E+02 -0.10008730101E+02 -0.79072730493E+02  0.85356792411E+02  0.47000000000E+01 0. -1.
        -11    1    6    6    0    0 -0.34674545413E+02 -0.37525843036E+02  0.68556283372E+01  0.51551068225E+02  0.00000000000E+00 0.  1.
         12    1    6    6    0    0  0.15962941091E+02  0.19543926831E+02  0.33147895639E+02  0.41660095410E+02  0.00000000000E+00 0. -1.
         -5    1    3    3    0  503 -0.13418327929E+02  0.86168119735E+00 -0.19939995387E+03  0.19990804292E+03  0.47000000000E+01 0.  1.
         11    1    4    4    0    0 -0.28254214960E+01 -0.23519547951E+02 -0.26424714522E+02  0.35488275248E+02  0.00000000000E+00 0. -1.
        -12    1    4    4    0    0  0.47722355377E+01  0.50648513061E+02 -0.19098028737E+01  0.50908677593E+02  0.00000000000E+00 0.  1.
</event>
<event>
12    1  0.8219652E-002  0.1946462E+03  0.7818608E-02  0.1154503E+00
         21   -1    0    0  501  502  0.00000000000E+00  0.00000000000E+00  0.36416466245E+02  0.36416466245E+02  0.00000000000E+00 0. -1.
         21   -1    0    0  502  503 -0.00000000000E+00 -0.00000000000E+00 -0.12794705127E+04  0.12794705127E+04  0.00000000000E+00 0. -1.
         -6    2    1    2    0  503 -0.65501344540E+01  0.90774864652E+02 -0.90933631737E+03  0.92993530049E+03  0.17205855019E+03 0.  0.
        -24    2    3    3    0    0  0.34717079505E+02  0.75784400779E+02 -0.84229712152E+03  0.84966051780E+03  0.74229398359E+02 0.  0.
          6    2    1    2  501    0  0.65501344540E+01 -0.90774864652E+02 -0.33371772913E+03  0.38595167850E+03  0.17119636412E+03 0.  0.
         24    2    5    5    0    0  0.59534201329E+02 -0.18876779602E+02 -0.21065881984E+03  0.23382597018E+03  0.79979947599E+02 0.  0.
          5    1    5    5  501    0 -0.52984066875E+02 -0.71898085050E+02 -0.12305890928E+03  0.15212570832E+03  0.47000000000E+01 0. -1.
        -11    1    6    6    0    0  0.34011921778E+02  0.36996729565E+01 -0.18945323968E+02  0.39107847081E+02  0.00000000000E+00 0.  1.
         12    1    6    6    0    0  0.25522279551E+02 -0.22576452558E+02 -0.19171349587E+03  0.19471812310E+03  0.00000000000E+00 0. -1.
         -5    1    3    3    0  503 -0.41267213959E+02  0.14990463873E+02 -0.67039195849E+02  0.80274782685E+02  0.47000000000E+01 0.  1.
         13    1    4    4    0    0  0.17800133326E+02  0.87393519520E+02 -0.73754969464E+03  0.74292262320E+03  0.00000000000E+00 0. -1.
        -14    1    4    4    0    0  0.16916946179E+02 -0.11609118741E+02 -0.10474742688E+03  0.10673789460E+03  0.00000000000E+00 0.  1.
</event>
<event>
12    1  0.8219652E-002  0.1940103E+03  0.7818608E-02  0.1155321E+00
         21   -1    0    0  501  502  0.00000000000E+00  0.00000000000E+00  0.24428815719E+03  0.24428815719E+03  0.00000000000E+00 0.  1.
         21   -1    0    0  502  503 -0.00000000000E+00 -0.00000000000E+00 -0.17111649594E+03  0.17111649594E+03  0.00000000000E+00 0.  1.
         -6    2    1    2    0  503 -0.19556505377E+02  0.84676163753E+02 -0.31675309480E+02  0.19657906923E+03  0.17345747496E+03 0.  0.
        -24    2    3    3    0    0 -0.17628759914E+01  0.12363992187E+03 -0.41523505204E+02  0.15237652799E+03  0.78768437749E+02 0.  0.
          6    2    1    2  501    0  0.19556505377E+02 -0.84676163753E+02  0.10484697073E+03  0.21882558391E+03  0.17128700853E+03 0.  0.
         24    2    5    5    0    0  0.20007833577E+02 -0.12597754945E+03  0.86025326069E+02  0.17319278359E+03  0.79528153453E+02 0.  0.
          5    1    5    5  501    0 -0.45132819905E+00  0.41301385694E+02  0.18821644664E+02  0.45632800322E+02  0.47000000000E+01 0. -1.
        -11    1    6    6    0    0 -0.30775862872E+02 -0.44572780933E+02  0.26722204534E+02  0.60398367121E+02  0.00000000000E+00 0.  1.
         12    1    6    6    0    0  0.50783696449E+02 -0.81404768514E+02  0.59303121535E+02  0.11279441646E+03  0.00000000000E+00 0. -1.
         -5    1    3    3    0  503 -0.17793629386E+02 -0.38963758116E+02  0.98481957234E+01  0.44202541242E+02  0.47000000000E+01 0.  1.
         11    1    4    4    0    0 -0.30492270248E+02  0.46391434571E+02 -0.42560037939E+02  0.69952130602E+02  0.00000000000E+00 0. -1.
        -12    1    4    4    0    0  0.28729394256E+02  0.77248487299E+02  0.10365327351E+01  0.82424397385E+02  0.00000000000E+00 0.  1.
</event>
<event>
12    1  0.8219652E-002  0.1798869E+03  0.7818608E-02  0.1167946E+00
         21   -1    0    0  503  502  0.00000000000E+00  0.00000000000E+00  0.16347937850E+03  0.16347937850E+03  0.00000000000E+00 0.  1.
         21   -1    0    0  501  503 -0.00000000000E+00 -0.00000000000E+00 -0.39070780876E+03  0.39070780876E+03  0.00000000000E+00 0.  1.
          6    2    1    2  501    0 -0.52600716471E+02 -0.36430006409E+01 -0.30834464540E+03  0.35698138298E+03  0.17198598961E+03 0.  0.
         24    2    3    3    0    0 -0.61270347468E+02 -0.63081233208E+02 -0.21146624200E+03  0.24289553356E+03  0.80913356477E+02 0.  0.
         -6    2    1    2    0  502  0.52600716471E+02  0.36430006409E+01  0.81116215135E+02  0.19720580428E+03  0.17184348127E+03 0.  0.
        -24    2    5    5    0    0  0.53596120735E+02  0.18465821019E+02  0.12068539955E+03  0.15467913983E+03  0.78403698441E+02 0.  0.
          5    1    3    3  501    0  0.86696309967E+01  0.59438232567E+02 -0.96878403400E+02  0.11408584942E+03  0.47000000000E+01 0. -1.
        -11    1    4    4    0    0 -0.47282159052E+02 -0.27687320656E+02 -0.19293756869E+03  0.20056693572E+03  0.00000000000E+00 0.  1.
         12    1    4    4    0    0 -0.13988188416E+02 -0.35393912553E+02 -0.18528673308E+02  0.42328597845E+02  0.00000000000E+00 0. -1.
         -5    1    5    5    0  502 -0.99540426374E+00 -0.14822820378E+02 -0.39569184416E+02  0.42526664447E+02  0.47000000000E+01 0.  1.
         11    1    6    6    0    0 -0.48748398269E+01 -0.22727021047E+02  0.44345690905E+02  0.50068172034E+02  0.00000000000E+00 0. -1.
        -12    1    6    6    0    0  0.58470960562E+02  0.41192842066E+02  0.76339708647E+02  0.10461096779E+03  0.00000000000E+00 0.  1.
</event>
<event>
12    1  0.8219652E-002  0.3023410E+03  0.7818608E-02  0.1084316E+00
         21   -1    0    0  503  502  0.00000000000E+00  0.00000000000E+00  0.17957965861E+04  0.17957965861E+04  0.00000000000E+00 0. -1.
         21   -1    0    0  501  503 -0.00000000000E+00 -0.00000000000E+00 -0.57305115353E+02  0.57305115353E+02  0.00000000000E+00 0.  1.
          6    2    1    2  501    0  0.14615004262E+03 -0.19793752896E+03  0.55423629106E+03  0.63133820025E+03  0.17570132738E+03 0.  0.
         24    2    3    3    0    0  0.26002276279E+02 -0.96472759489E+02  0.34744426590E+03  0.37150052617E+03  0.85510299646E+02 0.  0.
         -6    2    1    2    0  502 -0.14615004262E+03  0.19793752896E+03  0.11842551797E+04  0.12217635012E+04  0.17235609046E+03 0.  0.
        -24    2    5    5    0    0 -0.67119297737E+02  0.39293462564E+02  0.29930573196E+03  0.31922740027E+03  0.79203759840E+02 0.  0.
          5    1    3    3  501    0  0.12014776634E+03 -0.10146476948E+03  0.20679202517E+03  0.25983767409E+03  0.47000000000E+01 0. -1.
        -13    1    4    4    0    0 -0.10805862601E+02 -0.30720578698E+02  0.26961624331E+02  0.42278242734E+02  0.00000000000E+00 0.  1.
         14    1    4    4    0    0  0.36808138880E+02 -0.65752180791E+02  0.32048264156E+03  0.32922228344E+03  0.00000000000E+00 0. -1.
         -5    1    5    5    0  502 -0.79030744885E+02  0.15864406640E+03  0.88494944775E+03  0.90253610095E+03  0.47000000000E+01 0.  1.
         11    1    6    6    0    0 -0.23549498948E+02 -0.20386310634E+02  0.14276570719E+03  0.14612401484E+03  0.00000000000E+00 0. -1.
        -12    1    6    6    0    0 -0.43569798790E+02  0.59679773198E+02  0.15654002476E+03  0.17310338543E+03  0.00000000000E+00 0.  1.
</event>
<event>
12    1  0.8219652E-002  0.2445465E+03  0.7818608E-02  0.1117172E+00
         21   -1    0    0  501  502  0.00000000000E+00  0.00000000000E+00  0.11872793832E+04  0.11872793832E+04  0.00000000000E+00 0.  1.
         21   -1    0    0  502  503 -0.00000000000E+00 -0.00000000000E+00 -0.65951990519E+02  0.65951990519E+02  0.00000000000E+00 0. -1.
         -6    2    1    2    0  503  0.53805766475E+02  0.16334790362E+03  0.24957552102E+03  0.34782853902E+03  0.17064335248E+03 0.  0.
        -24    2    3    3    0    0  0.97855899261E+02  0.15023237918E+03  0.19826070508E+03  0.27877977716E+03  0.79153725129E+02 0.  0.
          6    2    1    2  501    0 -0.53805766475E+02 -0.16334790362E+03  0.87175187167E+03  0.90540283470E+03  0.17385444831E+03 0.  0.
         24    2    5    5    0    0 -0.10158456250E+03 -0.11383661953E+03  0.54933359210E+03  0.57569111576E+03  0.79841505970E+02 0.  0.
          5    1    5    5  501    0  0.47778796029E+02 -0.49511284097E+02  0.32241827957E+03  0.32971171894E+03  0.47000000000E+01 0. -1.
        -11    1    6    6    0    0 -0.47775944477E+02 -0.86060873907E+02  0.43831561661E+03  0.44923222797E+03  0.00000000000E+00 0.  1.
         12    1    6    6    0    0 -0.53808618027E+02 -0.27775745619E+02  0.11101797549E+03  0.12645888779E+03  0.00000000000E+00 0. -1.
         -5    1    3    3    0  503 -0.44050132786E+02  0.13115524439E+02  0.51314815939E+02  0.69048761862E+02  0.47000000000E+01 0.  1.
         13    1    4    4    0    0  0.42535405829E+02  0.11807971549E+03  0.16300297289E+03  0.20572323430E+03  0.00000000000E+00 0. -1.
        -14    1    4    4    0    0  0.55320493432E+02  0.32152663690E+02  0.35257732185E+02  0.73056542860E+02  0.00000000000E+00 0.  1.
</event>
<event>
12    1  0.8219652E-002  0.1771474E+03  0.7818608E-02  0.1170849E+00
         21   -1    0    0  503  502  0.00000000000E+00  0.00000000000E+00  0.40194943683E+03  0.40194943683E+03  0.00000000000E+00 0. -1.
         21   -1    0    0  501  503 -0.00000000000E+00 -0.00000000000E+00 -0.11588164790E+03  0.11588164790E+03  0.00000000000E+00 0. -1.
          6    2    1    2  501    0 -0.19280143837E+02 -0.33737303962E+02 -0.60275905200E+01  0.17621592449E+03  0.17177249656E+03 0.  0.
         24    2    3    3    0    0 -0.58737549550E+02 -0.66824109670E+02  0.14563044858E+02  0.12055904852E+03  0.80042741987E+02 0.  0.
         -6    2    1    2    0  502  0.19280143837E+02  0.33737303962E+02  0.29209537944E+03  0.34161516024E+03  0.17283309112E+03 0.  0.
        -24    2    5    5    0    0 -0.37751598878E+02 -0.25726759519E+02  0.12668818686E+03  0.15676326308E+03  0.80235743843E+02 0.  0.
          5    1    3    3  501    0  0.39457405714E+02  0.33086805709E+02 -0.20590635378E+02  0.55656875972E+02  0.47000000000E+01 0. -1.
        -13    1    4    4    0    0 -0.20438466373E+02 -0.65918828042E+02  0.34735208249E+02  0.77262911479E+02  0.00000000000E+00 0.  1.
         14    1    4    4    0    0 -0.38299083177E+02 -0.90528162842E+00 -0.20172163391E+02  0.43296137044E+02  0.00000000000E+00 0. -1.
         -5    1    5    5    0  502  0.57031742715E+02  0.59464063481E+02  0.16540719259E+03  0.18485189716E+03  0.47000000000E+01 0.  1.
         13    1    6    6    0    0 -0.59343534051E+01 -0.11815337601E+02  0.12082489400E+03  0.12154617955E+03  0.00000000000E+00 0. -1.
        -14    1    6    6    0    0 -0.31817245473E+02 -0.13911421918E+02  0.58632928536E+01  0.35217083530E+02  0.00000000000E+00 0.  1.
</event>
<event>
12    1  0.8219652E-002  0.2345832E+03  0.7818608E-02  0.1123816E+00
         21   -1    0    0  503  502  0.00000000000E+00  0.00000000000E+00  0.15008946276E+04  0.15008946276E+04  0.00000000000E+00 0.  1.
         21   -1    0    0  501  503 -0.00000000000E+00 -0.00000000000E+00 -0.37664575779E+02  0.37664575779E+02  0.00000000000E+00 0. -1.
          6    2    1    2  501    0 -0.17571886913E+02  0.15681340543E+03  0.58403950147E+03  0.62861123646E+03  0.17073585445E+03 0.  0.
         24    2    3    3    0    0  0.17946837375E+02  0.16786772143E+03  0.53650052129E+03  0.56806520179E+03  0.79772196136E+02 0.  0.
         -6    2    1    2    0  502  0.17571886913E+02 -0.15681340543E+03  0.87919055031E+03  0.90994796688E+03  0.17358013520E+03 0.  0.
        -24    2    5    5    0    0 -0.29969668024E+02 -0.15504299798E+03  0.77855051408E+03  0.79853055046E+03  0.81077893539E+02 0.  0.
          5    1    3    3  501    0 -0.35518724288E+02 -0.11054316001E+02  0.47538980186E+02  0.60546034671E+02  0.47000000000E+01 0. -1.
        -11    1    4    4    0    0 -0.16173859402E+02  0.10717284687E+03  0.23747508307E+03  0.26104028025E+03  0.00000000000E+00 0.  1.
         12    1    4    4    0    0  0.34120696777E+02  0.60694874557E+02  0.29902543822E+03  0.30702492154E+03  0.00000000000E+00 0. -1.
         -5    1    5    5    0  502  0.47541554936E+02 -0.17704074450E+01  0.10064003623E+03  0.11141741642E+03  0.47000000000E+01 0.  1.
         11    1    6    6    0    0  0.20069592329E+02 -0.13458011146E+02  0.64914902525E+02  0.69266522723E+02  0.00000000000E+00 0. -1.
        -12    1    6    6    0    0 -0.50039260352E+02 -0.14158498684E+03  0.71363561156E+03  0.72926402774E+03  0.00000000000E+00 0.  1.
</event>
<event>
12    1  0.8219652E-002  0.3146599E+03  0.7818608E-02  0.1078389E+00
         21   -1    0    0  501  502  0.00000000000E+00  0.00000000000E+00  0.97650998653E+03  0.97650998653E+03  0.00000000000E+00 0. -1.
         21   -1    0    0  502  503 -0.00000000000E+00 -0.00000000000E+00 -0.20553500208E+03  0.20553500208E+03  0.00000000000E+00 0.  1.
         -6    2    1    2    0  503  0.14366594028E+03 -0.21772929419E+03 -0.37273212752E+02  0.31470653808E+03  0.17206093332E+03 0.  0.
        -24    2    3    3    0    0  0.65260236201E+02 -0.74594206173E+02  0.39053520878E+02  0.13447621843E+03  0.82069981157E+02 0.  0.
          6    2    1    2  501    0 -0.14366594028E+03  0.21772929419E+03  0.80824819720E+03  0.86733845053E+03  0.17596843904E+03 0.  0.
         24    2    5    5    0    0 -0.11373378746E+03  0.80173768827E+02  0.30422713375E+03  0.34400607170E+03  0.80142503303E+02 0.  0.
          5    1    5    5  501    0 -0.29932152822E+02  0.13755552536E+03  0.50402106345E+03  0.52333237883E+03  0.47000000000E+01 0. -1.
        -13    1    6    6    0    0 -0.11700957806E+03  0.89233804261E+02  0.26011373151E+03  0.29885291784E+03  0.00000000000E+00 0.  1.
         14    1    6    6    0    0  0.32757905980E+01 -0.90600354348E+01  0.44113402235E+02  0.45153153853E+02  0.00000000000E+00 0. -1.
         -5    1    3    3    0  503  0.78405704080E+02 -0.14313508802E+03 -0.76326733630E+02  0.18023031965E+03  0.47000000000E+01 0.  1.
         13    1    4    4    0    0  0.54574890774E+02 -0.23794003559E+01  0.25256426484E+02  0.60182782653E+02  0.00000000000E+00 0. -1.
        -14    1    4    4    0    0  0.10685345427E+02 -0.72214805817E+02  0.13797094394E+02  0.74293435779E+02  0.00000000000E+00 0.  1.
</event>
<event>
12    1  0.8219652E-002  0.1813297E+03  0.7818608E-02  0.1166710E+00
         21   -1    0    0  501  502  0.00000000000E+00  0.00000000000E+00  0.15050712439E+03  0.15050712439E+03  0.00000000000E+00 0. -1.
         21   -1    0    0  502  503 -0.00000000000E+00 -0.00000000000E+00 -0.63993423112E+03  0.63993423112E+03  0.00000000000E+00 0.  1.
         -6    2    1    2    0  503  0.12555587201E+02  0.55560967861E+02 -0.56563290892E+03  0.59374924260E+03  0.17132691417E+03 0.  0.
        -24    2    3    3    0    0 -0.40035673878E+02  0.71888209094E+02 -0.46967984100E+03  0.48301758140E+03  0.77045837766E+02 0.  0.
          6    2    1    2  501    0 -0.12555587201E+02 -0.55560967861E+02  0.76205802195E+02  0.19669211291E+03  0.17215051284E+03 0.  0.
         24    2    5    5    0    0  0.50570206506E+02  0.21147004935E+01  0.28066013111E+02  0.98453231378E+02  0.79646217315E+02 0.  0.
          5    1    5    5  501    0 -0.63125793707E+02 -0.57675668354E+02  0.48139789085E+02  0.98238881531E+02  0.47000000000E+01 0. -1.
        -11    1    6    6    0    0  0.92934003858E+01 -0.52558235585E+01 -0.27119608561E+02  0.29145568111E+02  0.00000000000E+00 0.  1.
         12    1    6    6    0    0  0.41276806120E+02  0.73705240520E+01  0.55185621671E+02  0.69307663267E+02  0.00000000000E+00 0. -1.
         -5    1    3    3    0  503  0.52591261079E+02 -0.16327241233E+02 -0.95953067926E+02  0.11073166120E+03  0.47000000000E+01 0.  1.
         13    1    4    4    0    0 -0.17346007344E+02  0.44823559749E+00 -0.17417030365E+02  0.24585317420E+02  0.00000000000E+00 0. -1.
        -14    1    4    4    0    0 -0.22689666534E+02  0.71439973496E+02 -0.45226281063E+03  0.45843226398E+03  0.00000000000E+00 0.  1.
</event>
<event>
12    1  0.8219652E-002  0.2003437E+03  0.7818608E-02  0.1149553E+00
         21   -1    0    0  501  502  0.00000000000E+00  0.00000000000E+00  0.78926656637E+03  0.78926656637E+03  0.00000000000E+00 0.  1.
         21   -1    0    0  502  503 -0.00000000000E+00 -0.00000000000E+00 -0.62718672011E+02  0.62718672011E+02  0.00000000000E+00 0.  1.
         -6    2    1    2    0  503  0.96358712746E+02 -0.35692941401E+02  0.17738520450E+03  0.26758757104E+03  0.17198433014E+03 0.  0.
        -24    2    3    3    0    0  0.72974106306E+02 -0.70994376820E+02  0.18286210593E+03  0.22463273883E+03  0.81583673847E+02 0.  0.
          6    2    1    2  501    0 -0.96358712746E+02  0.35692941401E+02  0.54916268986E+03  0.58439766734E+03  0.17141174425E+03 0.  0.
         24    2    5    5    0    0 -0.42891129412E+02 -0.27984339287E+02  0.15685631997E+03  0.18334909621E+03  0.79938812477E+02 0.  0.
          5    1    5    5  501    0 -0.53467583335E+02  0.63677280688E+02  0.39230636989E+03  0.40104857112E+03  0.47000000000E+01 0. -1.
        -11    1    6    6    0    0 -0.24824026738E+02  0.21123732604E+02  0.10393694983E+03  0.10892811356E+03  0.00000000000E+00 0.  1.
         12    1    6    6    0    0 -0.18067102674E+02 -0.49108071891E+02  0.52919370138E+02  0.74420982657E+02  0.00000000000E+00 0. -1.
         -5    1    3    3    0  503  0.23384606440E+02  0.35301435419E+02 -0.54769014323E+01  0.42954832211E+02  0.47000000000E+01 0.  1.
         11    1    4    4    0    0  0.46465070612E+02 -0.63080562864E+02  0.59966477063E+02  0.98661738123E+02  0.00000000000E+00 0. -1.
        -12    1    4    4    0    0  0.26509035694E+02 -0.79138139561E+01  0.12289562887E+03  0.12597100071E+03  0.00000000000E+00 0.  1.
</event>
<event>
12    1  0.8219652E-002  0.1933825E+03  0.7818608E-02  0.1156119E+00
         21   -1    0    0  503  502  0.00000000000E+00  0.00000000000E+00  0.20947871422E+03  0.20947871422E+03  0.00000000000E+00 0. -1.
         21   -1    0    0  501  503 -0.00000000000E+00 -0.00000000000E+00 -0.26068186303E+03  0.26068186303E+03  0.00000000000E+00 0. -1.
          6    2    1    2  501    0 -0.54702977882E+02  0.59245688631E+02 -0.15992894198E+03  0.25094632558E+03  0.17576781398E+03 0.  0.
         24    2    3    3    0    0  0.14940492271E+02 -0.23489721452E+02 -0.33039666820E+02  0.84158019136E+02  0.72221653804E+02 0.  0.
         -6    2    1    2    0  502  0.54702977882E+02 -0.59245688631E+02  0.10872579317E+03  0.21921425168E+03  0.17242715166E+03 0.  0.
        -24    2    5    5    0    0  0.65516616670E+02  0.16619728568E+02  0.90557161494E+02  0.14031757565E+03  0.83185215646E+02 0.  0.
          5    1    3    3  501    0 -0.69643470153E+02  0.82735410083E+02 -0.12688927516E+03  0.16678830644E+03  0.47000000000E+01 0. -1.
        -13    1    4    4    0    0  0.36853903927E+02 -0.14570164759E+02  0.43961478935E+01  0.39872622839E+02  0.00000000000E+00 0.  1.
         14    1    4    4    0    0 -0.21913411655E+02 -0.89195566930E+01 -0.37435814713E+02  0.44285396298E+02  0.00000000000E+00 0. -1.
         -5    1    5    5    0  502 -0.10813638788E+02 -0.75865417199E+02  0.18168631674E+02  0.78896676023E+02  0.47000000000E+01 0.  1.
         13    1    6    6    0    0  0.51970376155E+02  0.38682276572E+02  0.24319651567E+02  0.69200317708E+02  0.00000000000E+00 0. -1.
        -14    1    6    6    0    0  0.13546240515E+02 -0.22062548004E+02  0.66237509927E+02  0.71117257947E+02  0.00000000000E+00 0.  1.
</event>
<event>
12    1  0.8219652E-002  0.1728210E+03  0.7818608E-02  0.1175085E+00
         21   -1    0    0  503  502  0.00000000000E+00  0.00000000000E+00  0.18775241892E+03  0.18775241892E+03  0.00000000000E+00 0.  1.
         21   -1    0    0  501  503 -0.00000000000E+00 -0.00000000000E+00 -0.22257206671E+03  0.22257206671E+03  0.00000000000E+00 0.  1.
          6    2    1    2  501    0  0.98293793629E+01  0.87868958276E+01 -0.12742647225E+03  0.21425527763E+03  0.17173814930E+03 0.  0.
         24    2    3    3    0    0  0.50789409996E+02 -0.37320698074E+02 -0.79405889121E+02  0.13595010073E+03  0.90579997737E+02 0.  0.
         -6    2    1    2    0  502 -0.98293793629E+01 -0.87868958276E+01  0.92606824462E+02  0.19606920800E+03  0.17231739364E+03 0.  0.
        -24    2    5    5    0    0 -0.65705975461E+02  0.57740984294E+00  0.93004699955E+02  0.13921736091E+03  0.80087394466E+02 0.  0.
          5    1    3    3  501    0 -0.40960030633E+02  0.46107593901E+02 -0.48020583126E+02  0.78305176895E+02  0.47000000000E+01 0. -1.
        -13    1    4    4    0    0  0.18844249804E+02 -0.58494298735E+02 -0.75613772158E+02  0.97437832874E+02  0.00000000000E+00 0.  1.
         14    1    4    4    0    0  0.31945160192E+02  0.21173600661E+02 -0.37921169630E+01  0.38512267860E+02  0.00000000000E+00 0. -1.
         -5    1    5    5    0  502  0.55876596098E+02 -0.93643056705E+01 -0.39787549331E+00  0.56851847086E+02  0.47000000000E+01 0.  1.
         13    1    6    6    0    0  0.87736965443E+01  0.15477000458E+02 -0.16364069593E+01  0.17865976658E+02  0.00000000000E+00 0. -1.
        -14    1    6    6    0    0 -0.74479672006E+02 -0.14899590615E+02  0.94641106915E+02  0.12135138425E+03  0.00000000000E+00 0.  1.
</event>
<event>
12    1  0.8219652E-002  0.1817153E+03  0.7818608E-02  0.1166483E+00
         21   -1    0    0  501  502  0.00000000000E+00  0.00000000000E+00  0.33171658758E+03  0.33171658758E+03  0.00000000000E+00 0.  1.
         21   -1    0    0  502  503 -0.00000000000E+00 -0.00000000000E+00 -0.98796327740E+02  0.98796327740E+02  0.00000000000E+00 0.  1.
         -6    2    1    2    0  503 -0.59587005450E+01 -0.53629054385E+02  0.11480948376E+03  0.21378591030E+03  0.17208026120E+03 0.  0.
        -24    2    3    3    0    0 -0.63557068311E+02 -0.64859996821E+02  0.75561806165E+02  0.14303157309E+03  0.80635750323E+02 0.  0.
          6    2    1    2  501    0  0.59587005450E+01  0.53629054385E+02  0.11811077608E+03  0.21672700502E+03  0.17351904130E+03 0.  0.
         24    2    5    5    0    0 -0.34498980992E+02  0.82456359056E+02  0.11597360167E+03  0.16678208531E+03  0.79857102752E+02 0.  0.
          5    1    5    5  501    0  0.40457681537E+02 -0.28827304671E+02  0.21371744107E+01  0.49944919705E+02  0.47000000000E+01 0. -1.
        -13    1    6    6    0    0 -0.32783448456E+02  0.52061379261E+02  0.17874049121E+02  0.64067334385E+02  0.00000000000E+00 0.  1.
         14    1    6    6    0    0 -0.17155325353E+01  0.30394979794E+02  0.98099552546E+02  0.10271475093E+03  0.00000000000E+00 0. -1.
         -5    1    3    3    0  503  0.57598367766E+02  0.11230942436E+02  0.39247677599E+02  0.70754337212E+02  0.47000000000E+01 0.  1.
         13    1    4    4    0    0  0.12170371764E+02  0.23094240928E+01  0.29152830768E+02  0.31675525731E+02  0.00000000000E+00 0. -1.
        -14    1    4    4    0    0 -0.75727440076E+02 -0.67169420914E+02  0.46408975397E+02  0.11135604736E+03  0.00000000000E+00 0.  1.
</event>
<event>
12    1  0.8219652E-002  0.3205875E+03  0.7818608E-02  0.1075653E+00
         21   -1    0    0  501  502  0.00000000000E+00  0.00000000000E+00  0.15198864833E+03  0.15198864833E+03  0.00000000000E+00 0.  1.
         21   -1    0    0  502  503 -0.00000000000E+00 -0.00000000000E+00 -0.10497330635E+04  0.10497330635E+04  0.00000000000E+00 0. -1.
         -6    2    1    2    0  503  0.18826850065E+03  0.19468792777E+03 -0.81075192091E+03  0.87183428536E+03  0.17154569747E+03 0.  0.
        -24    2    3    3    0    0  0.16084261032E+03  0.14941767226E+03 -0.77048422664E+03  0.80516230702E+03  0.80277089283E+02 0.  0.
          6    2    1    2  501    0 -0.18826850065E+03 -0.19468792777E+03 -0.86992494245E+02  0.32988742645E+03  0.16706167280E+03 0.  0.
         24    2    5    5    0    0 -0.20969364907E+03 -0.18450451455E+03 -0.93358696724E+02  0.30488027900E+03  0.78884700139E+02 0.  0.
          5    1    5    5  501    0  0.21425148424E+02 -0.10183413217E+02  0.63662024785E+01  0.25007147453E+02  0.47000000000E+01 0. -1.
        -13    1    6    6    0    0 -0.45158858623E+02 -0.18834491003E+02  0.93208571980E+01  0.49809024708E+02  0.00000000000E+00 0.  1.
         14    1    6    6    0    0 -0.16453479045E+03 -0.16567002355E+03 -0.10267955392E+03  0.25507125429E+03  0.00000000000E+00 0. -1.
         -5    1    3    3    0  503  0.27425890327E+02  0.45270255514E+02 -0.40267694268E+02  0.66671978343E+02  0.47000000000E+01 0.  1.
         13    1    4    4    0    0  0.30438851117E+02  0.45835645271E+02 -0.98259848519E+02  0.11261628597E+03  0.00000000000E+00 0. -1.
        -14    1    4    4    0    0  0.13040375921E+03  0.10358202699E+03 -0.67222437812E+03  0.69254602105E+03  0.00000000000E+00 0.  1.
</event>
<event>
12    1  0.8219652E-002  0.1939079E+03  0.7818608E-02  0.1155465E+00
         21   -1    0    0  503  502  0.00000000000E+00  0.00000000000E+00  0.15249683449E+03  0.15249683449E+03  0.00000000000E+00 0. -1.
         21   -1    0    0  501  503 -0.00000000000E+00 -0.00000000000E+00 -0.26437374419E+03  0.26437374419E+03  0.00000000000E+00 0. -1.
          6    2    1    2  501    0  0.89747272441E+02  0.50626360638E+01 -0.11379308945E+03  0.22295324701E+03  0.16934898863E+03 0.  0.
         24    2    3    3    0    0  0.30978312940E+02  0.61814237096E+02 -0.39128946961E+02  0.11217708082E+03  0.79195752353E+02 0.  0.
         -6    2    1    2    0  502 -0.89747272441E+02 -0.50626360638E+01  0.19161797569E+01  0.19391733168E+03  0.17181401743E+03 0.  0.
        -24    2    5    5    0    0 -0.72142175384E+02  0.55526528107E+02 -0.32765928197E+02  0.12176523629E+03  0.73928870710E+02 0.  0.
          5    1    3    3  501    0  0.58768959501E+02 -0.56751601032E+02 -0.74664142494E+02  0.11077616619E+03  0.47000000000E+01 0. -1.
        -13    1    4    4    0    0  0.39813722440E+02  0.72948708309E+02 -0.47458246751E+02  0.95702307826E+02  0.00000000000E+00 0.  1.
         14    1    4    4    0    0 -0.88354094999E+01 -0.11134471213E+02  0.83292997900E+01  0.16474772995E+02  0.00000000000E+00 0. -1.
         -5    1    5    5    0  502 -0.17605097057E+02 -0.60589164171E+02  0.34682107954E+02  0.72152095392E+02  0.47000000000E+01 0.  1.
         13    1    6    6    0    0 -0.20303945716E+02  0.34834392784E+02  0.19954639986E+02  0.44987473693E+02  0.00000000000E+00 0. -1.
        -14    1    6    6    0    0 -0.51838229668E+02  0.20692135323E+02 -0.52720568183E+02  0.76777762593E+02  0.00000000000E+00 0.  1.
</event>
<event>
12    1  0.8219652E-002  0.1817081E+03  0.7818608E-02  0.1167308E+00
         21   -1    0    0  501  502  0.00000000000E+00  0.00000000000E+00  0.99220694123E+03  0.99220694123E+03  0.00000000000E+00 0. -1.
         21   -1    0    0  502  503 -0.00000000000E+00 -0.00000000000E+00 -0.33489077955E+02  0.33489077955E+02  0.00000000000E+00 0. -1.
         -6    2    1    2    0  503  0.13263890588E+02  0.30009282790E+02  0.39366929907E+03  0.43358201908E+03  0.17872146597E+03 0.  0.
        -24    2    3    3    0    0 -0.55187289504E+02 -0.98326827116E+01  0.23649771344E+03  0.25751969035E+03  0.85105251796E+02 0.  0.
          6    2    1    2  501    0 -0.13263890588E+02 -0.30009282790E+02  0.56504856421E+03  0.59211400010E+03  0.17390405790E+03 0.  0.
         24    2    5    5    0    0  0.37985031451E+02  0.30781594352E+02  0.24375108868E+03  0.26109113000E+03  0.79772274403E+02 0.  0.
          5    1    5    5  501    0 -0.51248922039E+02 -0.60790877142E+02  0.32129747553E+03  0.33102287011E+03  0.47000000000E+01 0. -1.
        -11    1    6    6    0    0  0.35407940672E+02  0.31479575526E+01  0.32946867376E+02  0.48467803430E+02  0.00000000000E+00 0.  1.
         12    1    6    6    0    0  0.25770907790E+01  0.27633636799E+02  0.21080422131E+03  0.21262332657E+03  0.00000000000E+00 0. -1.
         -5    1    3    3    0  503  0.68451180092E+02  0.39841965502E+02  0.15717158563E+03  0.17606232874E+03  0.47000000000E+01 0.  1.
         13    1    4    4    0    0  0.44663447443E+01 -0.10709628349E+02 -0.19106639022E+01  0.11759889935E+02  0.00000000000E+00 0. -1.
        -14    1    4    4    0    0 -0.59653634248E+02  0.87694563726E+00  0.23840837734E+03  0.24575980041E+03  0.00000000000E+00 0.  1.
</event>
<event>
12    1  0.8219652E-002  0.1819503E+03  0.7818608E-02  0.1166092E+00
         21   -1    0    0  503  502  0.00000000000E+00  0.00000000000E+00  0.11351207472E+03  0.11351207472E+03  0.00000000000E+00 0. -1.
         21   -1    0    0  501  503 -0.00000000000E+00 -0.00000000000E+00 -0.31618997652E+03  0.31618997652E+03  0.00000000000E+00 0.  1.
          6    2    1    2  501    0  0.14170341518E+02 -0.55942222595E+02 -0.16268939764E+03  0.24407736659E+03  0.17255604867E+03 0.  0.
         24    2    3    3    0    0 -0.66620127423E+01  0.27116722470E+02 -0.11132697768E+03  0.14411255517E+03  0.87149489649E+02 0.  0.
         -6    2    1    2    0  502 -0.14170341518E+02  0.55942222595E+02 -0.39988504158E+02  0.18562468464E+03  0.17183454901E+03 0.  0.
        -24    2    5    5    0    0  0.73377211494E+01 -0.26399047573E+02 -0.55119371563E+02  0.99058440171E+02  0.77612354578E+02 0.  0.
          5    1    3    3  501    0  0.20832354261E+02 -0.83058945066E+02 -0.51362419962E+02  0.99964811428E+02  0.47000000000E+01 0. -1.
        -13    1    4    4    0    0  0.38762724950E+02  0.24979727214E+01 -0.37413008800E+02  0.53930714261E+02  0.00000000000E+00 0.  1.
         14    1    4    4    0    0 -0.45424737692E+02  0.24618749749E+02 -0.73913968880E+02  0.90181840906E+02  0.00000000000E+00 0. -1.
         -5    1    5    5    0  502 -0.21508062668E+02  0.82341270169E+02  0.15130867405E+02  0.86566244467E+02  0.47000000000E+01 0.  1.
         13    1    6    6    0    0  0.40041132984E+02 -0.25739082020E+02 -0.21760656357E+02  0.52338502453E+02  0.00000000000E+00 0. -1.
        -14    1    6    6    0    0 -0.32703411835E+02 -0.65996555277E+00 -0.33358715206E+02  0.46719937718E+02  0.00000000000E+00 0.  1.
</event>
<event>
12    1  0.8219652E-002  0.2185760E+03  0.7818608E-02  0.1135060E+00
         21   -1    0    0  503  502  0.00000000000E+00  0.00000000000E+00  0.29299178804E+04  0.29299178804E+04  0.00000000000E+00 0. -1.
         21   -1    0    0  501  503 -0.00000000000E+00 -0.00000000000E+00 -0.16895026590E+02  0.16895026590E+02  0.00000000000E+00 0. -1.
          6    2    1    2  501    0  0.10715831869E+03 -0.83097905218E+02  0.11694329943E+04  0.11895761313E+04  0.17067418357E+03 0.  0.
         24    2    3    3    0    0  0.11659453367E+03 -0.42280620323E+02  0.57396983501E+03  0.59262256782E+03  0.79863635378E+02 0.  0.
         -6    2    1    2    0  502 -0.10715831869E+03  0.83097905218E+02  0.17435898594E+04  0.17572367756E+04  0.17142730372E+03 0.  0.
        -24    2    5    5    0    0 -0.80948284850E+02  0.13065551347E+02  0.57350689101E+03  0.58475746258E+03  0.79421675552E+02 0.  0.
          5    1    3    3  501    0 -0.94362149854E+01 -0.40817284895E+02  0.59546315932E+03  0.59695356353E+03  0.47000000000E+01 0. -1.
        -13    1    4    4    0    0  0.66203141140E+02 -0.64176543597E+02  0.37949942888E+03  0.39053975619E+03  0.00000000000E+00 0.  1.
         14    1    4    4    0    0  0.50391392534E+02  0.21895923274E+02  0.19447040612E+03  0.20208281163E+03  0.00000000000E+00 0. -1.
         -5    1    5    5    0  502 -0.26210033838E+02  0.70032353871E+02  0.11700829684E+04  0.11724793130E+04  0.47000000000E+01 0.  1.
         11    1    6    6    0    0 -0.88142568276E+01 -0.10255695838E+02  0.11768897190E+02  0.17927000910E+02  0.00000000000E+00 0. -1.
        -12    1    6    6    0    0 -0.72134028023E+02  0.23321247185E+02  0.56173799382E+03  0.56683046167E+03  0.00000000000E+00 0.  1.
</event>
<event>
12    1  0.8219652E-002  0.1773389E+03  0.7818608E-02  0.1170514E+00
         21   -1    0    0  503  502  0.00000000000E+00  0.00000000000E+00  0.41499239775E+03  0.41499239775E+03  0.00000000000E+00 0. -1.
         21   -1    0    0  501  503 -0.00000000000E+00 -0.00000000000E+00 -0.80263417976E+02  0.80263417976E+02  0.00000000000E+00 0. -1.
          6    2    1    2  501    0 -0.38936243231E+02  0.15177734603E+02  0.22730746455E+03  0.28830150688E+03  0.17234465691E+03 0.  0.
         24    2    3    3    0    0 -0.77249723033E+02 -0.28039527613E+01  0.21838587979E+03  0.24479347900E+03  0.79095341271E+02 0.  0.
         -6    2    1    2    0  502  0.38936243231E+02 -0.15177734603E+02  0.10742151522E+03  0.20695430884E+03  0.17188458149E+03 0.  0.
        -24    2    5    5    0    0 -0.40580650655E+02 -0.15574772108E+02  0.89432565254E+02  0.12529167129E+03  0.76226349985E+02 0.  0.
          5    1    3    3  501    0  0.38313479802E+02  0.17981687364E+02  0.89215847599E+01  0.43508027876E+02  0.47000000000E+01 0. -1.
        -13    1    4    4    0    0  0.11032360342E+02  0.14247444351E+02  0.19633956365E+02  0.26649481942E+02  0.00000000000E+00 0.  1.
         14    1    4    4    0    0 -0.88282083375E+02 -0.17051397112E+02  0.19875192343E+03  0.21814399706E+03  0.00000000000E+00 0. -1.
         -5    1    5    5    0  502  0.79516893886E+02  0.39703750577E+00  0.17988949966E+02  0.81662637558E+02  0.47000000000E+01 0.  1.
         11    1    6    6    0    0  0.15830860737E+02  0.75825725128E+01  0.49195418579E+02  0.52233138588E+02  0.00000000000E+00 0. -1.
        -12    1    6    6    0    0 -0.56411511392E+02 -0.23157344621E+02  0.40237146675E+02  0.73058532698E+02  0.00000000000E+00 0.  1.
</event>
<event>
12    1  0.8219652E-002  0.2316080E+03  0.7818608E-02  0.1125577E+00
         21   -1    0    0  503  502  0.00000000000E+00  0.00000000000E+00  0.74649547116E+03  0.74649547116E+03  0.00000000000E+00 0.  1.
         21   -1    0    0  501  503 -0.00000000000E+00 -0.00000000000E+00 -0.87046030497E+02  0.87046030497E+02  0.00000000000E+00 0. -1.
          6    2    1    2  501    0  0.16572416030E+02  0.15469761564E+03  0.15477682768E+03  0.27826076079E+03  0.17107655407E+03 0.  0.
         24    2    3    3    0    0  0.46440228680E+01  0.10492039704E+03  0.17802440994E+03  0.22184624018E+03  0.80580438593E+02 0.  0.
         -6    2    1    2    0  502 -0.16572416030E+02 -0.15469761564E+03  0.50467261299E+03  0.55528074087E+03  0.17156997879E+03 0.  0.
        -24    2    5    5    0    0  0.97790209785E+01 -0.17527532525E+03  0.37660461155E+03  0.42283700430E+03  0.78377483171E+02 0.  0.
          5    1    3    3  501    0  0.11928393162E+02  0.49777218595E+02 -0.23247582265E+02  0.56414520610E+02  0.47000000000E+01 0. -1.
        -11    1    4    4    0    0 -0.16592334620E+02 -0.70647814819E+01  0.19038354604E+02  0.26223570534E+02  0.00000000000E+00 0.  1.
         12    1    4    4    0    0  0.21236357488E+02  0.11198517852E+03  0.15898605534E+03  0.19562266965E+03  0.00000000000E+00 0. -1.
         -5    1    5    5    0  502 -0.26351437008E+02  0.20577709612E+02  0.12806800144E+03  0.13244373657E+03  0.47000000000E+01 0.  1.
         13    1    6    6    0    0 -0.63088985314E+01 -0.12468104286E+03  0.17906511457E+03  0.21828760823E+03  0.00000000000E+00 0. -1.
        -14    1    6    6    0    0  0.16087919510E+02 -0.50594282385E+02  0.19753949698E+03  0.20454939607E+03  0.00000000000E+00 0.  1.
</event>
<event>
12    1  0.8219652E-002  0.1966975E+03  0.7818608E-02  0.1153148E+00
         21   -1    0    0  501  502  0.00000000000E+00  0.00000000000E+00  0.56934475379E+03  0.56934475379E+03  0.00000000000E+00 0. -1.
         21   -1    0    0  502  503 -0.00000000000E+00 -0.00000000000E+00 -0.76897764306E+02  0.76897764306E+02  0.00000000000E+00 0.  1.
         -6    2    1    2    0  503 -0.21186840002E+02 -0.92453519035E+02  0.12889422152E+03  0.23288973211E+03  0.16919625175E+03 0.  0.
        -24    2    3    3    0    0  0.48122011557E+02 -0.39332700016E+02  0.42381638625E+02  0.10987731274E+03  0.80087647463E+02 0.  0.
          6    2    1    2  501    0  0.21186840002E+02  0.92453519035E+02  0.36355276796E+03  0.41335278599E+03  0.17231765790E+03 0.  0.
         24    2    5    5    0    0  0.75893384828E+02  0.81121223538E+02  0.23594627032E+03  0.27397296245E+03  0.83964771845E+02 0.  0.
          5    1    5    5  501    0 -0.54706544826E+02  0.11332295498E+02  0.12760649765E+03  0.13937982354E+03  0.47000000000E+01 0. -1.
        -13    1    6    6    0    0 -0.64564951305E+01  0.41704301786E+02  0.41635552972E+02  0.59282833840E+02  0.00000000000E+00 0.  1.
         14    1    6    6    0    0  0.82349879958E+02  0.39416921752E+02  0.19431071734E+03  0.21469012861E+03  0.00000000000E+00 0. -1.
         -5    1    3    3    0  503 -0.69308851559E+02 -0.53120819019E+02  0.86512582898E+02  0.12301241936E+03  0.47000000000E+01 0.  1.
         13    1    4    4    0    0 -0.13533561191E+02 -0.35755223729E+02  0.25141632636E+02  0.45756911981E+02  0.00000000000E+00 0. -1.
        -14    1    4    4    0    0  0.61655572747E+02 -0.35774762869E+01  0.17240005990E+02  0.64120400762E+02  0.00000000000E+00 0.  1.
</event>
<event>
12    1  0.8219652E-002  0.2291881E+03  0.7818608E-02  0.1127299E+00
         21   -1    0    0  501  502  0.00000000000E+00  0.00000000000E+00  0.20212008941E+03  0.20212008941E+03  0.00000000000E+00 0.  1.
         21   -1    0    0  502  503 -0.00000000000E+00 -0.00000000000E+00 -0.39057486237E+03  0.39057486237E+03  0.00000000000E+00 0. -1.
         -6    2    1    2    0  503 -0.71959326006E+02 -0.13308166253E+03  0.77627740843E+02  0.24151540423E+03  0.17150729089E+03 0.  0.
        -24    2    3    3    0    0  0.14754171555E+02 -0.67214564909E+02 -0.10390823942E+02  0.10141878416E+03  0.73772062759E+02 0.  0.
          6    2    1    2  501    0  0.71959326006E+02  0.13308166253E+03 -0.26608251380E+03  0.35117954755E+03  0.17215776766E+03 0.  0.
         24    2    5    5    0    0 -0.12885869354E+01  0.12171450957E+03 -0.12658645109E+03  0.19314249358E+03  0.80397829137E+02 0.  0.
          5    1    5    5  501    0  0.73247912942E+02  0.11367152961E+02 -0.13949606271E+03  0.15803705397E+03  0.47000000000E+01 0. -1.
        -13    1    6    6    0    0 -0.29154555107E+02  0.26840181502E+02 -0.11194589076E+02  0.41178905415E+02  0.00000000000E+00 0.  1.
         14    1    6    6    0    0  0.27865968172E+02  0.94874328068E+02 -0.11539186201E+03  0.15196358816E+03  0.00000000000E+00 0. -1.
         -5    1    3    3    0  503 -0.86713497561E+02 -0.65867097622E+02  0.88018564785E+02  0.14009662007E+03  0.47000000000E+01 0.  1.
         13    1    4    4    0    0  0.27204953584E+02 -0.59324638563E+02  0.19479061129E+02  0.68109882269E+02  0.00000000000E+00 0. -1.
        -14    1    4    4    0    0 -0.12450782030E+02 -0.78899263460E+01 -0.29869885071E+02  0.33308901889E+02  0.00000000000E+00 0.  1.
</event>
<event>
12    1  0.8219652E-002  0.1809543E+03  0.7818608E-02  0.1167076E+00
         21   -1    0    0  501  502  0.00000000000E+00  0.00000000000E+00  0.17281186365E+03  0.17281186365E+03  0.00000000000E+00 0. -1.
         21   -1    0    0  502  503 -0.00000000000E+00 -0.00000000000E+00 -0.19167516673E+03  0.19167516673E+03  0.00000000000E+00 0. -1.
         -6    2    1    2    0  503  0.35940937365E+02  0.43222772448E+02  0.13478287744E+02  0.18145551976E+03  0.17200140225E+03 0.  0.
        -24    2    3    3    0    0  0.50617769818E+01 -0.53754240205E+01  0.65804812467E+02  0.10351026695E+03  0.79558690610E+02 0.  0.
          6    2    1    2  501    0 -0.35940937365E+02 -0.43222772448E+02 -0.32341590817E+02  0.18303151062E+03  0.17115664271E+03 0.  0.
         24    2    5    5    0    0 -0.18997485467E+02 -0.34903001352E+02 -0.86662250182E+02  0.12533295615E+03  0.81356501485E+02 0.  0.
          5    1    5    5  501    0 -0.16943451898E+02 -0.83197710959E+01  0.54320659364E+02  0.57698554463E+02  0.47000000000E+01 0. -1.
        -11    1    6    6    0    0  0.24212119707E+02  0.31833329414E+01 -0.53644927783E+02  0.58941824083E+02  0.00000000000E+00 0.  1.
         12    1    6    6    0    0 -0.43209605174E+02 -0.38086334293E+02 -0.33017322399E+02  0.66391132070E+02  0.00000000000E+00 0. -1.
         -5    1    3    3    0  503  0.30879160383E+02  0.48598196468E+02 -0.52326524723E+02  0.77945252809E+02  0.47000000000E+01 0.  1.
         13    1    4    4    0    0  0.28348325207E+02  0.20733770392E+02  0.81237679352E+01  0.36048750078E+02  0.00000000000E+00 0. -1.
        -14    1    4    4    0    0 -0.23286548225E+02 -0.26109194412E+02  0.57681044531E+02  0.67461516877E+02  0.00000000000E+00 0.  1.
</event>
<event>
12    1  0.8219652E-002  0.3035451E+03  0.7818608E-02  0.1084276E+00
         21   -1    0    0  501  502  0.00000000000E+00  0.00000000000E+00  0.40865306082E+03  0.40865306082E+03  0.00000000000E+00 0.  1.
         21   -1    0    0  502  503 -0.00000000000E+00 -0.00000000000E+00 -0.28742978856E+03  0.28742978856E+03  0.00000000000E+00 0.  1.
         -6    2    1    2    0  503 -0.24573162316E+02 -0.24580530909E+03 -0.10651243717E+03  0.32169013627E+03  0.17639601530E+03 0.  0.
        -24    2    3    3    0    0  0.10705548818E+02 -0.10492998129E+03  0.44503315616E+01  0.13886434080E+03  0.90214133847E+02 0.  0.
          6    2    1    2  501    0  0.24573162316E+02  0.24580530909E+03  0.22773570944E+03  0.37439271311E+03  0.16517342400E+03 0.  0.
         24    2    5    5    0    0  0.40536863516E+02  0.16847465432E+03  0.21991915913E+03  0.29490649807E+03  0.92619974081E+02 0.  0.
          5    1    5    5  501    0 -0.15963701200E+02  0.77330654773E+02  0.78165503075E+01  0.79486215046E+02  0.47000000000E+01 0. -1.
        -13    1    6    6    0    0 -0.27897929537E+02  0.73647515929E+02  0.10159738240E+03  0.12854679765E+03  0.00000000000E+00 0.  1.
         14    1    6    6    0    0  0.68434793053E+02  0.94827138391E+02  0.11832177673E+03  0.16635970042E+03  0.00000000000E+00 0. -1.
         -5    1    3    3    0  503 -0.35278711134E+02 -0.14087532780E+03 -0.11096276874E+03  0.18282579547E+03  0.47000000000E+01 0.  1.
         13    1    4    4    0    0  0.40430591757E+02 -0.23826919188E+02 -0.16911451510E+02  0.49883384208E+02  0.00000000000E+00 0. -1.
        -14    1    4    4    0    0 -0.29725042939E+02 -0.81103062102E+02  0.21361783071E+02  0.88980956592E+02  0.00000000000E+00 0.  1.
</event>
<event>
12    1  0.8219652E-002  0.2511387E+03  0.7818608E-02  0.1113006E+00
         21   -1    0    0  501  502  0.00000000000E+00  0.00000000000E+00  0.21425388844E+03  0.21425388844E+03  0.00000000000E+00 0. -1.
         21   -1    0    0  502  503 -0.00000000000E+00 -0.00000000000E+00 -0.37111819558E+03  0.37111819558E+03  0.00000000000E+00 0.  1.
         -6    2    1    2    0  503  0.15018145311E+03  0.10433572576E+03 -0.21386103083E+03  0.32784684422E+03  0.16824565442E+03 0.  0.
        -24    2    3    3    0    0  0.14922393851E+03  0.98789949576E+02 -0.10621804061E+03  0.21995441719E+03  0.71206990719E+02 0.  0.
          6    2    1    2  501    0 -0.15018145311E+03 -0.10433572576E+03  0.56996723691E+02  0.25752523979E+03  0.17213427925E+03 0.  0.
         24    2    5    5    0    0 -0.70304072423E+02 -0.38802936880E+01 -0.25027378179E+02  0.10513845209E+03  0.73959483312E+02 0.  0.
          5    1    5    5  501    0 -0.79877380682E+02 -0.10045543207E+03  0.82024101870E+02  0.15238678770E+03  0.47000000000E+01 0. -1.
        -11    1    6    6    0    0 -0.27479962298E+02  0.89188780133E+01  0.24890641837E+02  0.38134482610E+02  0.00000000000E+00 0.  1.
         12    1    6    6    0    0 -0.42824110125E+02 -0.12799171701E+02 -0.49918020016E+02  0.67003969484E+02  0.00000000000E+00 0. -1.
         -5    1    3    3    0  503  0.95751459370E+00  0.55457761867E+01 -0.10764299022E+03  0.10789242704E+03  0.47000000000E+01 0.  1.
         13    1    4    4    0    0  0.44583309831E+02  0.15611540193E+02  0.30055819416E+01  0.47333130316E+02  0.00000000000E+00 0. -1.
        -14    1    4    4    0    0  0.10464062868E+03  0.83178409383E+02 -0.10922362255E+03  0.17262128687E+03  0.00000000000E+00 0.  1.
</event>
<event>
12    1  0.8219652E-002  0.1915130E+03  0.7818608E-02  0.1160488E+00
         21   -1    0    0  503  502  0.00000000000E+00  0.00000000000E+00  0.86382478679E+02  0.86382478679E+02  0.00000000000E+00 0.  1.
         21   -1    0    0  501  503 -0.00000000000E+00 -0.00000000000E+00 -0.40707180190E+03  0.40707180190E+03  0.00000000000E+00 0.  1.
          6    2    1    2  501    0 -0.17496473386E+02 -0.36496396816E+02 -0.21233267729E+03  0.28594122914E+03  0.18718735832E+03 0.  0.
         24    2    3    3    0    0  0.59069686441E+02 -0.53447270216E+02 -0.13924859762E+03  0.17864220006E+03  0.78594052910E+02 0.  0.
         -6    2    1    2    0  502  0.17496473386E+02  0.36496396816E+02 -0.10835664594E+03  0.20751305145E+03  0.17228578073E+03 0.  0.
        -24    2    5    5    0    0 -0.41647628092E+01 -0.29485540160E+02 -0.16396975864E+02  0.92180939353E+02  0.85683851657E+02 0.  0.
          5    1    3    3  501    0 -0.76566159827E+02  0.16950873400E+02 -0.73084079664E+02  0.10729902907E+03  0.47000000000E+01 0. -1.
        -11    1    4    4    0    0  0.34452766912E+02  0.64221369119E+01 -0.92147161935E+02  0.98586695062E+02  0.00000000000E+00 0.  1.
         12    1    4    4    0    0  0.24616919529E+02 -0.59869407128E+02 -0.47101435689E+02  0.80055505001E+02  0.00000000000E+00 0. -1.
         -5    1    5    5    0  502  0.21661236195E+02  0.65981936976E+02 -0.91959670071E+02  0.11533211209E+03  0.47000000000E+01 0.  1.
         13    1    6    6    0    0  0.18188672603E+02  0.68161509469E+01 -0.39262210823E+02  0.43804211253E+02  0.00000000000E+00 0. -1.
        -14    1    6    6    0    0 -0.22353435413E+02 -0.36301691107E+02  0.22865234959E+02  0.48376728100E+02  0.00000000000E+00 0.  1.
</event>
<event>
12    1  0.8219652E-002  0.1820972E+03  0.7818608E-02  0.1166176E+00
         21   -1    0    0  501  502  0.00000000000E+00  0.00000000000E+00  0.41766598469E+03  0.41766598469E+03  0.00000000000E+00 0. -1.
         21   -1    0    0  502  503 -0.00000000000E+00 -0.00000000000E+00 -0.78870485917E+02  0.78870485917E+02  0.00000000000E+00 0.  1.
         -6    2    1    2    0  503 -0.24925293179E+02 -0.51734286528E+02  0.15823440867E+03  0.24124159580E+03  0.17280530321E+03 0.  0.
        -24    2    3    3    0    0 -0.59416669611E+02 -0.86702483804E+02  0.11379080007E+03  0.17483561555E+03  0.81064696116E+02 0.  0.
          6    2    1    2  501    0  0.24925293179E+02  0.51734286528E+02  0.18056109010E+03  0.25529487481E+03  0.17110072823E+03 0.  0.
         24    2    5    5    0    0  0.14060622393E+02 -0.38283344904E+02  0.10915470552E+03  0.13978653399E+03  0.77215346578E+02 0.  0.
          5    1    5    5  501    0  0.10864670786E+02  0.90017631432E+02  0.71406384581E+02  0.11550834082E+03  0.47000000000E+01 0. -1.
        -11    1    6    6    0    0  0.16245782657E+02 -0.15130404480E+02 -0.54389693227E+01  0.22856880390E+02  0.00000000000E+00 0.  1.
         12    1    6    6    0    0 -0.21851602641E+01 -0.23152940424E+02  0.11459367485E+03  0.11692965360E+03  0.00000000000E+00 0. -1.
         -5    1    3    3    0  503  0.34491376432E+02  0.34968197276E+02  0.44443608598E+02  0.66405980259E+02  0.47000000000E+01 0.  1.
         13    1    4    4    0    0 -0.18213580469E+02 -0.21192147861E+02  0.89441431143E+02  0.93704915823E+02  0.00000000000E+00 0. -1.
        -14    1    4    4    0    0 -0.41203089142E+02 -0.65510335943E+02  0.24349368930E+02  0.81130699722E+02  0.00000000000E+00 0.  1.
</event>
<event>
12    1  0.8219652E-002  0.2053766E+03  0.7818608E-02  0.1145887E+00
         21   -1    0    0  503  502  0.00000000000E+00  0.00000000000E+00  0.39277524068E+03  0.39277524068E+03  0.00000000000E+00 0. -1.
         21   -1    0    0  501  503 -0.00000000000E+00 -0.00000000000E+00 -0.14912705340E+03  0.14912705340E+03  0.00000000000E+00 0. -1.
          6    2    1    2  501    0 -0.96377744387E+02  0.57724658990E+02 -0.24764653366E+02  0.20393042936E+03  0.16838505306E+03 0.  0.
         24    2    3    3    0    0 -0.10663588981E+02 -0.37405513243E+01 -0.49392833762E+02  0.95516750403E+02  0.80969708696E+02 0.  0.
         -6    2    1    2    0  502  0.96377744387E+02 -0.57724658990E+02  0.26841284065E+03  0.33797186472E+03  0.17192650304E+03 0.  0.
        -24    2    5    5    0    0  0.12786847215E+03 -0.16623662398E+02  0.21592520733E+03  0.26409358978E+03  0.80591790427E+02 0.  0.
          5    1    3    3  501    0 -0.85714155406E+02  0.61465210314E+02  0.24628180396E+02  0.10841367896E+03  0.47000000000E+01 0. -1.
        -11    1    4    4    0    0 -0.16129912464E+02  0.28633044076E+02 -0.53130329410E+02  0.62472851643E+02  0.00000000000E+00 0.  1.
         12    1    4    4    0    0  0.54663234826E+01 -0.32373595400E+02  0.37374956479E+01  0.33043898760E+02  0.00000000000E+00 0. -1.
         -5    1    5    5    0  502 -0.31490727758E+02 -0.41100996592E+02  0.52487633323E+02  0.73878274936E+02  0.47000000000E+01 0.  1.
         13    1    6    6    0    0  0.10732041469E+03 -0.45355442951E+02  0.17158063981E+03  0.20739986396E+03  0.00000000000E+00 0. -1.
        -14    1    6    6    0    0  0.20548057459E+02  0.28731780553E+02  0.44344567520E+02  0.56693725822E+02  0.00000000000E+00 0.  1.
</event>
<event>
12    1  0.8219652E-002  0.1806593E+03  0.7818608E-02  0.1167208E+00
         21   -1    0    0  501  502  0.00000000000E+00  0.00000000000E+00  0.20935269731E+03  0.20935269731E+03  0.00000000000E+00 0.  1.
         21   -1    0    0  502  503 -0.00000000000E+00 -0.00000000000E+00 -0.20470915169E+03  0.20470915169E+03  0.00000000000E+00 0.  1.
         -6    2    1    2    0  503  0.50365049371E+02 -0.20076060469E+02 -0.98925852091E+02  0.20582065913E+03  0.17215148304E+03 0.  0.
        -24    2    3    3    0    0  0.70378415198E+02  0.25721458591E+02 -0.19012100358E+02  0.11144775370E+03  0.80277189082E+02 0.  0.
          6    2    1    2  501    0 -0.50365049371E+02  0.20076060469E+02  0.10356939772E+03  0.20824118987E+03  0.17233132801E+03 0.  0.
         24    2    5    5    0    0 -0.48197883423E+02 -0.51000138516E+02  0.48827962362E+02  0.11837886509E+03  0.81886114184E+02 0.  0.
          5    1    5    5  501    0 -0.21671659480E+01  0.71076198985E+02  0.54741435354E+02  0.89862324780E+02  0.47000000000E+01 0. -1.
        -13    1    6    6    0    0  0.25613710781E+01 -0.47193110382E+02  0.48153908858E+02  0.67472581303E+02  0.00000000000E+00 0.  1.
         14    1    6    6    0    0 -0.50759254502E+02 -0.38070281344E+01  0.67405350313E+00  0.50906283786E+02  0.00000000000E+00 0. -1.
         -5    1    3    3    0  503 -0.20013365827E+02 -0.45797519060E+02 -0.79913751734E+02  0.94372905433E+02  0.47000000000E+01 0.  1.
         11    1    4    4    0    0  0.12171747546E+02  0.20828506509E+02 -0.42194178063E+02  0.48603773353E+02  0.00000000000E+00 0. -1.
        -12    1    4    4    0    0  0.58206667652E+02  0.48929520819E+01  0.23182077705E+02  0.62843980348E+02  0.00000000000E+00 0.  1.
</event>
<event>
12    1  0.8219652E-002  0.2087338E+03  0.7818608E-02  0.1143738E+00
         21   -1    0    0  501  502  0.00000000000E+00  0.00000000000E+00  0.90355430680E+02  0.90355430680E+02  0.00000000000E+00 0. -1.
         21   -1    0    0  502  503 -0.00000000000E+00 -0.00000000000E+00 -0.46921937771E+03  0.46921937771E+03  0.00000000000E+00 0. -1.
         -6    2    1    2    0  503  0.40182731967E+02 -0.99346951931E+02 -0.19271308538E+03  0.27989293365E+03  0.17238692591E+03 0.  0.
        -24    2    3    3    0    0 -0.18710112070E+02 -0.66199947471E+01 -0.12495943827E+03  0.15074456020E+03  0.81946132268E+02 0.  0.
          6    2    1    2  501    0 -0.40182731967E+02  0.99346951931E+02 -0.18615086165E+03  0.27968187474E+03  0.17912380902E+03 0.  0.
         24    2    5    5    0    0 -0.56967792773E+02  0.89486484208E+02 -0.49663005992E+02  0.14173263831E+03  0.79803297728E+02 0.  0.
          5    1    5    5  501    0  0.16785060806E+02  0.98604677235E+01 -0.13648785566E+03  0.13794923644E+03  0.47000000000E+01 0. -1.
        -13    1    6    6    0    0 -0.56612646392E+02  0.53398293145E+02 -0.66071882337E+02  0.10208752655E+03  0.00000000000E+00 0.  1.
         14    1    6    6    0    0 -0.35514638074E+00  0.36088191063E+02  0.16408876344E+02  0.39645111755E+02  0.00000000000E+00 0. -1.
         -5    1    3    3    0  503  0.58892844038E+02 -0.92726957184E+02 -0.67753647111E+02  0.12914837345E+03  0.47000000000E+01 0.  1.
         13    1    4    4    0    0 -0.16088584418E+02  0.15219143433E+02  0.16790726694E+01  0.22210001361E+02  0.00000000000E+00 0. -1.
        -14    1    4    4    0    0 -0.26215276522E+01 -0.21839138180E+02 -0.12663851094E+03  0.12853455884E+03  0.00000000000E+00 0.  1.
</event>
<event>
12    1  0.8219652E-002  0.3389663E+03  0.7818608E-02  0.1067282E+00
         21   -1    0    0  503  502  0.00000000000E+00  0.00000000000E+00  0.12102267403E+04  0.12102267403E+04  0.00000000000E+00 0. -1.
         21   -1    0    0  501  503 -0.00000000000E+00 -0.00000000000E+00 -0.12624504509E+03  0.12624504509E+03  0.00000000000E+00 0.  1.
          6    2    1    2  501    0 -0.29155002696E+03  0.14624137942E+02  0.20885986895E+03  0.39814648873E+03  0.17228725430E+03 0.  0.
         24    2    3    3    0    0 -0.21158625282E+03 -0.40347621766E+02  0.19254825690E+03  0.29963629520E+03  0.79438058918E+02 0.  0.
         -6    2    1    2    0  502  0.29155002696E+03 -0.14624137942E+02  0.87512182623E+03  0.93832529664E+03  0.17146681293E+03 0.  0.
        -24    2    5    5    0    0  0.16456937899E+03 -0.34827167709E+02  0.67707828690E+03  0.70215675335E+03  0.79328983148E+02 0.  0.
          5    1    3    3  501    0 -0.79963774141E+02  0.54971759708E+02  0.16311612056E+02  0.98510193524E+02  0.47000000000E+01 0. -1.
        -13    1    4    4    0    0 -0.67486686333E+02  0.22194294752E+01  0.19133052050E+02  0.70181567240E+02  0.00000000000E+00 0.  1.
         14    1    4    4    0    0 -0.14409956649E+03 -0.42567051241E+02  0.17341520485E+03  0.22945472796E+03  0.00000000000E+00 0. -1.
         -5    1    5    5    0  502  0.12698064797E+03  0.20203029767E+02  0.19804353933E+03  0.23616854329E+03  0.47000000000E+01 0.  1.
         13    1    6    6    0    0  0.21476344027E+02 -0.27140594802E+02  0.23230056480E+03  0.23486463686E+03  0.00000000000E+00 0. -1.
        -14    1    6    6    0    0  0.14309303497E+03 -0.76865729076E+01  0.44477772210E+03  0.46729211649E+03  0.00000000000E+00 0.  1.
</event>
<event>
12    1  0.8219652E-002  0.3042969E+03  0.7818608E-02  0.1083129E+00
         21   -1    0    0  501  502  0.00000000000E+00  0.00000000000E+00  0.10840383453E+03  0.10840383453E+03  0.00000000000E+00 0. -1.
         21   -1    0    0  502  503 -0.00000000000E+00 -0.00000000000E+00 -0.10485001873E+04  0.10485001873E+04  0.00000000000E+00 0.  1.
         -6    2    1    2    0  503  0.24673421495E+03  0.46369296916E+02 -0.22069701641E+03  0.37579456340E+03  0.17171632509E+03 0.  0.
        -24    2    3    3    0    0  0.25579196642E+03  0.25716683416E+02 -0.16521059344E+03  0.31571622753E+03  0.79317830591E+02 0.  0.
          6    2    1    2  501    0 -0.24673421495E+03 -0.46369296916E+02 -0.71939933632E+03  0.78110945839E+03  0.17195550695E+03 0.  0.
         24    2    5    5    0    0 -0.17440959599E+03 -0.57729549233E+02 -0.64808856820E+03  0.67880001851E+03  0.83661609259E+02 0.  0.
          5    1    5    5  501    0 -0.72324618958E+02  0.11360252317E+02 -0.71310768119E+02  0.10230943989E+03  0.47000000000E+01 0. -1.
        -11    1    6    6    0    0 -0.17871804130E+03 -0.67549450970E+02 -0.60892747017E+03  0.63819725050E+03  0.00000000000E+00 0.  1.
         12    1    6    6    0    0  0.43084453118E+01  0.98199017370E+01 -0.39161098024E+02  0.40602768004E+02  0.00000000000E+00 0. -1.
         -5    1    3    3    0  503 -0.90577514736E+01  0.20652613500E+02 -0.55486422972E+02  0.60078335865E+02  0.47000000000E+01 0.  1.
         11    1    4    4    0    0  0.19049850735E+03 -0.60156122076E+01 -0.14747015216E+03  0.24098405481E+03  0.00000000000E+00 0. -1.
        -12    1    4    4    0    0  0.65293459075E+02  0.31732295624E+02 -0.17740441277E+02  0.74732172725E+02  0.00000000000E+00 0.  1.
</event>
<event>
12    1  0.8219652E-002  0.1935031E+03  0.7818608E-02  0.1155926E+00
         21   -1    0    0  501  502  0.00000000000E+00  0.00000000000E+00  0.44595722343E+03  0.44595722343E+03  0.00000000000E+00 0.  1.
         21   -1    0    0  502  503 -0.00000000000E+00 -0.00000000000E+00 -0.86431849564E+02  0.86431849564E+02  0.00000000000E+00 0. -1.
         -6    2    1    2    0  503  0.32225748593E+02 -0.73889829280E+02  0.12651670837E+03  0.23119237829E+03  0.17591257072E+03 0.  0.
        -24    2    3    3    0    0  0.65200726430E+02 -0.41993155370E+02  0.15809365854E+02  0.11126342991E+03  0.78198816887E+02 0.  0.
          6    2    1    2  501    0 -0.32225748593E+02  0.73889829280E+02  0.23300866549E+03  0.30119669470E+03  0.17299770219E+03 0.  0.
         24    2    5    5    0    0 -0.59815003095E+02  0.16027915076E+01  0.18379048697E+03  0.20937566285E+03  0.80491127203E+02 0.  0.
          5    1    5    5  501    0  0.27589254502E+02  0.72287037772E+02  0.49218178522E+02  0.91821031855E+02  0.47000000000E+01 0. -1.
        -11    1    6    6    0    0 -0.37655567450E+02  0.35612781392E+02  0.60975652200E+02  0.80026508856E+02  0.00000000000E+00 0.  1.
         12    1    6    6    0    0 -0.22159435645E+02 -0.34009989885E+02  0.12281483477E+03  0.12934915399E+03  0.00000000000E+00 0. -1.
         -5    1    3    3    0  503 -0.32974977836E+02 -0.31896673910E+02  0.11070734252E+03  0.11992894837E+03  0.47000000000E+01 0.  1.
         11    1    4    4    0    0  0.81428435509E+02 -0.21945562483E+02  0.12686249880E+02  0.85282699056E+02  0.00000000000E+00 0. -1.
        -12    1    4    4    0    0 -0.16227709079E+02 -0.20047592887E+02  0.31231159732E+01  0.25980730858E+02  0.00000000000E+00 0.  1.
</event>
<event>
12    1  0.8219652E-002  0.1731106E+03  0.7818608E-02  0.1174900E+00
         21   -1    0    0  503  502  0.00000000000E+00  0.00000000000E+00  0.61228235845E+03  0.61228235845E+03  0.00000000000E+00 0. -1.
         21   -1    0    0  501  503 -0.00000000000E+00 -0.00000000000E+00 -0.58903115572E+02  0.58903115572E+02  0.00000000000E+00 0. -1.
          6    2    1    2  501    0  0.11386782411E+02  0.21158740560E+02  0.41731270374E+03  0.45179326732E+03  0.17143486395E+03 0.  0.
         24    2    3    3    0    0 -0.17079704259E+02 -0.53312801983E+02  0.24958081310E+03  0.26601805732E+03  0.73082510919E+02 0.  0.
         -6    2    1    2    0  502 -0.11386782411E+02 -0.21158740560E+02  0.13606653914E+03  0.21939220670E+03  0.17041562772E+03 0.  0.
        -24    2    5    5    0    0  0.43384247636E+02 -0.96805802202E+01  0.24152644099E+02  0.94178693850E+02  0.79437834702E+02 0.  0.
          5    1    3    3  501    0  0.28466486669E+02  0.74471542543E+02  0.16773189064E+03  0.18577521000E+03  0.47000000000E+01 0. -1.
        -13    1    4    4    0    0  0.20224739356E+02 -0.49139790024E+02  0.16826369302E+03  0.17645517684E+03  0.00000000000E+00 0.  1.
         14    1    4    4    0    0 -0.37304443615E+02 -0.41730119592E+01  0.81317120078E+02  0.89562880481E+02  0.00000000000E+00 0. -1.
         -5    1    5    5    0  502 -0.54771030046E+02 -0.11478160340E+02  0.11191389504E+03  0.12521351285E+03  0.47000000000E+01 0.  1.
         11    1    6    6    0    0  0.25806005712E+02  0.24490330870E+02 -0.15637754618E+02  0.38862135896E+02  0.00000000000E+00 0. -1.
        -12    1    6    6    0    0  0.17578241924E+02 -0.34170911090E+02  0.39790398717E+02  0.55316557954E+02  0.00000000000E+00 0.  1.
</event>
<event>
12    1  0.8219652E-002  0.2329025E+03  0.7818608E-02  0.1124708E+00
         21   -1    0    0  503  502  0.00000000000E+00  0.00000000000E+00  0.40817490134E+03  0.40817490134E+03  0.00000000000E+00 0. -1.
         21   -1    0    0  501  503 -0.00000000000E+00 -0.00000000000E+00 -0.13855278946E+03  0.13855278946E+03  0.00000000000E+00 0.  1.
          6    2    1    2  501    0 -0.14670546055E+03  0.56309584253E+02  0.77912990210E+02  0.24507228979E+03  0.17116288075E+03 0.  0.
         24    2    3    3    0    0 -0.21667100653E+02 -0.93398205794E+01  0.53432614473E+02  0.10166442879E+03  0.83210073266E+02 0.  0.
         -6    2    1    2    0  502  0.14670546055E+03 -0.56309584253E+02  0.19170912167E+03  0.30165540101E+03  0.17190210061E+03 0.  0.
        -24    2    5    5    0    0  0.14391619563E+03  0.11250183400E+02  0.14450963247E+03  0.21906009857E+03  0.79157153291E+02 0.  0.
          5    1    3    3  501    0 -0.12503835990E+03  0.65649404833E+02  0.24480375737E+02  0.14340786100E+03  0.47000000000E+01 0. -1.
        -11    1    4    4    0    0 -0.29934081513E+02 -0.18855758119E+02 -0.10181252532E+02  0.36813676173E+02  0.00000000000E+00 0.  1.
         12    1    4    4    0    0  0.82669808604E+01  0.95159375396E+01  0.63613867005E+02  0.64850752618E+02  0.00000000000E+00 0. -1.
         -5    1    5    5    0  502  0.27892649142E+01 -0.67559767653E+02  0.47199489201E+02  0.82595302439E+02  0.47000000000E+01 0.  1.
         11    1    6    6    0    0  0.10062368906E+03 -0.17020126207E+02  0.13016497165E+03  0.16540172714E+03  0.00000000000E+00 0. -1.
        -12    1    6    6    0    0  0.43292506578E+02  0.28270309607E+02  0.14344660823E+02  0.53658371436E+02  0.00000000000E+00 0.  1.
</event>
<event>
12    1  0.8219652E-002  0.2091126E+03  0.7818608E-02  0.1142323E+00
         21   -1    0    0  503  502  0.00000000000E+00  0.00000000000E+00  0.33017068376E+03  0.33017068376E+03  0.00000000000E+00 0. -1.
         21   -1    0    0  501  503 -0.00000000000E+00 -0.00000000000E+00 -0.13525155139E+03  0.13525155139E+03  0.00000000000E+00 0.  1.
          6    2    1    2  501    0  0.14825493499E+01 -0.11995533265E+03  0.62870416546E+02  0.21810677285E+03  0.17095729087E+03 0.  0.
         24    2    3    3    0    0 -0.40314731670E+02 -0.12404760166E+03  0.15522764175E+02  0.15464300719E+03  0.81611386444E+02 0.  0.
         -6    2    1    2    0  502 -0.14825493499E+01  0.11995533265E+03  0.13204871583E+03  0.24731546231E+03  0.17127928876E+03 0.  0.
        -24    2    5    5    0    0  0.23766857485E+02  0.38613483307E+02  0.13138510931E+03  0.16201271104E+03  0.83247864719E+02 0.  0.
          5    1    3    3  501    0  0.41797281020E+02  0.40922690092E+01  0.47347652371E+02  0.63463765657E+02  0.47000000000E+01 0. -1.
        -13    1    4    4    0    0  0.14478712402E+02 -0.19780831351E+02 -0.19976481930E+02  0.31622369172E+02  0.00000000000E+00 0.  1.
         14    1    4    4    0    0 -0.54793444072E+02 -0.10426677031E+03  0.35499246104E+02  0.12302063802E+03  0.00000000000E+00 0. -1.
         -5    1    5    5    0  502 -0.25249406835E+02  0.81341849346E+02  0.66360651325E+00  0.85302751269E+02  0.47000000000E+01 0.  1.
         11    1    6    6    0    0 -0.23704416359E+02 -0.10963873608E+02  0.34190928655E+02  0.43024707805E+02  0.00000000000E+00 0. -1.
        -12    1    6    6    0    0  0.47471273844E+02  0.49577356916E+02  0.97194180658E+02  0.11898800323E+03  0.00000000000E+00 0.  1.
</event>
<event>
12    1  0.8219652E-002  0.2237573E+03  0.7818608E-02  0.1131162E+00
         21   -1    0    0  503  502  0.00000000000E+00  0.00000000000E+00  0.16547507984E+04  0.16547507984E+04  0.00000000000E+00 0. -1.
         21   -1    0    0  501  503 -0.00000000000E+00 -0.00000000000E+00 -0.30892542232E+02  0.30892542232E+02  0.00000000000E+00 0.  1.
          6    2    1    2  501    0  0.12090019579E+03  0.77269699106E+02  0.68712051673E+03  0.72255199344E+03  0.17134560098E+03 0.  0.
         24    2    3    3    0    0  0.12554519667E+03  0.46046515489E+02  0.34240750123E+03  0.37636473735E+03  0.80781437382E+02 0.  0.
         -6    2    1    2    0  502 -0.12090019579E+03 -0.77269699106E+02  0.93673773940E+03  0.96309134715E+03  0.17169707859E+03 0.  0.
        -24    2    5    5    0    0 -0.10724233605E+03 -0.25417515058E+02  0.85184006128E+03  0.86256825591E+03  0.79028712391E+02 0.  0.
          5    1    3    3  501    0 -0.46450008759E+01  0.31223183616E+02  0.34471301550E+03  0.34618725610E+03  0.47000000000E+01 0. -1.
        -11    1    4    4    0    0  0.60419486286E+01  0.30626571705E+02  0.39327775532E+02  0.50211213548E+02  0.00000000000E+00 0.  1.
         12    1    4    4    0    0  0.11950324804E+03  0.15419943784E+02  0.30307972569E+03  0.32615352380E+03  0.00000000000E+00 0. -1.
         -5    1    5    5    0  502 -0.13657859744E+02 -0.51852184048E+02  0.84897678124E+02  0.10052309125E+03  0.47000000000E+01 0.  1.
         13    1    6    6    0    0 -0.17688447245E+02  0.25456949163E+02  0.25891569660E+03  0.26076478937E+03  0.00000000000E+00 0. -1.
        -14    1    6    6    0    0 -0.89553888802E+02 -0.50874464221E+02  0.59292436468E+03  0.60180346654E+03  0.00000000000E+00 0.  1.
</event>
<event>
12    1  0.8219652E-002  0.1880161E+03  0.7818608E-02  0.1160400E+00
         21   -1    0    0  501  502  0.00000000000E+00  0.00000000000E+00  0.40799369483E+03  0.40799369483E+03  0.00000000000E+00 0. -1.
         21   -1    0    0  502  503 -0.00000000000E+00 -0.00000000000E+00 -0.87553054608E+02  0.87553054608E+02  0.00000000000E+00 0. -1.
         -6    2    1    2    0  503 -0.63532231841E+01  0.75208722452E+02  0.13113724693E+03  0.22873999645E+03  0.17154676641E+03 0.  0.
        -24    2    3    3    0    0 -0.11424658322E+02  0.72083239115E+02  0.12198810624E+02  0.10955975592E+03  0.80796119697E+02 0.  0.
          6    2    1    2  501    0  0.63532231841E+01 -0.75208722452E+02  0.18930339329E+03  0.26680675299E+03  0.17220149056E+03 0.  0.
         24    2    5    5    0    0  0.66767114490E+02 -0.35151861612E+02  0.14697454526E+03  0.18273409550E+03  0.78081571121E+02 0.  0.
          5    1    5    5  501    0 -0.60413891305E+02 -0.40056860841E+02  0.42328848027E+02  0.84072657495E+02  0.47000000000E+01 0. -1.
        -11    1    6    6    0    0  0.33935219885E+02  0.20036193282E+02  0.30892011904E+02  0.50073591736E+02  0.00000000000E+00 0.  1.
         12    1    6    6    0    0  0.32831894605E+02 -0.55188054894E+02  0.11608253336E+03  0.13266050376E+03  0.00000000000E+00 0. -1.
         -5    1    3    3    0  503  0.50714351375E+01  0.31254833376E+01  0.11893843631E+03  0.11918024052E+03  0.47000000000E+01 0.  1.
         13    1    4    4    0    0  0.20669407935E+02  0.69123309899E+02  0.22745182672E+02  0.75647866662E+02  0.00000000000E+00 0. -1.
        -14    1    4    4    0    0 -0.32094066256E+02  0.29599292158E+01 -0.10546372048E+02  0.33911889260E+02  0.00000000000E+00 0.  1.
</event>
<event>
12    1  0.8219652E-002  0.2804297E+03  0.7818608E-02  0.1096305E+00
         21   -1    0    0  501  502  0.00000000000E+00  0.00000000000E+00  0.51807289694E+03  0.51807289694E+03  0.00000000000E+00 0.  1.
         21   -1    0    0  502  503 -0.00000000000E+00 -0.00000000000E+00 -0.15299688670E+03  0.15299688670E+03  0.00000000000E+00 0.  1.
         -6    2    1    2    0  503 -0.83203860772E+02  0.19640623781E+03  0.12682534233E+03  0.30777507741E+03  0.18205092178E+03 0.  0.
        -24    2    3    3    0    0 -0.95502316358E+02  0.82631943160E+02  0.12190941157E+03  0.19313608531E+03  0.80566198625E+02 0.  0.
          6    2    1    2  501    0  0.83203860772E+02 -0.19640623781E+03  0.23825066792E+03  0.36329470623E+03  0.17239886923E+03 0.  0.
         24    2    5    5    0    0  0.10358217562E+03 -0.95925074044E+02  0.19048027007E+03  0.25008763534E+03  0.79562586244E+02 0.  0.
          5    1    5    5  501    0 -0.20378314845E+02 -0.10048116377E+03  0.47770397854E+02  0.11320707089E+03  0.47000000000E+01 0. -1.
        -11    1    6    6    0    0  0.75243177952E+02 -0.77619169485E+02  0.79763159339E+02  0.13434445611E+03  0.00000000000E+00 0.  1.
         12    1    6    6    0    0  0.28338997664E+02 -0.18305904559E+02  0.11071711073E+03  0.11574317923E+03  0.00000000000E+00 0. -1.
         -5    1    3    3    0  503  0.12298455586E+02  0.11377429465E+03  0.49159307544E+01  0.11463899210E+03  0.47000000000E+01 0.  1.
         13    1    4    4    0    0 -0.80872041394E+02  0.80801984621E+02  0.13248584870E+03  0.17499070805E+03  0.00000000000E+00 0. -1.
        -14    1    4    4    0    0 -0.14630274964E+02  0.18299585392E+01 -0.10576437128E+02  0.18145377265E+02  0.00000000000E+00 0.  1.
</event>
<event>
12    1  0.8219652E-002  0.1919015E+03  0.7818608E-02  0.1156845E+00
         21   -1    0    0  503  502  0.00000000000E+00  0.00000000000E+00  0.93856786128E+03  0.93856786128E+03  0.00000000000E+00 0. -1.
         21   -1    0    0  501  503 -0.00000000000E+00 -0.00000000000E+00 -0.13625515996E+03  0.13625515996E+03  0.00000000000E+00 0. -1.
          6    2    1    2  501    0  0.25165245735E+02 -0.74929659162E+02 -0.52628729907E+02  0.19860898489E+03  0.17443624122E+03 0.  0.
         24    2    3    3    0    0  0.92509355959E+01 -0.28282326949E+02 -0.98743366368E+02  0.13094888907E+03  0.80696278232E+02 0.  0.
         -6    2    1    2    0  502 -0.25165245735E+02  0.74929659162E+02  0.85494143123E+03  0.87621403635E+03  0.17486693010E+03 0.  0.
        -24    2    5    5    0    0 -0.32736119639E+02  0.11639943374E+03  0.55040562519E+03  0.56873849668E+03  0.76789606424E+02 0.  0.
          5    1    3    3  501    0  0.15914310140E+02 -0.46647332213E+02  0.46114636461E+02  0.67660095815E+02  0.47000000000E+01 0. -1.
        -11    1    4    4    0    0  0.12716428526E+02  0.22156342097E+02 -0.74824798023E+01  0.26619514526E+02  0.00000000000E+00 0.  1.
         12    1    4    4    0    0 -0.34654929305E+01 -0.50438669047E+02 -0.91260886566E+02  0.10432937455E+03  0.00000000000E+00 0. -1.
         -5    1    5    5    0  502  0.75708739038E+01 -0.41469774581E+02  0.30453580604E+03  0.30747553967E+03  0.47000000000E+01 0.  1.
         13    1    6    6    0    0  0.12419963199E+02  0.36932729826E+02  0.73871622048E+02  0.83518252869E+02  0.00000000000E+00 0. -1.
        -14    1    6    6    0    0 -0.45156082839E+02  0.79466703918E+02  0.47653400315E+03  0.48522024381E+03  0.00000000000E+00 0.  1.
</event>
<event>
12    1  0.8219652E-002  0.2355678E+03  0.7818608E-02  0.1123016E+00
         21   -1    0    0  501  502  0.00000000000E+00  0.00000000000E+00  0.23644355284E+03  0.23644355284E+03  0.00000000000E+00 0. -1.
         21   -1    0    0  502  503 -0.00000000000E+00 -0.00000000000E+00 -0.34408536885E+03  0.34408536885E+03  0.00000000000E+00 0. -1.
         -6    2    1    2    0  503 -0.10885250714E+03 -0.11662687919E+03  0.11096467995E+03  0.25915531144E+03  0.17145733577E+03 0.  0.
        -24    2    3    3    0    0 -0.95607309459E+02 -0.38338967845E+02  0.12136637847E+03  0.17893861956E+03  0.81722687600E+02 0.  0.
          6    2    1    2  501    0  0.10885250714E+03  0.11662687919E+03 -0.21860649596E+03  0.32137361025E+03  0.17332483963E+03 0.  0.
         24    2    5    5    0    0  0.14030540791E+03  0.68065458509E+02 -0.18270671224E+03  0.25312127683E+03  0.79813056319E+02 0.  0.
          5    1    5    5  501    0 -0.31452900773E+02  0.48561420682E+02 -0.35899783722E+02  0.68252333418E+02  0.47000000000E+01 0. -1.
        -13    1    6    6    0    0  0.64583874369E+01 -0.31436228119E+01 -0.53332044412E+02  0.53813567935E+02  0.00000000000E+00 0.  1.
         14    1    6    6    0    0  0.13384702047E+03  0.71209081321E+02 -0.12937466782E+03  0.19930770890E+03  0.00000000000E+00 0. -1.
         -5    1    3    3    0  503 -0.13245197677E+02 -0.78287911346E+02 -0.10401698519E+02  0.80216691882E+02  0.47000000000E+01 0.  1.
         11    1    4    4    0    0  0.32824666902E+00 -0.28504950174E+02  0.54756977495E+02  0.61733026127E+02  0.00000000000E+00 0. -1.
        -12    1    4    4    0    0 -0.95935556128E+02 -0.98340176706E+01  0.66609400974E+02  0.11720559343E+03  0.00000000000E+00 0.  1.
</event>
<event>
12    1  0.8219652E-002  0.1877333E+03  0.7818608E-02  0.1160713E+00
         21   -1    0    0  503  502  0.00000000000E+00  0.00000000000E+00  0.47234589280E+02  0.47234589280E+02  0.00000000000E+00 0.  1.
         21   -1    0    0  501  503 -0.00000000000E+00 -0.00000000000E+00 -0.15713772405E+04  0.15713772405E+04  0.00000000000E+00 0.  1.
          6    2    1    2  501    0  0.71934104358E+02  0.15499564089E+02 -0.13489345616E+04  0.13618207174E+04  0.17180355913E+03 0.  0.
         24    2    3    3    0    0  0.95603427532E+02  0.35309554215E+02 -0.68935810661E+03  0.70150574514E+03  0.80677948351E+02 0.  0.
         -6    2    1    2    0  502 -0.71934104358E+02 -0.15499564089E+02 -0.17520808956E+03  0.25679111235E+03  0.17271088233E+03 0.  0.
        -24    2    5    5    0    0 -0.71283602954E+02  0.51580148122E+02 -0.12431974121E+03  0.17245947570E+03  0.80901229732E+02 0.  0.
          5    1    3    3  501    0 -0.23669323174E+02 -0.19809990125E+02 -0.65957645503E+03  0.66031497227E+03  0.47000000000E+01 0. -1.
        -13    1    4    4    0    0 -0.12435543368E+02  0.83435750628E+01 -0.15171549822E+03  0.15245278083E+03  0.00000000000E+00 0.  1.
         14    1    4    4    0    0  0.10803897090E+03  0.26965979152E+02 -0.53764260839E+03  0.54905296431E+03  0.00000000000E+00 0. -1.
         -5    1    5    5    0  502 -0.65050140401E+00 -0.67079712211E+02 -0.50888348343E+02  0.84331636647E+02  0.47000000000E+01 0.  1.
         11    1    6    6    0    0  0.15675040113E+02  0.19892780534E+02 -0.39484646152E+02  0.46909134309E+02  0.00000000000E+00 0. -1.
        -12    1    6    6    0    0 -0.86958643067E+02  0.31687367589E+02 -0.84835095062E+02  0.12555034139E+03  0.00000000000E+00 0.  1.
</event>
<event>
12    1  0.8219652E-002  0.1892773E+03  0.7818608E-02  0.1160851E+00
         21   -1    0    0  501  502  0.00000000000E+00  0.00000000000E+00  0.25038504122E+04  0.25038504122E+04  0.00000000000E+00 0. -1.
         21   -1    0    0  502  503 -0.00000000000E+00 -0.00000000000E+00 -0.13749970462E+02  0.13749970462E+02  0.00000000000E+00 0. -1.
         -6    2    1    2    0  503 -0.35492406805E+02 -0.66793598520E+02  0.12024044259E+04  0.12160678564E+04  0.16529831274E+03 0.  0.
        -24    2    3    3    0    0 -0.67737877117E+02 -0.84615511473E+02  0.10764723421E+04  0.10847728807E+04  0.78684778837E+02 0.  0.
          6    2    1    2  501    0  0.35492406805E+02  0.66793598520E+02  0.12876960158E+04  0.13015325262E+04  0.17350732542E+03 0.  0.
         24    2    5    5    0    0  0.50371470118E+02 -0.41155645884E+01  0.41862483017E+03  0.42943372929E+03  0.81316397716E+02 0.  0.
          5    1    5    5  501    0 -0.14879063313E+02  0.70909163108E+02  0.86907118562E+03  0.87209879694E+03  0.47000000000E+01 0. -1.
        -11    1    6    6    0    0  0.81942165594E+01 -0.13882089081E+02  0.33389690965E+03  0.33428581163E+03  0.00000000000E+00 0.  1.
         12    1    6    6    0    0  0.42177253559E+02  0.97665244928E+01  0.84727920521E+02  0.95147917656E+02  0.00000000000E+00 0. -1.
         -5    1    3    3    0  503  0.32245470311E+02  0.17821912953E+02  0.12593208379E+03  0.13129497578E+03  0.47000000000E+01 0.  1.
         11    1    4    4    0    0 -0.54557580486E+02 -0.52102103017E+02  0.37991776807E+03  0.38733534466E+03  0.00000000000E+00 0. -1.
        -12    1    4    4    0    0 -0.13180296630E+02 -0.32513408456E+02  0.69655457407E+03  0.69743753599E+03  0.00000000000E+00 0.  1.
</event>
<event>
12    1  0.8219652E-002  0.1789040E+03  0.7818608E-02  0.1169129E+00
         21   -1    0    0  501  502  0.00000000000E+00  0.00000000000E+00  0.80834900759E+03  0.80834900759E+03  0.00000000000E+00 0. -1.
         21   -1    0    0  502  503 -0.00000000000E+00 -0.00000000000E+00 -0.94866252312E+02  0.94866252312E+02  0.00000000000E+00 0. -1.
         -6    2    1    2    0  503 -0.35835957864E+02  0.26468236301E+02  0.10853842480E+02  0.17816766160E+03  0.17216598484E+03 0.  0.
        -24    2    3    3    0    0 -0.86790509294E+02  0.37473653480E+02  0.18687708488E+02  0.12524370696E+03  0.79999302966E+02 0.  0.
          6    2    1    2  501    0  0.35835957864E+02 -0.26468236301E+02  0.70262891280E+03  0.72504759830E+03  0.17326813698E+03 0.  0.
         24    2    5    5    0    0  0.73374549095E+00  0.93570440204E+01  0.16532994323E+03  0.18539225577E+03  0.83355897905E+02 0.  0.
          5    1    5    5  501    0  0.35102212373E+02 -0.35825280321E+02  0.53729896957E+03  0.53965534253E+03  0.47000000000E+01 0. -1.
        -13    1    6    6    0    0 -0.30074531370E+02 -0.13955848339E+02  0.12588803255E+03  0.13018079690E+03  0.00000000000E+00 0.  1.
         14    1    6    6    0    0  0.30808276861E+02  0.23312892359E+02  0.39441910679E+02  0.55211458876E+02  0.00000000000E+00 0. -1.
         -5    1    3    3    0  503  0.50954551430E+02 -0.11005417179E+02 -0.78338660073E+01  0.52923954646E+02  0.47000000000E+01 0.  1.
         13    1    4    4    0    0 -0.62901740327E+02 -0.13808532680E+02 -0.34532742763E+01  0.64492089547E+02  0.00000000000E+00 0. -1.
        -14    1    4    4    0    0 -0.23888768967E+02  0.51282186160E+02  0.22140982764E+02  0.60751617409E+02  0.00000000000E+00 0.  1.
</event>
<event>
12    1  0.8219652E-002  0.1792667E+03  0.7818608E-02  0.1170165E+00
         21   -1    0    0  503  502  0.00000000000E+00  0.00000000000E+00  0.51815805057E+03  0.51815805057E+03  0.00000000000E+00 0.  1.
         21   -1    0    0  501  503 -0.00000000000E+00 -0.00000000000E+00 -0.81620538716E+03  0.81620538716E+03  0.00000000000E+00 0.  1.
          6    2    1    2  501    0  0.18217143053E+02 -0.46458716775E+02 -0.79110982256E+03  0.80972338807E+03  0.16524810793E+03 0.  0.
         24    2    3    3    0    0  0.23893598891E+02 -0.82246366832E+02 -0.71988669240E+03  0.72967463845E+03  0.82781997835E+02 0.  0.
         -6    2    1    2    0  502 -0.18217143053E+02  0.46458716775E+02  0.49306248596E+03  0.52464004965E+03  0.17218098029E+03 0.  0.
        -24    2    5    5    0    0 -0.55986933251E+01  0.19227951630E+02  0.80979115147E+02  0.11143848341E+03  0.73890858730E+02 0.  0.
          5    1    3    3  501    0 -0.56764558382E+01  0.35787650057E+02 -0.71223130156E+02  0.80048749627E+02  0.47000000000E+01 0. -1.
        -11    1    4    4    0    0 -0.15394082196E+02 -0.62435533721E+02 -0.26609714168E+03  0.27375694046E+03  0.00000000000E+00 0.  1.
         12    1    4    4    0    0  0.39287681086E+02 -0.19810833110E+02 -0.45378955072E+03  0.45591769799E+03  0.00000000000E+00 0. -1.
         -5    1    5    5    0  502 -0.12618449727E+02  0.27230765145E+02  0.41208337082E+03  0.41320156625E+03  0.47000000000E+01 0.  1.
         13    1    6    6    0    0 -0.12801979189E+02 -0.23840188313E+02  0.53195380931E+02  0.59682441324E+02  0.00000000000E+00 0. -1.
        -14    1    6    6    0    0  0.72032858637E+01  0.43068139943E+02  0.27783734216E+02  0.51756042086E+02  0.00000000000E+00 0.  1.
</event>
<event>
12    1  0.8219652E-002  0.1854545E+03  0.7818608E-02  0.1163554E+00
         21   -1    0    0  503  502  0.00000000000E+00  0.00000000000E+00  0.60072236831E+02  0.60072236831E+02  0.00000000000E+00 0.  1.
         21   -1    0    0  501  503 -0.00000000000E+00 -0.00000000000E+00 -0.70160877752E+03  0.70160877752E+03  0.00000000000E+00 0.  1.
          6    2    1    2  501    0 -0.24918548061E+01  0.65632849871E+02 -0.49434871430E+03  0.52799053716E+03  0.17343435551E+03 0.  0.
         24    2    3    3    0    0 -0.60185617084E+02  0.77032050430E+02 -0.26834118156E+03  0.29440970139E+03  0.71511098834E+02 0.  0.
         -6    2    1    2    0  502  0.24918548061E+01 -0.65632849871E+02 -0.14718782639E+03  0.23369047720E+03  0.16921318676E+03 0.  0.
        -24    2    5    5    0    0  0.29275910445E+02  0.23130090889E+02 -0.75208559594E+02  0.11621984199E+03  0.80365690428E+02 0.  0.
          5    1    3    3  501    0  0.57693762277E+02 -0.11399200559E+02 -0.22600753274E+03  0.23358083576E+03  0.47000000000E+01 0. -1.
        -11    1    4    4    0    0 -0.46754163835E+02  0.71655807347E+02 -0.26641223301E+03  0.27981419631E+03  0.00000000000E+00 0.  1.
         12    1    4    4    0    0 -0.13431453248E+02  0.53762430834E+01 -0.19289485535E+01  0.14595505081E+02  0.00000000000E+00 0. -1.
         -5    1    5    5    0  502 -0.26784055639E+02 -0.88762940761E+02 -0.71979266797E+02  0.11747063521E+03  0.47000000000E+01 0.  1.
         13    1    6    6    0    0  0.31273593313E+02  0.28729644637E+02 -0.17309184781E+01  0.42502072873E+02  0.00000000000E+00 0. -1.
        -14    1    6    6    0    0 -0.19976828678E+01 -0.55995537479E+01 -0.73477641116E+02  0.73717769113E+02  0.00000000000E+00 0.  1.
</event>
<event>
12    1  0.8219652E-002  0.2058285E+03  0.7818608E-02  0.1145340E+00
         21   -1    0    0  501  502  0.00000000000E+00  0.00000000000E+00  0.30018807930E+03  0.30018807930E+03  0.00000000000E+00 0.  1.
         21   -1    0    0  502  503 -0.00000000000E+00 -0.00000000000E+00 -0.74604420567E+03  0.74604420567E+03  0.00000000000E+00 0.  1.
         -6    2    1    2    0  503 -0.97049711616E+02 -0.54896832783E+02 -0.69474160383E+03  0.72459042146E+03  0.17301177419E+03 0.  0.
        -24    2    3    3    0    0 -0.15990731625E+02 -0.28395377220E+02 -0.54659695525E+03  0.55358804637E+03  0.81421696435E+02 0.  0.
          6    2    1    2  501    0  0.97049711616E+02  0.54896832783E+02  0.24888547746E+03  0.32164186351E+03  0.17052037619E+03 0.  0.
         24    2    5    5    0    0  0.91084892739E+02  0.81134837552E+02  0.97711343523E+02  0.16801985750E+03  0.61675329837E+02 0.  0.
          5    1    5    5  501    0  0.59648188772E+01 -0.26238004769E+02  0.15117413394E+03  0.15362200601E+03  0.47000000000E+01 0. -1.
        -13    1    6    6    0    0  0.79420107169E+02  0.36819976296E+02  0.80934119444E+02  0.11922078580E+03  0.00000000000E+00 0.  1.
         14    1    6    6    0    0  0.11664785570E+02  0.44314861255E+02  0.16777224080E+02  0.48799071695E+02  0.00000000000E+00 0. -1.
         -5    1    3    3    0  503 -0.81058979991E+02 -0.26501455563E+02 -0.14814464858E+03  0.17100237509E+03  0.47000000000E+01 0.  1.
         13    1    4    4    0    0 -0.12172826685E+02  0.17483397429E+02 -0.43990104152E+02  0.48877153748E+02  0.00000000000E+00 0. -1.
        -14    1    4    4    0    0 -0.38179049400E+01 -0.45878774649E+02 -0.50260685110E+03  0.50471089262E+03  0.00000000000E+00 0.  1.
</event>
<event>
12    1  0.8219652E-002  0.1771200E+03  0.7818608E-02  0.1170822E+00
         21   -1    0    0  503  502  0.00000000000E+00  0.00000000000E+00  0.42693126994E+03  0.42693126994E+03  0.00000000000E+00 0. -1.
         21   -1    0    0  501  503 -0.00000000000E+00 -0.00000000000E+00 -0.14098267559E+03  0.14098267559E+03  0.00000000000E+00 0. -1.
          6    2    1    2  501    0 -0.60275628199E+01  0.38323652217E+02 -0.53829596540E+02  0.18511924666E+03  0.17281920087E+03 0.  0.
         24    2    3    3    0    0 -0.28187546089E+02  0.49084358906E+02  0.27185853908E+02  0.10031092821E+03  0.78226591531E+02 0.  0.
         -6    2    1    2    0  502  0.60275628199E+01 -0.38323652217E+02  0.33977819090E+03  0.38279469887E+03  0.17198118688E+03 0.  0.
        -24    2    5    5    0    0  0.11549582481E+02 -0.86885575891E+02  0.28777973689E+03  0.31127769144E+03  0.79963292027E+02 0.  0.
          5    1    3    3  501    0  0.22159983269E+02 -0.10760706689E+02 -0.81015450448E+02  0.84808318449E+02  0.47000000000E+01 0. -1.
        -11    1    4    4    0    0  0.24895903335E+02  0.15788435061E+01  0.10974237521E+02  0.27253121635E+02  0.00000000000E+00 0.  1.
         12    1    4    4    0    0 -0.53083449424E+02  0.47505515400E+02  0.16211616387E+02  0.73057806579E+02  0.00000000000E+00 0. -1.
         -5    1    5    5    0  502 -0.55220196610E+01  0.48561923674E+02  0.51998454011E+02  0.71517007429E+02  0.47000000000E+01 0.  1.
         13    1    6    6    0    0 -0.11019673135E+02 -0.57646756873E+02  0.74589362565E+02  0.94911299548E+02  0.00000000000E+00 0. -1.
        -14    1    6    6    0    0  0.22569255616E+02 -0.29238819018E+02  0.21319037432E+03  0.21636639189E+03  0.00000000000E+00 0.  1.
</event>
<event>
12    1  0.8219652E-002  0.1786243E+03  0.7818608E-02  0.1169170E+00
         21   -1    0    0  501  502  0.00000000000E+00  0.00000000000E+00  0.55751126615E+03  0.55751126615E+03  0.00000000000E+00 0.  1.
         21   -1    0    0  502  503 -0.00000000000E+00 -0.00000000000E+00 -0.13597822097E+03  0.13597822097E+03  0.00000000000E+00 0.  1.
         -6    2    1    2    0  503 -0.47439191342E+02  0.27856951212E+01 -0.53140004209E+02  0.18636116336E+03  0.17218706743E+03 0.  0.
        -24    2    3    3    0    0  0.45081507098E+02  0.43173777853E+01 -0.12388619991E+02  0.85142632412E+02  0.71026811244E+02 0.  0.
          6    2    1    2  501    0  0.47439191342E+02 -0.27856951212E+01  0.47467304939E+03  0.50712832377E+03  0.17206509228E+03 0.  0.
         24    2    5    5    0    0  0.50986974781E+02 -0.38635837809E+02  0.45416346295E+03  0.46540839287E+03  0.79045060044E+02 0.  0.
          5    1    5    5  501    0 -0.35477834393E+01  0.35850142688E+02  0.20509586438E+02  0.41719930895E+02  0.47000000000E+01 0. -1.
        -13    1    6    6    0    0  0.28073677142E+02 -0.62379330994E+02  0.28957373076E+03  0.29754370743E+03  0.00000000000E+00 0.  1.
         14    1    6    6    0    0  0.22913297639E+02  0.23743493185E+02  0.16458973219E+03  0.16786468544E+03  0.00000000000E+00 0. -1.
         -5    1    3    3    0  503 -0.92520698440E+02 -0.15316826641E+01 -0.40751384219E+02  0.10121853095E+03  0.47000000000E+01 0.  1.
         11    1    4    4    0    0  0.20985873867E+02  0.24249308795E+02  0.21824925022E+02  0.38791277772E+02  0.00000000000E+00 0. -1.
        -12    1    4    4    0    0  0.24095633231E+02 -0.19931931010E+02 -0.34213545012E+02  0.46351354639E+02  0.00000000000E+00 0.  1.
</event>
<event>
12    1  0.8219652E-002  0.1937968E+03  0.7818608E-02  0.1156998E+00
         21   -1    0    0  503  502  0.00000000000E+00  0.00000000000E+00  0.15845515431E+03  0.15845515431E+03  0.00000000000E+00 0. -1.
         21   -1    0    0  501  503 -0.00000000000E+00 -0.00000000000E+00 -0.24634764089E+03  0.24634764089E+03  0.00000000000E+00 0.  1.
          6    2    1    2  501    0  0.12308429382E+02  0.87832674908E+02 -0.10015594360E+03  0.21061837185E+03  0.16267393554E+03 0.  0.
         24    2    3    3    0    0 -0.23667307455E+02  0.46324381725E+01 -0.73447558605E+02  0.11600356929E+03  0.86490943440E+02 0.  0.
         -6    2    1    2    0  502 -0.12308429382E+02 -0.87832674908E+02  0.12263457018E+02  0.19418442335E+03  0.17231111885E+03 0.  0.
        -24    2    5    5    0    0 -0.57413567510E+02 -0.70661399581E+02  0.52071489451E+02  0.13144611267E+03  0.79229346812E+02 0.  0.
          5    1    3    3  501    0  0.35975736837E+02  0.83200236735E+02 -0.26708384994E+02  0.94614802556E+02  0.47000000000E+01 0. -1.
        -13    1    4    4    0    0 -0.10947995449E+02 -0.19359920336E+02 -0.83981469187E+02  0.86876649835E+02  0.00000000000E+00 0.  1.
         14    1    4    4    0    0 -0.12719312006E+02  0.23992358509E+02  0.10533910582E+02  0.29126919454E+02  0.00000000000E+00 0. -1.
         -5    1    5    5    0  502  0.45105138128E+02 -0.17171275327E+02 -0.39808032434E+02  0.62738310689E+02  0.47000000000E+01 0.  1.
         11    1    6    6    0    0 -0.37164085536E+02 -0.76120013679E+02  0.65031993524E+02  0.10679225589E+03  0.00000000000E+00 0. -1.
        -12    1    6    6    0    0 -0.20249481975E+02  0.54586140983E+01 -0.12960504073E+02  0.24653856776E+02  0.00000000000E+00 0.  1.
</event>
<event>
12    1  0.8219652E-002  0.2203859E+03  0.7818608E-02  0.1133847E+00
         21   -1    0    0  501  502  0.00000000000E+00  0.00000000000E+00  0.75957634964E+02  0.75957634964E+02  0.00000000000E+00 0. -1.
         21   -1    0    0  502  503 -0.00000000000E+00 -0.00000000000E+00 -0.63554943624E+03  0.63554943624E+03  0.00000000000E+00 0.  1.
         -6    2    1    2    0  503  0.87969970676E+02 -0.10365790233E+03 -0.28092092250E+03  0.35622211530E+03  0.17173803967E+03 0.  0.
        -24    2    3    3    0    0  0.61904790238E+02 -0.46560478602E+01 -0.72004616433E+02  0.12352300966E+03  0.78863092080E+02 0.  0.
          6    2    1    2  501    0 -0.87969970676E+02  0.10365790233E+03 -0.27867087877E+03  0.35528495590E+03  0.17345392691E+03 0.  0.
         24    2    5    5    0    0 -0.44032874682E+02  0.71323768006E+02 -0.28294687874E+03  0.30036375032E+03  0.55977427448E+02 0.  0.
          5    1    5    5  501    0 -0.43937095994E+02  0.32334134325E+02  0.42759999712E+01  0.54921205583E+02  0.47000000000E+01 0. -1.
        -11    1    6    6    0    0  0.53695758806E+01  0.32760376885E+02 -0.57781421875E+02  0.66639082772E+02  0.00000000000E+00 0.  1.
         12    1    6    6    0    0 -0.49402450563E+02  0.38563391121E+02 -0.22516545686E+03  0.23372466755E+03  0.00000000000E+00 0. -1.
         -5    1    3    3    0  503  0.26065180438E+02 -0.99001854471E+02 -0.20891630607E+03  0.23269910563E+03  0.47000000000E+01 0.  1.
         11    1    4    4    0    0  0.40363511667E+02 -0.20522577227E+02 -0.83039237499E+02  0.94582790267E+02  0.00000000000E+00 0. -1.
        -12    1    4    4    0    0  0.21541278571E+02  0.15866529367E+02  0.11034621067E+02  0.28940219396E+02  0.00000000000E+00 0.  1.
</event>
<event>
12    1  0.8219652E-002  0.1976314E+03  0.7818608E-02  0.1151821E+00
         21   -1    0    0  503  502  0.00000000000E+00  0.00000000000E+00  0.23260241264E+03  0.23260241264E+03  0.00000000000E+00 0.  1.
         21   -1    0    0  501  503 -0.00000000000E+00 -0.00000000000E+00 -0.17247171381E+03  0.17247171381E+03  0.00000000000E+00 0. -1.
          6    2    1    2  501    0  0.72303773535E+02  0.66661091019E+02 -0.38319792269E+01  0.19734981400E+03  0.17105767535E+03 0.  0.
         24    2    3    3    0    0  0.60719072146E+02  0.34818521129E+02  0.60556835014E+02  0.12443778507E+03  0.83177502663E+02 0.  0.
         -6    2    1    2    0  502 -0.72303773535E+02 -0.66661091019E+02  0.63962678055E+02  0.20772431246E+03  0.17142528717E+03 0.  0.
        -24    2    5    5    0    0  0.27597112757E+02 -0.31816498008E+02  0.43069119771E+02  0.99775419359E+02  0.79538010111E+02 0.  0.
          5    1    3    3  501    0  0.11584701388E+02  0.31842569890E+02 -0.64388814241E+02  0.72912028931E+02  0.47000000000E+01 0. -1.
        -13    1    4    4    0    0  0.93606097809E+01 -0.21144473783E+02  0.39238633413E+02  0.45545363531E+02  0.00000000000E+00 0.  1.
         14    1    4    4    0    0  0.51358462365E+02  0.55962994912E+02  0.21318201601E+02  0.78892421535E+02  0.00000000000E+00 0. -1.
         -5    1    5    5    0  502 -0.99900886292E+02 -0.34844593012E+02  0.20893558284E+02  0.10794889310E+03  0.47000000000E+01 0.  1.
         11    1    6    6    0    0  0.30848251082E+02  0.99554312529E+01  0.47647024928E+02  0.57627807443E+02  0.00000000000E+00 0. -1.
        -12    1    6    6    0    0 -0.32511383249E+01 -0.41771929261E+02 -0.45779051566E+01  0.42147611916E+02  0.00000000000E+00 0.  1.
</event>
<event>
12    1  0.8219652E-002  0.2155603E+03  0.7818608E-02  0.1137611E+00
         21   -1    0    0  503  502  0.00000000000E+00  0.00000000000E+00  0.81611288531E+02  0.81611288531E+02  0.00000000000E+00 0. -1.
         21   -1    0    0  501  503 -0.00000000000E+00 -0.00000000000E+00 -0.22174366104E+04  0.22174366104E+04  0.00000000000E+00 0. -1.
          6    2    1    2  501    0  0.10808496606E+03  0.65312586149E+02 -0.20592352696E+04  0.20702854494E+04  0.17229002564E+03 0.  0.
         24    2    3    3    0    0  0.56017801256E+01 -0.81165510530E+01 -0.10465537504E+04  0.10497754833E+04  0.81587711464E+02 0.  0.
         -6    2    1    2    0  502 -0.10808496606E+03 -0.65312586149E+02 -0.76590052359E+02  0.22876244955E+03  0.17469438573E+03 0.  0.
        -24    2    5    5    0    0 -0.13044833878E+03 -0.85078785641E+02 -0.86864710920E+02  0.19684878962E+03  0.83359457256E+02 0.  0.
          5    1    3    3  501    0  0.10248318594E+03  0.73429137202E+02 -0.10126815192E+04  0.10205099661E+04  0.47000000000E+01 0. -1.
        -13    1    4    4    0    0 -0.10593327179E+02 -0.12743085314E+02 -0.43032751620E+02  0.46113149058E+02  0.00000000000E+00 0.  1.
         14    1    4    4    0    0  0.16195107305E+02  0.46265342612E+01 -0.10035209988E+04  0.10036623343E+04  0.00000000000E+00 0. -1.
         -5    1    5    5    0  502  0.22363372717E+02  0.19766199492E+02  0.10274658561E+02  0.31913659930E+02  0.47000000000E+01 0.  1.
         11    1    6    6    0    0 -0.44171478113E+02  0.10914288678E+02 -0.36392836972E+02  0.58263880397E+02  0.00000000000E+00 0. -1.
        -12    1    6    6    0    0 -0.86276860668E+02 -0.95993074319E+02 -0.50471873948E+02  0.13858490922E+03  0.00000000000E+00 0.  1.
</event>
<event>
12    1  0.8219652E-002  0.1922270E+03  0.7818608E-02  0.1159410E+00
         21   -1    0    0  503  502  0.00000000000E+00  0.00000000000E+00  0.97841652256E+02  0.97841652256E+02  0.00000000000E+00 0. -1.
         21   -1    0    0  501  503 -0.00000000000E+00 -0.00000000000E+00 -0.46339860168E+03  0.46339860168E+03  0.00000000000E+00 0. -1.
          6    2    1    2  501    0 -0.32035834416E+02 -0.79240463082E+02 -0.31490650238E+03  0.36245219507E+03  0.15779779084E+03 0.  0.
         24    2    3    3    0    0  0.36861406790E+02 -0.57579509442E+02 -0.20608235179E+03  0.23175861256E+03  0.81042924171E+02 0.  0.
         -6    2    1    2    0  502  0.32035834416E+02  0.79240463082E+02 -0.50650447049E+02  0.19878805887E+03  0.17217978652E+03 0.  0.
        -24    2    5    5    0    0 -0.42101654563E+02  0.10490495687E+02 -0.27821045807E+02  0.95027773355E+02  0.79835251001E+02 0.  0.
          5    1    3    3  501    0 -0.68897241206E+02 -0.21660953640E+02 -0.10882415059E+03  0.13069358251E+03  0.47000000000E+01 0. -1.
        -13    1    4    4    0    0  0.45151617446E+01  0.17317771610E+02 -0.77026252618E+02  0.79078034191E+02  0.00000000000E+00 0.  1.
         14    1    4    4    0    0  0.32346245045E+02 -0.74897281053E+02 -0.12905609917E+03  0.15268057837E+03  0.00000000000E+00 0. -1.
         -5    1    5    5    0  502  0.74137488978E+02  0.68749967395E+02 -0.22829401242E+02  0.10376028551E+03  0.47000000000E+01 0.  1.
         13    1    6    6    0    0 -0.71242244003E+01  0.42664535096E+02 -0.11215639184E+02  0.44685654192E+02  0.00000000000E+00 0. -1.
        -14    1    6    6    0    0 -0.34977430162E+02 -0.32174039409E+02 -0.16605406623E+02  0.50342119163E+02  0.00000000000E+00 0.  1.
</event>
<event>
12    1  0.8219652E-002  0.2590944E+03  0.7818608E-02  0.1108780E+00
         21   -1    0    0  503  502  0.00000000000E+00  0.00000000000E+00  0.30680823228E+03  0.30680823228E+03  0.00000000000E+00 0.  1.
         21   -1    0    0  501  503 -0.00000000000E+00 -0.00000000000E+00 -0.33927176825E+03  0.33927176825E+03  0.00000000000E+00 0. -1.
          6    2    1    2  501    0 -0.59314703414E+02  0.17569917324E+03 -0.21329374044E+03  0.33012194267E+03  0.17058090106E+03 0.  0.
         24    2    3    3    0    0 -0.27721219530E+02  0.15114979324E+03 -0.80766782755E+02  0.19160730520E+03  0.81088594747E+02 0.  0.
         -6    2    1    2    0  502  0.59314703414E+02 -0.17569917324E+03  0.18083020448E+03  0.31595805785E+03  0.18094611893E+03 0.  0.
        -24    2    5    5    0    0  0.79472554793E+02 -0.19978017427E+03  0.16343835676E+03  0.27975308652E+03  0.72949900342E+02 0.  0.
          5    1    3    3  501    0 -0.31593483884E+02  0.24549379996E+02 -0.13252695769E+03  0.13851463748E+03  0.47000000000E+01 0. -1.
        -13    1    4    4    0    0 -0.15247028718E+02  0.10288179894E+03 -0.93824248077E+02  0.14007186001E+03  0.00000000000E+00 0.  1.
         14    1    4    4    0    0 -0.12474190813E+02  0.48267994300E+02  0.13057465322E+02  0.51535445189E+02  0.00000000000E+00 0. -1.
         -5    1    5    5    0  502 -0.20157851379E+02  0.24081001026E+02  0.17391847711E+02  0.36204971336E+02  0.47000000000E+01 0.  1.
         11    1    6    6    0    0  0.70257112803E+02 -0.15434922199E+03  0.87616395574E+02  0.19088315013E+03  0.00000000000E+00 0. -1.
        -12    1    6    6    0    0  0.92154419898E+01 -0.45430952275E+02  0.75821961191E+02  0.88869936393E+02  0.00000000000E+00 0.  1.
</event>
<event>
12    1  0.8219652E-002  0.2010687E+03  0.7818608E-02  0.1149859E+00
         21   -1    0    0  501  502  0.00000000000E+00  0.00000000000E+00  0.73689451101E+02  0.73689451101E+02  0.00000000000E+00 0.  1.
         21   -1    0    0  502  503 -0.00000000000E+00 -0.00000000000E+00 -0.10001352096E+04  0.10001352096E+04  0.00000000000E+00 0.  1.
         -6    2    1    2    0  503  0.94982558154E+02 -0.23907932756E+02 -0.82612377238E+03  0.84911794687E+03  0.17008093603E+03 0.  0.
        -24    2    3    3    0    0  0.12222717172E+03 -0.19265568802E+02 -0.50642046689E+03  0.52818787029E+03  0.84912268787E+02 0.  0.
          6    2    1    2  501    0 -0.94982558154E+02  0.23907932756E+02 -0.10032198615E+03  0.22470671386E+03  0.17559991671E+03 0.  0.
         24    2    5    5    0    0 -0.12711906354E+03  0.30119650803E+02 -0.42927280582E+02  0.15846788351E+03  0.78758294828E+02 0.  0.
          5    1    5    5  501    0  0.32136505390E+02 -0.62117180462E+01 -0.57394705570E+02  0.66238830358E+02  0.47000000000E+01 0. -1.
        -11    1    6    6    0    0 -0.11464459856E+03  0.14726438418E+02 -0.50206898964E+01  0.11569554570E+03  0.00000000000E+00 0.  1.
         12    1    6    6    0    0 -0.12474464983E+02  0.15393212385E+02 -0.37906590686E+02  0.42772337808E+02  0.00000000000E+00 0. -1.
         -5    1    3    3    0  503 -0.27244613561E+02 -0.46423639547E+01 -0.31970330549E+03  0.32093007658E+03  0.47000000000E+01 0.  1.
         13    1    4    4    0    0  0.35177949853E+02 -0.46142199644E+02 -0.22657342147E+03  0.23388481366E+03  0.00000000000E+00 0. -1.
        -14    1    4    4    0    0  0.87049221862E+02  0.26876630843E+02 -0.27984704541E+03  0.29430305662E+03  0.00000000000E+00 0.  1.
</event>
<event>
12    1  0.8219652E-002  0.1950878E+03  0.7818608E-02  0.1155060E+00
         21   -1    0    0  503  502  0.00000000000E+00  0.00000000000E+00  0.21538997886E+03  0.21538997886E+03  0.00000000000E+00 0.  1.
         21   -1    0    0  501  503 -0.00000000000E+00 -0.00000000000E+00 -0.22524435004E+03  0.22524435004E+03  0.00000000000E+00 0.  1.
          6    2    1    2  501    0  0.93895011303E+02  0.47012446374E+01 -0.11190522581E+03  0.22490450834E+03  0.17094116958E+03 0.  0.
         24    2    3    3    0    0  0.11584069025E+03 -0.36523337646E+02 -0.10155849009E+03  0.17683971926E+03  0.78772709014E+02 0.  0.
         -6    2    1    2    0  502 -0.93895011303E+02 -0.47012446374E+01  0.10205085464E+03  0.21572982056E+03  0.16518657240E+03 0.  0.
        -24    2    5    5    0    0 -0.29058301317E+02  0.54310201707E+02  0.67503475938E+02  0.12138067570E+03  0.79890964977E+02 0.  0.
          5    1    3    3  501    0 -0.21945678951E+02  0.41224582283E+02 -0.10346735717E+02  0.48064789077E+02  0.47000000000E+01 0. -1.
        -11    1    4    4    0    0  0.68835235926E+02  0.19590282720E+02 -0.49947180115E+02  0.87274221185E+02  0.00000000000E+00 0.  1.
         12    1    4    4    0    0  0.47005454329E+02 -0.56113620366E+02 -0.51611309979E+02  0.89565498073E+02  0.00000000000E+00 0. -1.
         -5    1    5    5    0  502 -0.64836709986E+02 -0.59011446345E+02  0.34547378699E+02  0.94349144864E+02  0.47000000000E+01 0.  1.
         11    1    6    6    0    0 -0.16051565410E+02  0.37107100812E+02 -0.94016280735E+01  0.41508797781E+02  0.00000000000E+00 0. -1.
        -12    1    6    6    0    0 -0.13006735907E+02  0.17203100895E+02  0.76905104011E+02  0.79871877919E+02  0.00000000000E+00 0.  1.
</event>
<event>
12    1  0.8219652E-002  0.2629618E+03  0.7818608E-02  0.1105395E+00
         21   -1    0    0  501  502  0.00000000000E+00  0.00000000000E+00  0.15865875524E+03  0.15865875524E+03  0.00000000000E+00 0. -1.
         21   -1    0    0  502  503 -0.00000000000E+00 -0.00000000000E+00 -0.51345356471E+03  0.51345356471E+03  0.00000000000E+00 0. -1.
         -6    2    1    2    0  503  0.19784530172E+03  0.20919454287E+02 -0.30826939245E+03  0.40518999235E+03  0.17195500749E+03 0.  0.
        -24    2    3    3    0    0  0.10597330008E+03  0.54025387280E+02 -0.25814336507E+03  0.29532108817E+03  0.80171474912E+02 0.  0.
          6    2    1    2  501    0 -0.19784530172E+03 -0.20919454287E+02 -0.46525417031E+02  0.26692232760E+03  0.17176299823E+03 0.  0.
         24    2    5    5    0    0 -0.12233180955E+03 -0.77884871222E+02 -0.47425477237E+02  0.17221094320E+03  0.79851789420E+02 0.  0.
          5    1    5    5  501    0 -0.75513492174E+02  0.56965416935E+02  0.90006020685E+00  0.94711384401E+02  0.47000000000E+01 0. -1.
        -13    1    6    6    0    0 -0.35569519731E+02 -0.31312674453E+02  0.21475610901E+02  0.52027648216E+02  0.00000000000E+00 0.  1.
         14    1    6    6    0    0 -0.86762289818E+02 -0.46572196769E+02 -0.68901088138E+02  0.12018329498E+03  0.00000000000E+00 0. -1.
         -5    1    3    3    0  503  0.91872001641E+02 -0.33105932993E+02 -0.50126027379E+02  0.10986890418E+03  0.47000000000E+01 0.  1.
         11    1    4    4    0    0  0.99066342240E+02  0.11144023731E+02 -0.17051019421E+03  0.19751469758E+03  0.00000000000E+00 0. -1.
        -12    1    4    4    0    0  0.69069578414E+01  0.42881363549E+02 -0.87633170853E+02  0.97806390589E+02  0.00000000000E+00 0.  1.
</event>
<event>
12    1  0.8219652E-002  0.1795479E+03  0.7818608E-02  0.1168590E+00
         21   -1    0    0  503  502  0.00000000000E+00  0.00000000000E+00  0.37713313918E+03  0.37713313918E+03  0.00000000000E+00 0. -1.
         21   -1    0    0  501  503 -0.00000000000E+00 -0.00000000000E+00 -0.86110783343E+02  0.86110783343E+02  0.00000000000E+00 0. -1.
          6    2    1    2  501    0 -0.45910101168E+02  0.21472914893E+02  0.11636029646E+03  0.21275581434E+03  0.17075272906E+03 0.  0.
         24    2    3    3    0    0  0.39816484217E+02  0.61901287045E+01  0.45430932409E+02  0.10034729296E+03  0.79887041978E+02 0.  0.
         -6    2    1    2    0  502  0.45910101168E+02 -0.21472914893E+02  0.17466205938E+03  0.25048810818E+03  0.17224585304E+03 0.  0.
        -24    2    5    5    0    0  0.58994832978E+00 -0.15543501314E+02  0.11324751673E+02  0.80811237960E+02  0.78487309217E+02 0.  0.
          5    1    3    3  501    0 -0.85726585384E+02  0.15282786189E+02  0.70929364049E+02  0.11240852138E+03  0.47000000000E+01 0. -1.
        -13    1    4    4    0    0  0.48036565784E+02 -0.51581826401E+01 -0.44673344560E+01  0.48518816738E+02  0.00000000000E+00 0.  1.
         14    1    4    4    0    0 -0.82200815676E+01  0.11348311345E+02  0.49898266866E+02  0.51828476222E+02  0.00000000000E+00 0. -1.
         -5    1    5    5    0  502  0.45320152838E+02 -0.59294135797E+01  0.16333730771E+03  0.16967687022E+03  0.47000000000E+01 0.  1.
         13    1    6    6    0    0  0.10748543197E+02 -0.43988195207E+02  0.19827474914E+02  0.49432997683E+02  0.00000000000E+00 0. -1.
        -14    1    6    6    0    0 -0.10158594867E+02  0.28444693894E+02 -0.85027232407E+01  0.31378240277E+02  0.00000000000E+00 0.  1.
</event>
<event>
12    1  0.8219652E-002  0.1763847E+03  0.7818608E-02  0.1173301E+00
         21   -1    0    0  501  502  0.00000000000E+00  0.00000000000E+00  0.16575349498E+02  0.16575349498E+02  0.00000000000E+00 0.  1.
         21   -1    0    0  502  503 -0.00000000000E+00 -0.00000000000E+00 -0.17963655451E+04  0.17963655451E+04  0.00000000000E+00 0.  1.
         -6    2    1    2    0  503  0.29605135885E+02  0.25806603287E+02 -0.90085987459E+03  0.91796518851E+03  0.17195676443E+03 0.  0.
        -24    2    3    3    0    0 -0.29091607352E+02  0.37028734015E+02 -0.73869469162E+03  0.74507539572E+03  0.85147220259E+02 0.  0.
          6    2    1    2  501    0 -0.29605135885E+02 -0.25806603287E+02 -0.87893032103E+03  0.89497570611E+03  0.16407486231E+03 0.  0.
         24    2    5    5    0    0 -0.32386049449E+02 -0.75204663821E+02 -0.43145056351E+03  0.44474451521E+03  0.70310009203E+02 0.  0.
          5    1    5    5  501    0  0.27809135642E+01  0.49398060534E+02 -0.44747975752E+03  0.45023119090E+03  0.47000000000E+01 0. -1.
        -13    1    6    6    0    0 -0.39367311534E+02 -0.68991430055E+02 -0.23480442527E+03  0.24787642237E+03  0.00000000000E+00 0.  1.
         14    1    6    6    0    0  0.69812620854E+01 -0.62132337659E+01 -0.19664613824E+03  0.19686809284E+03  0.00000000000E+00 0. -1.
         -5    1    3    3    0  503  0.58696743237E+02 -0.11222130728E+02 -0.16216518297E+03  0.17288979279E+03  0.47000000000E+01 0.  1.
         13    1    4    4    0    0 -0.25459292683E+02 -0.80281013365E+01 -0.71005365941E+02  0.75857682455E+02  0.00000000000E+00 0. -1.
        -14    1    4    4    0    0 -0.36323146695E+01  0.45056835352E+02 -0.66768932568E+03  0.66921771326E+03  0.00000000000E+00 0.  1.
</event>
<event>
12    1  0.8219652E-002  0.1960169E+03  0.7818608E-02  0.1157050E+00
         21   -1    0    0  503  502  0.00000000000E+00  0.00000000000E+00  0.12973707249E+03  0.12973707249E+03  0.00000000000E+00 0. -1.
         21   -1    0    0  501  503 -0.00000000000E+00 -0.00000000000E+00 -0.49197012711E+03  0.49197012711E+03  0.00000000000E+00 0. -1.
          6    2    1    2  501    0 -0.66437472049E+02  0.69554800323E+02 -0.38486647499E+03  0.42438796171E+03  0.15076846663E+03 0.  0.
         24    2    3    3    0    0 -0.52242608288E+02 -0.10858764816E+02 -0.18523167115E+03  0.20864742189E+03  0.79848429985E+02 0.  0.
         -6    2    1    2    0  502  0.66437472049E+02 -0.69554800323E+02  0.22633420371E+02  0.19731923789E+03  0.17079461930E+03 0.  0.
        -24    2    5    5    0    0  0.51759986287E+02 -0.46507992612E+02 -0.52063183126E+02  0.11764329103E+03  0.79292366148E+02 0.  0.
          5    1    3    3  501    0 -0.14194863761E+02  0.80413565139E+02 -0.19963480384E+03  0.21574053982E+03  0.47000000000E+01 0. -1.
        -13    1    4    4    0    0  0.77974130724E+01  0.11866431743E+02 -0.18075873385E+01  0.14313602793E+02  0.00000000000E+00 0.  1.
         14    1    4    4    0    0 -0.60040021361E+02 -0.22725196559E+02 -0.18342408381E+03  0.19433381910E+03  0.00000000000E+00 0. -1.
         -5    1    5    5    0  502  0.14677485763E+02 -0.23046807711E+02  0.74696603497E+02  0.79675946859E+02  0.47000000000E+01 0.  1.
         13    1    6    6    0    0  0.15146179334E+02 -0.53346454288E+02 -0.57635430210E+02  0.79981833869E+02  0.00000000000E+00 0. -1.
        -14    1    6    6    0    0  0.36613806953E+02  0.68384616762E+01  0.55722470843E+01  0.37661457158E+02  0.00000000000E+00 0.  1.
</event>
<event>
12    1  0.8219652E-002  0.1827252E+03  0.7818608E-02  0.1165298E+00
         21   -1    0    0  501  502  0.00000000000E+00  0.00000000000E+00  0.25058225180E+03  0.25058225180E+03  0.00000000000E+00 0. -1.
         21   -1    0    0  502  503 -0.00000000000E+00 -0.00000000000E+00 -0.13375249037E+03  0.13375249037E+03  0.00000000000E+00 0. -1.
         -6    2    1    2    0  503 -0.60757104676E+02  0.17206556293E+02  0.43143877017E+02  0.18731166608E+03  0.17098764510E+03 0.  0.
        -24    2    3    3    0    0  0.63694812439E+01  0.59740056663E+02  0.35737475267E+02  0.10736154426E+03  0.81485516424E+02 0.  0.
          6    2    1    2  501    0  0.60757104676E+02 -0.17206556293E+02  0.73685884420E+02  0.19702307610E+03  0.17146717355E+03 0.  0.
         24    2    5    5    0    0  0.95585215056E+02 -0.96685512387E+01  0.13510881670E+02  0.12693071026E+03  0.81846484732E+02 0.  0.
          5    1    5    5  501    0 -0.34828110379E+02 -0.75380050544E+01  0.60175002750E+02  0.70092365837E+02  0.47000000000E+01 0. -1.
        -13    1    6    6    0    0  0.25298777260E+02  0.32464912379E+02 -0.86116995181E+01  0.42049495064E+02  0.00000000000E+00 0.  1.
         14    1    6    6    0    0  0.70286437796E+02 -0.42133463617E+02  0.22122581188E+02  0.84881215194E+02  0.00000000000E+00 0. -1.
         -5    1    3    3    0  503 -0.67126585920E+02 -0.42533500370E+02  0.74064017505E+01  0.79950121813E+02  0.47000000000E+01 0.  1.
         11    1    4    4    0    0 -0.37446417842E+02  0.32808368749E+02  0.18702655093E+02  0.53182822195E+02  0.00000000000E+00 0. -1.
        -12    1    4    4    0    0  0.43815899086E+02  0.26931687914E+02  0.17034820174E+02  0.54178722068E+02  0.00000000000E+00 0.  1.
</event>
<event>
12    1  0.8219652E-002  0.1784038E+03  0.7818608E-02  0.1170335E+00
         21   -1    0    0  503  502  0.00000000000E+00  0.00000000000E+00  0.58599014518E+02  0.58599014518E+02  0.00000000000E+00 0. -1.
         21   -1    0    0  501  503 -0.00000000000E+00 -0.00000000000E+00 -0.61400347114E+03  0.61400347114E+03  0.00000000000E+00 0. -1.
          6    2    1    2  501    0 -0.30678394276E+02 -0.36728710717E+01 -0.40388634489E+03  0.44153379689E+03  0.17570788357E+03 0.  0.
         24    2    3    3    0    0 -0.53460827208E+02 -0.63344443582E+02 -0.26219348257E+03  0.28603880324E+03  0.78754022632E+02 0.  0.
         -6    2    1    2    0  502  0.30678394276E+02  0.36728710717E+01 -0.15151811172E+03  0.23106868876E+03  0.17169841842E+03 0.  0.
        -24    2    5    5    0    0  0.67970486549E+02  0.47963020041E+02 -0.10991384162E+03  0.15961714761E+03  0.80474486011E+02 0.  0.
          5    1    3    3  501    0  0.22782432932E+02  0.59671572510E+02 -0.14169286232E+03  0.15549499365E+03  0.47000000000E+01 0. -1.
        -11    1    4    4    0    0  0.10634601508E+02 -0.15064586161E+02 -0.13069923740E+03  0.13199366334E+03  0.00000000000E+00 0.  1.
         12    1    4    4    0    0 -0.64095428716E+02 -0.48279857421E+02 -0.13149424517E+03  0.15404513991E+03  0.00000000000E+00 0. -1.
         -5    1    5    5    0  502 -0.37292092273E+02 -0.44290148969E+02 -0.41604270108E+02  0.71451541153E+02  0.47000000000E+01 0.  1.
         13    1    6    6    0    0  0.75330437366E+01 -0.27437620508E+01  0.11983423795E+02  0.14417954916E+02  0.00000000000E+00 0. -1.
        -14    1    6    6    0    0  0.60437442813E+02  0.50706782092E+02 -0.12189726541E+03  0.14519919269E+03  0.00000000000E+00 0.  1.
</event>
<event>
12    1  0.8219652E-002  0.1945959E+03  0.7818608E-02  0.1158278E+00
         21   -1    0    0  501  502  0.00000000000E+00  0.00000000000E+00  0.28988231041E+03  0.28988231041E+03  0.00000000000E+00 0.  1.
         21   -1    0    0  502  503 -0.00000000000E+00 -0.00000000000E+00 -0.19240143164E+03  0.19240143164E+03  0.00000000000E+00 0. -1.
         -6    2    1    2    0  503 -0.15728368660E+02 -0.39385901757E+02 -0.98240188196E+02  0.21798787855E+03  0.18991827132E+03 0.  0.
        -24    2    3    3    0    0 -0.94208635297E+00 -0.31779108208E+02 -0.14499057688E+03  0.16814626648E+03  0.78994305499E+02 0.  0.
          6    2    1    2  501    0  0.15728368660E+02  0.39385901757E+02  0.19572106697E+03  0.26429586350E+03  0.17247300245E+03 0.  0.
         24    2    5    5    0    0 -0.54527267428E+02  0.23473029954E+02  0.81881848046E+02  0.12949774907E+03  0.80875360561E+02 0.  0.
          5    1    5    5  501    0  0.70255636088E+02  0.15912871803E+02  0.11383921892E+03  0.13479811444E+03  0.47000000000E+01 0. -1.
        -13    1    6    6    0    0 -0.30773215206E+02  0.12423343552E+02  0.94689333606E+02  0.10033643475E+03  0.00000000000E+00 0.  1.
         14    1    6    6    0    0 -0.23754052222E+02  0.11049686402E+02 -0.12807485560E+02  0.29161314321E+02  0.00000000000E+00 0. -1.
         -5    1    3    3    0  503 -0.14786282307E+02 -0.76067935496E+01  0.46750388682E+02  0.49841612078E+02  0.47000000000E+01 0.  1.
         13    1    4    4    0    0  0.19799743657E+02 -0.50014212442E+02 -0.11725917283E+03  0.12900839085E+03  0.00000000000E+00 0. -1.
        -14    1    4    4    0    0 -0.20741830010E+02  0.18235104234E+02 -0.27731404044E+02  0.39137875630E+02  0.00000000000E+00 0.  1.
</event>
<event>
12    1  0.8219652E-002  0.3969866E+03  0.7818608E-02  0.1044842E+00
         21   -1    0    0  501  502  0.00000000000E+00  0.00000000000E+00  0.26252399592E+03  0.26252399592E+03  0.00000000000E+00 0.  1.
         21   -1    0    0  502  503 -0.00000000000E+00 -0.00000000000E+00 -0.61100269724E+03  0.61100269724E+03  0.00000000000E+00 0. -1.
         -6    2    1    2    0  503 -0.19174819158E+03  0.30172215537E+03 -0.23259785645E+03  0.45997290726E+03  0.17224890297E+03 0.  0.
        -24    2    3    3    0    0 -0.20446121113E+03  0.24670200383E+03 -0.23156971670E+03  0.40329853022E+03  0.79742744089E+02 0.  0.
          6    2    1    2  501    0  0.19174819158E+03 -0.30172215537E+03 -0.11588084487E+03  0.41355378591E+03  0.17261151646E+03 0.  0.
         24    2    5    5    0    0  0.17956536568E+03 -0.15700402558E+03 -0.73949432023E+02  0.26231856607E+03  0.80302721038E+02 0.  0.
          5    1    5    5  501    0  0.12182825898E+02 -0.14471812979E+03 -0.41931412850E+02  0.15123521984E+03  0.47000000000E+01 0. -1.
        -13    1    6    6    0    0  0.16828296552E+01  0.39966734411E+01  0.77376248984E+01  0.88699579093E+01  0.00000000000E+00 0.  1.
         14    1    6    6    0    0  0.17788253602E+03 -0.16100069902E+03 -0.81687056922E+02  0.25344860816E+03  0.00000000000E+00 0. -1.
         -5    1    3    3    0  503  0.12713019554E+02  0.55020151537E+02 -0.10281397483E+01  0.56674377038E+02  0.47000000000E+01 0.  1.
         11    1    4    4    0    0 -0.15533708997E+03  0.21515226306E+03 -0.21782661217E+03  0.34331988114E+03  0.00000000000E+00 0. -1.
        -12    1    4    4    0    0 -0.49124121164E+02  0.31549740779E+02 -0.13743104525E+02  0.59978649079E+02  0.00000000000E+00 0.  1.
</event>
<event>
12    1  0.8219652E-002  0.1769829E+03  0.7818608E-02  0.1170926E+00
         21   -1    0    0  501  502  0.00000000000E+00  0.00000000000E+00  0.38905046397E+03  0.38905046397E+03  0.00000000000E+00 0. -1.
         21   -1    0    0  502  503 -0.00000000000E+00 -0.00000000000E+00 -0.10138931527E+03  0.10138931527E+03  0.00000000000E+00 0. -1.
         -6    2    1    2    0  503  0.37960997755E+02 -0.15735747907E+02  0.31503207271E+02  0.17908817566E+03  0.17143941052E+03 0.  0.
        -24    2    3    3    0    0  0.58481372322E+02 -0.38763633185E+01 -0.37259346160E+02  0.10620395563E+03  0.80348766100E+02 0.  0.
          6    2    1    2  501    0 -0.37960997755E+02  0.15735747907E+02  0.25615794143E+03  0.31135160358E+03  0.17214609777E+03 0.  0.
         24    2    5    5    0    0 -0.21598555928E+02 -0.56839639496E+01  0.26904718765E+03  0.28110666637E+03  0.78331115354E+02 0.  0.
          5    1    5    5  501    0 -0.16362441828E+02  0.21419711857E+02 -0.12889246216E+02  0.30244937206E+02  0.47000000000E+01 0. -1.
        -13    1    6    6    0    0  0.13987865073E+02  0.10301370137E+02  0.11994138139E+02  0.21110138457E+02  0.00000000000E+00 0.  1.
         14    1    6    6    0    0 -0.35586421000E+02 -0.15985334086E+02  0.25705304951E+03  0.25999652792E+03  0.00000000000E+00 0. -1.
         -5    1    3    3    0  503 -0.20520374567E+02 -0.11859384589E+02  0.68762553431E+02  0.72884220031E+02  0.47000000000E+01 0.  1.
         13    1    4    4    0    0 -0.36643044879E+01  0.18027452789E+01 -0.43314193247E+02  0.43506279485E+02  0.00000000000E+00 0. -1.
        -14    1    4    4    0    0  0.62145676810E+02 -0.56791085974E+01  0.60548470876E+01  0.62697676144E+02  0.00000000000E+00 0.  1.
</event>
<event>
12    1  0.8219652E-002  0.1729824E+03  0.7818608E-02  0.1174861E+00
         21   -1    0    0  501  502  0.00000000000E+00  0.00000000000E+00  0.55855561090E+02  0.55855561090E+02  0.00000000000E+00 0.  1.
         21   -1    0    0  502  503 -0.00000000000E+00 -0.00000000000E+00 -0.98686053201E+03  0.98686053201E+03  0.00000000000E+00 0.  1.
         -6    2    1    2    0  503 -0.17373417015E+02 -0.87467580365E+00 -0.81867465653E+03  0.83675032743E+03  0.17210553893E+03 0.  0.
        -24    2    3    3    0    0 -0.26723424719E+02 -0.42352634923E+02 -0.21342001395E+03  0.22998586234E+03  0.69552191953E+02 0.  0.
          6    2    1    2  501    0  0.17373417015E+02  0.87467580365E+00 -0.11233031439E+03  0.20596576567E+03  0.17175912326E+03 0.  0.
         24    2    5    5    0    0 -0.56092696400E+02 -0.93416178973E+00 -0.42102156491E+02  0.10420808353E+03  0.77067956009E+02 0.  0.
          5    1    5    5  501    0  0.73466113415E+02  0.18088375934E+01 -0.70228157901E+02  0.10175768215E+03  0.47000000000E+01 0. -1.
        -11    1    6    6    0    0 -0.31503241828E+02  0.13066168830E+01  0.20026569236E+02  0.37352710326E+02  0.00000000000E+00 0.  1.
         12    1    6    6    0    0 -0.24589454573E+02 -0.22407786727E+01 -0.62128725727E+02  0.66855373200E+02  0.00000000000E+00 0. -1.
         -5    1    3    3    0  503  0.93500077041E+01  0.41477959119E+02 -0.60525464258E+03  0.60676446509E+03  0.47000000000E+01 0.  1.
         11    1    4    4    0    0  0.18820244127E+02 -0.16073311215E+02 -0.28554046560E+02  0.37787385426E+02  0.00000000000E+00 0. -1.
        -12    1    4    4    0    0 -0.45543668847E+02 -0.26279323708E+02 -0.18486596739E+03  0.19219847691E+03  0.00000000000E+00 0.  1.
</event>
<event>
12    1  0.8219652E-002  0.1913087E+03  0.7818608E-02  0.1158915E+00
         21   -1    0    0  501  502  0.00000000000E+00  0.00000000000E+00  0.56871001344E+03  0.56871001344E+03  0.00000000000E+00 0.  1.
         21   -1    0    0  502  503 -0.00000000000E+00 -0.00000000000E+00 -0.15438683499E+04  0.15438683499E+04  0.00000000000E+00 0.  1.
         -6    2    1    2    0  503 -0.23644454791E+02 -0.61827220214E+02 -0.15228150409E+04  0.15347848982E+04  0.17949197624E+03 0.  0.
        -24    2    3    3    0    0  0.41958662692E+02  0.13324963114E+02 -0.78525662955E+03  0.79049589530E+03  0.79483974563E+02 0.  0.
          6    2    1    2  501    0  0.23644454791E+02  0.61827220214E+02  0.54765670439E+03  0.57779346520E+03  0.17185970199E+03 0.  0.
         24    2    5    5    0    0  0.32755862544E+02  0.10054999400E+03  0.45768323978E+03  0.47930597719E+03  0.95273416928E+02 0.  0.
          5    1    5    5  501    0 -0.91114077537E+01 -0.38722773787E+02  0.89973464609E+02  0.98487488011E+02  0.47000000000E+01 0. -1.
        -11    1    6    6    0    0  0.53518713508E+02  0.58709561583E+02  0.16746022562E+03  0.18534830045E+03  0.00000000000E+00 0.  1.
         12    1    6    6    0    0 -0.20762850964E+02  0.41840432417E+02  0.29022301416E+03  0.29395767674E+03  0.00000000000E+00 0. -1.
         -5    1    3    3    0  503 -0.65603117482E+02 -0.75152183328E+02 -0.73755841134E+03  0.74428900289E+03  0.47000000000E+01 0.  1.
         11    1    4    4    0    0  0.45044210661E+02  0.14704969900E+02 -0.21206199579E+03  0.21729129553E+03  0.00000000000E+00 0. -1.
        -12    1    4    4    0    0 -0.30855479696E+01 -0.13800067855E+01 -0.57319463376E+03  0.57320459976E+03  0.00000000000E+00 0.  1.
</event>
<event>
12    1  0.8219652E-002  0.2336919E+03  0.7818608E-02  0.1124191E+00
         21   -1    0    0  501  502  0.00000000000E+00  0.00000000000E+00  0.10405765553E+03  0.10405765553E+03  0.00000000000E+00 0. -1.
         21   -1    0    0  502  503 -0.00000000000E+00 -0.00000000000E+00 -0.70424645252E+03  0.70424645252E+03  0.00000000000E+00 0.  1.
         -6    2    1    2    0  503 -0.15480965745E+03  0.28677224060E+02 -0.50465494753E+03  0.55583905805E+03  0.17173243480E+03 0.  0.
        -24    2    3    3    0    0 -0.13712982939E+03  0.62614006173E+02 -0.48205284625E+03  0.51114871812E+03  0.78568197004E+02 0.  0.
          6    2    1    2  501    0  0.15480965745E+03 -0.28677224060E+02 -0.95533849452E+02  0.25246505000E+03  0.17269473606E+03 0.  0.
         24    2    5    5    0    0  0.16251110918E+03  0.21465897523E+02 -0.67353926721E+02  0.19424269136E+03  0.79517459331E+02 0.  0.
          5    1    5    5  501    0 -0.77014517280E+01 -0.50143121583E+02 -0.28179922730E+02  0.58222358643E+02  0.47000000000E+01 0. -1.
        -11    1    6    6    0    0  0.91951791727E+01  0.19732901823E+02 -0.28875215430E+02  0.36162367186E+02  0.00000000000E+00 0.  1.
         12    1    6    6    0    0  0.15331593001E+03  0.17329957004E+01 -0.38478711291E+02  0.15808032418E+03  0.00000000000E+00 0. -1.
         -5    1    3    3    0  503 -0.17679828060E+02 -0.33936782113E+02 -0.22602101283E+02  0.44690339927E+02  0.47000000000E+01 0.  1.
         13    1    4    4    0    0 -0.22264267567E+02 -0.72407350507E+01 -0.16668644157E+03  0.16832259402E+03  0.00000000000E+00 0. -1.
        -14    1    4    4    0    0 -0.11486556183E+03  0.69854741223E+02 -0.31536640468E+03  0.34282612410E+03  0.00000000000E+00 0.  1.
</event>
<event>
12    1  0.8219652E-002  0.1951180E+03  0.7818608E-02  0.1154247E+00
         21   -1    0    0  501  502  0.00000000000E+00  0.00000000000E+00  0.99687711093E+02  0.99687711093E+02  0.00000000000E+00 0. -1.
         21   -1    0    0  502  503 -0.00000000000E+00 -0.00000000000E+00 -0.61719387731E+03  0.61719387731E+03  0.00000000000E+00 0. -1.
         -6    2    1    2    0  503  0.56100334053E+02 -0.69041111418E+02 -0.48081477081E+03  0.51834367658E+03  0.17199825778E+03 0.  0.
        -24    2    3    3    0    0  0.59113597100E+02 -0.14120458396E+02 -0.43444971628E+03  0.44625230287E+03  0.81858152492E+02 0.  0.
          6    2    1    2  501    0 -0.56100334053E+02  0.69041111418E+02 -0.36691395410E+02  0.19853791182E+03  0.17365805880E+03 0.  0.
         24    2    5    5    0    0 -0.49713322785E+02 -0.26606636509E+02 -0.35451121736E+02  0.10255398674E+03  0.77982117145E+02 0.  0.
          5    1    5    5  501    0 -0.63870112675E+01  0.95647747926E+02 -0.12402736742E+01  0.95983925087E+02  0.47000000000E+01 0. -1.
        -13    1    6    6    0    0  0.80498133555E+01  0.27708740645E+01 -0.36763388065E+02  0.37736241733E+02  0.00000000000E+00 0.  1.
         14    1    6    6    0    0 -0.57763136141E+02 -0.29377510573E+02  0.13122663289E+01  0.64817745002E+02  0.00000000000E+00 0. -1.
         -5    1    3    3    0  503 -0.30132630471E+01 -0.54920653022E+02 -0.46365054521E+02  0.72091373709E+02  0.47000000000E+01 0.  1.
         13    1    4    4    0    0  0.19776775121E+02 -0.46760652627E+02 -0.20836587641E+03  0.21446215965E+03  0.00000000000E+00 0. -1.
        -14    1    4    4    0    0  0.39336821979E+02  0.32640194231E+02 -0.22608383987E+03  0.23179014322E+03  0.00000000000E+00 0.  1.
</event>
<event>
12    1  0.8219652E-002  0.2088988E+03  0.7818608E-02  0.1142633E+00
         21   -1    0    0  503  502  0.00000000000E+00  0.00000000000E+00  0.10080616698E+03  0.10080616698E+03  0.00000000000E+00 0.  1.
         21   -1    0    0  501  503 -0.00000000000E+00 -0.00000000000E+00 -0.46554913756E+03  0.46554913756E+03  0.00000000000E+00 0.  1.
          6    2    1    2  501    0 -0.84175481680E+02 -0.80580172869E+02 -0.26000811036E+03  0.33353102456E+03  0.17337834615E+03 0.  0.
         24    2    3    3    0    0 -0.27830501500E+02  0.23909043109E+02 -0.87654265209E+02  0.12419710235E+03  0.79971687911E+02 0.  0.
         -6    2    1    2    0  502  0.84175481680E+02  0.80580172869E+02 -0.10473486022E+03  0.23282427998E+03  0.17221811295E+03 0.  0.
        -24    2    5    5    0    0  0.36315492751E+02  0.10938999309E+03 -0.35106613551E+02  0.14343318974E+03  0.77817864286E+02 0.  0.
          5    1    3    3  501    0 -0.56344980180E+02 -0.10448921598E+03 -0.17235384516E+03  0.20933392221E+03  0.47000000000E+01 0. -1.
        -13    1    4    4    0    0 -0.52325406736E+02  0.20510921605E+02 -0.80999501835E+02  0.98587856213E+02  0.00000000000E+00 0.  1.
         14    1    4    4    0    0  0.24494905235E+02  0.33981215046E+01 -0.66547633732E+01  0.25609246139E+02  0.00000000000E+00 0. -1.
         -5    1    5    5    0  502  0.47859988929E+02 -0.28809820218E+02 -0.69628246665E+02  0.89391090244E+02  0.47000000000E+01 0.  1.
         13    1    6    6    0    0 -0.38488884284E+01  0.24823006291E+02 -0.42662593723E+02  0.49508509234E+02  0.00000000000E+00 0. -1.
        -14    1    6    6    0    0  0.40164381179E+02  0.84566986796E+02  0.75559801720E+01  0.93924680504E+02  0.00000000000E+00 0.  1.
</event>
<event>
12    1  0.8219652E-002  0.4187158E+03  0.7818608E-02  0.1037505E+00
         21   -1    0    0  503  502  0.00000000000E+00  0.00000000000E+00  0.12304401492E+04  0.12304401492E+04  0.00000000000E+00 0. -1.
         21   -1    0    0  501  503 -0.00000000000E+00 -0.00000000000E+00 -0.14506452869E+03  0.14506452869E+03  0.00000000000E+00 0. -1.
          6    2    1    2  501    0 -0.87266424319E+02  0.37184865556E+03  0.44969471459E+03  0.61444956575E+03  0.17156946425E+03 0.  0.
         24    2    3    3    0    0 -0.64395893141E+02  0.14722922232E+03  0.12951117751E+03  0.22263769966E+03  0.83493264725E+02 0.  0.
         -6    2    1    2    0  502  0.87266424319E+02 -0.37184865556E+03  0.63568090593E+03  0.76105511215E+03  0.17096145212E+03 0.  0.
        -24    2    5    5    0    0 -0.16280277962E+02 -0.15297759495E+03  0.22060769349E+03  0.28049884863E+03  0.79653359300E+02 0.  0.
          5    1    3    3  501    0 -0.22870531178E+02  0.22461943325E+03  0.32018353708E+03  0.39181186609E+03  0.47000000000E+01 0. -1.
        -13    1    4    4    0    0 -0.42429143536E+02  0.15255297438E+03  0.11621479844E+03  0.19641415832E+03  0.00000000000E+00 0.  1.
         14    1    4    4    0    0 -0.21966749605E+02 -0.53237520611E+01  0.13296379073E+02  0.26223541345E+02  0.00000000000E+00 0. -1.
         -5    1    5    5    0  502  0.10354670228E+03 -0.21887106061E+03  0.41507321244E+03  0.48055626352E+03  0.47000000000E+01 0.  1.
         13    1    6    6    0    0  0.18395581478E+02 -0.11670939142E+03  0.18285547644E+03  0.21770531626E+03  0.00000000000E+00 0. -1.
        -14    1    6    6    0    0 -0.34675859440E+02 -0.36268203524E+02  0.37752217050E+02  0.62793532366E+02  0.00000000000E+00 0.  1.
</event>
<event>
12    1  0.8219652E-002  0.1815198E+03  0.7818608E-02  0.1166434E+00
         21   -1    0    0  503  502  0.00000000000E+00  0.00000000000E+00  0.68774627093E+03  0.68774627093E+03  0.00000000000E+00 0. -1.
         21   -1    0    0  501  503 -0.00000000000E+00 -0.00000000000E+00 -0.70451463709E+02  0.70451463709E+02  0.00000000000E+00 0.  1.
          6    2    1    2  501    0 -0.54595440861E+02  0.16678061600E+02  0.93490131166E+02  0.20383252624E+03  0.17189669637E+03 0.  0.
         24    2    3    3    0    0 -0.10133589008E+03 -0.93653539779E+00  0.53668580099E+02  0.13977950484E+03  0.79925926750E+02 0.  0.
         -6    2    1    2    0  502  0.54595440861E+02 -0.16678061600E+02  0.52380467605E+03  0.55436520840E+03  0.17230967974E+03 0.  0.
        -24    2    5    5    0    0  0.44026322949E+02  0.25164546652E+01  0.13363653910E+03  0.16355399976E+03  0.83345885311E+02 0.  0.
          5    1    3    3  501    0  0.46740449218E+02  0.17614596998E+02  0.39821551068E+02  0.64053021396E+02  0.47000000000E+01 0. -1.
        -13    1    4    4    0    0 -0.96407695415E+02 -0.88654558483E+01  0.71023886957E+02  0.12007261370E+03  0.00000000000E+00 0.  1.
         14    1    4    4    0    0 -0.49281946631E+01  0.79289204505E+01 -0.17355306859E+02  0.19706891138E+02  0.00000000000E+00 0. -1.
         -5    1    5    5    0  502  0.10569117912E+02 -0.19194516265E+02  0.39016813695E+03  0.39081120864E+03  0.47000000000E+01 0.  1.
         11    1    6    6    0    0  0.64842196343E+01  0.33303810350E+02  0.96905138628E+02  0.10267324277E+03  0.00000000000E+00 0. -1.
        -12    1    6    6    0    0  0.37542103314E+02 -0.30787355684E+02  0.36731400476E+02  0.60880756995E+02  0.00000000000E+00 0.  1.
</event>
<event>
12    1  0.8219652E-002  0.2125743E+03  0.7818608E-02  0.1140436E+00
         21   -1    0    0  501  502  0.00000000000E+00  0.00000000000E+00  0.36389485560E+02  0.36389485560E+02  0.00000000000E+00 0. -1.
         21   -1    0    0  502  503 -0.00000000000E+00 -0.00000000000E+00 -0.22186143564E+04  0.22186143564E+04  0.00000000000E+00 0.  1.
         -6    2    1    2    0  503 -0.12459274689E+03  0.10798778388E+02 -0.18556756103E+04  0.18678114957E+04  0.17189487086E+03 0.  0.
        -24    2    3    3    0    0 -0.15628427825E+03 -0.31435445245E+01 -0.14562170188E+04  0.14668277082E+04  0.81122513280E+02 0.  0.
          6    2    1    2  501    0  0.12459274689E+03 -0.10798778388E+02 -0.32654926050E+03  0.38719234622E+03  0.16626342726E+03 0.  0.
         24    2    5    5    0    0  0.14151734046E+03 -0.36430805074E+01 -0.19455898094E+03  0.25384629348E+03  0.80896934221E+02 0.  0.
          5    1    5    5  501    0 -0.16924593572E+02 -0.71556978805E+01 -0.13199027957E+03  0.13334605274E+03  0.47000000000E+01 0. -1.
        -11    1    6    6    0    0  0.17954808978E+02  0.19810459962E+02 -0.77683732746E+02  0.82155899500E+02  0.00000000000E+00 0.  1.
         12    1    6    6    0    0  0.12356253148E+03 -0.23453540469E+02 -0.11687524819E+03  0.17169039398E+03  0.00000000000E+00 0. -1.
         -5    1    3    3    0  503  0.31691531361E+02  0.13942322913E+02 -0.39945859147E+03  0.40098378749E+03  0.47000000000E+01 0.  1.
         13    1    4    4    0    0 -0.39568406442E+01  0.17086403113E+02 -0.71904640192E+02  0.74012695129E+02  0.00000000000E+00 0. -1.
        -14    1    4    4    0    0 -0.15232743761E+03 -0.20229947638E+02 -0.13843123786E+04  0.13928150131E+04  0.00000000000E+00 0.  1.
</event>
<event>
12    1  0.8219652E-002  0.3264248E+03  0.7818608E-02  0.1072911E+00
         21   -1    0    0  501  502  0.00000000000E+00  0.00000000000E+00  0.73926297336E+03  0.73926297336E+03  0.00000000000E+00 0.  1.
         21   -1    0    0  502  503 -0.00000000000E+00 -0.00000000000E+00 -0.34029152040E+03  0.34029152040E+03  0.00000000000E+00 0. -1.
         -6    2    1    2    0  503  0.11268097008E+03  0.25338577735E+03 -0.21086608916E+03  0.38860987906E+03  0.17219691452E+03 0.  0.
        -24    2    3    3    0    0  0.49165540181E+02  0.16692286195E+03 -0.21427622169E+03  0.28116796648E+03  0.53484895213E+02 0.  0.
          6    2    1    2  501    0 -0.11268097008E+03 -0.25338577735E+03  0.60983754212E+03  0.69094461470E+03  0.16911912849E+03 0.  0.
         24    2    5    5    0    0 -0.13424412310E+03 -0.15415217338E+03  0.36767403630E+03  0.42830887593E+03  0.80497944637E+02 0.  0.
          5    1    5    5  501    0  0.21563153024E+02 -0.99233603968E+02  0.24216350582E+03  0.26263573877E+03  0.47000000000E+01 0. -1.
        -11    1    6    6    0    0 -0.75371307150E+02 -0.72815511984E+02  0.26372743174E+03  0.28378705217E+03  0.00000000000E+00 0.  1.
         12    1    6    6    0    0 -0.58872815952E+02 -0.81336661394E+02  0.10394660456E+03  0.14452182376E+03  0.00000000000E+00 0. -1.
         -5    1    3    3    0  503  0.63515429897E+02  0.86462915401E+02  0.34101325291E+01  0.10744191258E+03  0.47000000000E+01 0.  1.
         13    1    4    4    0    0  0.12145206697E+02  0.29538614051E+02 -0.77416636234E+02  0.83745873520E+02  0.00000000000E+00 0. -1.
        -14    1    4    4    0    0  0.37020333484E+02  0.13738424789E+03 -0.13685958545E+03  0.19742209296E+03  0.00000000000E+00 0.  1.
</event>
<event>
12    1  0.8219652E-002  0.2113366E+03  0.7818608E-02  0.1140899E+00
         21   -1    0    0  503  502  0.00000000000E+00  0.00000000000E+00  0.61060373171E+03  0.61060373171E+03  0.00000000000E+00 0. -1.
         21   -1    0    0  501  503 -0.00000000000E+00 -0.00000000000E+00 -0.73858310387E+02  0.73858310387E+02  0.00000000000E+00 0.  1.
          6    2    1    2  501    0  0.11791412854E+03 -0.24690050943E+02  0.31653265487E+03  0.38059964930E+03  0.17363706726E+03 0.  0.
         24    2    3    3    0    0  0.46972155360E+02  0.51305192618E+02  0.14577710428E+03  0.18063068006E+03  0.80857110254E+02 0.  0.
         -6    2    1    2    0  502 -0.11791412854E+03  0.24690050943E+02  0.22021276646E+03  0.30386239280E+03  0.17124646250E+03 0.  0.
        -24    2    5    5    0    0 -0.14003149967E+03 -0.12806914361E+02  0.19489650216E+03  0.25328370410E+03  0.79969683333E+02 0.  0.
          5    1    3    3  501    0  0.70941973185E+02 -0.75995243561E+02  0.17075555059E+03  0.19996896924E+03  0.47000000000E+01 0. -1.
        -11    1    4    4    0    0 -0.11069093667E+02 -0.94344459720E+01  0.55225964801E+02  0.57109025501E+02  0.00000000000E+00 0.  1.
         12    1    4    4    0    0  0.58041249026E+02  0.60739638590E+02  0.90551139479E+02  0.12352165456E+03  0.00000000000E+00 0. -1.
         -5    1    5    5    0  502  0.22117371123E+02  0.37496965304E+02  0.25316264293E+02  0.50578688696E+02  0.47000000000E+01 0.  1.
         13    1    6    6    0    0 -0.14497583007E+03 -0.20013802532E+02  0.15799947385E+03  0.21536568281E+03  0.00000000000E+00 0. -1.
        -14    1    6    6    0    0  0.49443303979E+01  0.72068881704E+01  0.36897028317E+02  0.37918021293E+02  0.00000000000E+00 0.  1.
</event>
<event>
12    1  0.8219652E-002  0.2345387E+03  0.7818608E-02  0.1124332E+00
         21   -1    0    0  503  502  0.00000000000E+00  0.00000000000E+00  0.27456113276E+03  0.27456113276E+03  0.00000000000E+00 0.  1.
         21   -1    0    0  501  503 -0.00000000000E+00 -0.00000000000E+00 -0.21042369937E+03  0.21042369937E+03  0.00000000000E+00 0. -1.
          6    2    1    2  501    0  0.15945005734E+03 -0.84674093550E+01 -0.31278447100E+02  0.23178015234E+03  0.16506871284E+03 0.  0.
         24    2    3    3    0    0  0.17156343127E+03  0.53753307585E+01 -0.59062324188E+02  0.19812916263E+03  0.79397114663E+02 0.  0.
         -6    2    1    2    0  502 -0.15945005734E+03  0.84674093550E+01  0.95415880499E+02  0.25320467979E+03  0.17179173965E+03 0.  0.
        -24    2    5    5    0    0 -0.10045366431E+03  0.69331637484E+02  0.33816776801E+02  0.14831631899E+03  0.77177337707E+02 0.  0.
          5    1    3    3  501    0 -0.12113373937E+02 -0.13842740113E+02  0.27783877088E+02  0.33650989704E+02  0.47000000000E+01 0. -1.
        -13    1    4    4    0    0  0.48690804345E+02 -0.34692749526E+01  0.18895687500E+02  0.52343837293E+02  0.00000000000E+00 0.  1.
         14    1    4    4    0    0  0.12287262693E+03  0.88446057111E+01 -0.77958011689E+02  0.14578532534E+03  0.00000000000E+00 0. -1.
         -5    1    5    5    0  502 -0.58996393030E+02 -0.60864228129E+02  0.61599103697E+02  0.10488836081E+03  0.47000000000E+01 0.  1.
         13    1    6    6    0    0 -0.10380905097E+03  0.48257492074E+02  0.46422052217E+02  0.12353182398E+03  0.00000000000E+00 0. -1.
        -14    1    6    6    0    0  0.33553866600E+01  0.21074145409E+02 -0.12605275416E+02  0.24784495005E+02  0.00000000000E+00 0.  1.
</event>
<event>
12    1  0.8219652E-002  0.1756700E+03  0.7818608E-02  0.1172861E+00
         21   -1    0    0  501  502  0.00000000000E+00  0.00000000000E+00  0.86758115812E+02  0.86758115812E+02  0.00000000000E+00 0. -1.
         21   -1    0    0  502  503 -0.00000000000E+00 -0.00000000000E+00 -0.62599701873E+03  0.62599701873E+03  0.00000000000E+00 0. -1.
         -6    2    1    2    0  503 -0.10693948525E+02  0.35127093219E+00 -0.50791696556E+03  0.53743800433E+03  0.17534389259E+03 0.  0.
        -24    2    3    3    0    0 -0.60445389365E+02  0.38558954451E+02 -0.38111614761E+03  0.39589094368E+03  0.79622127925E+02 0.  0.
          6    2    1    2  501    0  0.10693948525E+02 -0.35127093219E+00 -0.31321937357E+02  0.17531713021E+03  0.17216430658E+03 0.  0.
         24    2    5    5    0    0 -0.38548461414E+02 -0.40542714391E+02  0.12454312081E+02  0.97995612646E+02  0.79487952803E+02 0.  0.
          5    1    5    5  501    0  0.49242409939E+02  0.40191443459E+02 -0.43776249438E+02  0.77321517567E+02  0.47000000000E+01 0. -1.
        -11    1    6    6    0    0  0.13882521327E+02  0.12223468425E+02 -0.90100477206E+01  0.20574706284E+02  0.00000000000E+00 0.  1.
         12    1    6    6    0    0 -0.52430982741E+02 -0.52766182816E+02  0.21464359801E+02  0.77420906362E+02  0.00000000000E+00 0. -1.
         -5    1    3    3    0  503  0.49751440839E+02 -0.38207683519E+02 -0.12680081795E+03  0.14154706065E+03  0.47000000000E+01 0.  1.
         13    1    4    4    0    0 -0.51654988350E+02  0.57820051302E+02 -0.34839071201E+03  0.35691383326E+03  0.00000000000E+00 0. -1.
        -14    1    4    4    0    0 -0.87904010146E+01 -0.19261096851E+02 -0.32725435601E+02  0.38977110426E+02  0.00000000000E+00 0.  1.
</event>
<event>
12    1  0.8219652E-002  0.1878123E+03  0.7818608E-02  0.1160478E+00
         21   -1    0    0  501  502  0.00000000000E+00  0.00000000000E+00  0.56892182649E+02  0.56892182649E+02  0.00000000000E+00 0.  1.
         21   -1    0    0  502  503 -0.00000000000E+00 -0.00000000000E+00 -0.67240477422E+03  0.67240477422E+03  0.00000000000E+00 0. -1.
         -6    2    1    2    0  503 -0.73274119919E+02 -0.29140210302E+01 -0.20547053642E+03  0.27828927519E+03  0.17276918470E+03 0.  0.
        -24    2    3    3    0    0  0.13451272447E+02  0.38495130861E+02 -0.80090170578E+02  0.12024390930E+03  0.79883355404E+02 0.  0.
          6    2    1    2  501    0  0.73274119919E+02  0.29140210302E+01 -0.41004205515E+03  0.45100768168E+03  0.17290417510E+03 0.  0.
         24    2    5    5    0    0  0.48068167274E+02  0.45685418035E+02 -0.13014628736E+03  0.16670421128E+03  0.80340100938E+02 0.  0.
          5    1    5    5  501    0  0.25205952644E+02 -0.42771397005E+02 -0.27989576780E+03  0.28430347040E+03  0.47000000000E+01 0. -1.
        -11    1    6    6    0    0  0.36726619100E+02 -0.12245976638E+02 -0.24891794833E+02  0.46026187593E+02  0.00000000000E+00 0.  1.
         12    1    6    6    0    0  0.11341548174E+02  0.57931394674E+02 -0.10525449253E+03  0.12067802369E+03  0.00000000000E+00 0. -1.
         -5    1    3    3    0  503 -0.86725392366E+02 -0.41409151891E+02 -0.12538036584E+03  0.15804536589E+03  0.47000000000E+01 0.  1.
         11    1    4    4    0    0  0.13970275817E+02  0.31449147607E+02 -0.96459968632E+02  0.10241456459E+03  0.00000000000E+00 0. -1.
        -12    1    4    4    0    0 -0.51900337044E+00  0.70459832540E+01  0.16369798055E+02  0.17829344712E+02  0.00000000000E+00 0.  1.
</event>
<event>
12    1  0.8219652E-002  0.1984236E+03  0.7818608E-02  0.1152095E+00
         21   -1    0    0  503  502  0.00000000000E+00  0.00000000000E+00  0.71529937206E+02  0.71529937206E+02  0.00000000000E+00 0.  1.
         21   -1    0    0  501  503 -0.00000000000E+00 -0.00000000000E+00 -0.53742601458E+03  0.53742601458E+03  0.00000000000E+00 0.  1.
          6    2    1    2  501    0 -0.93135937922E+02 -0.35325641556E+02 -0.23379249164E+03  0.30664450224E+03  0.17160920056E+03 0.  0.
         24    2    3    3    0    0 -0.11038182757E+03 -0.15758660132E+02 -0.10062690664E+03  0.17086729317E+03  0.81470082289E+02 0.  0.
         -6    2    1    2    0  502  0.93135937922E+02  0.35325641556E+02 -0.23210358573E+03  0.30231144955E+03  0.16612625963E+03 0.  0.
        -24    2    5    5    0    0  0.13405618185E+00 -0.19285669671E+02 -0.70746168916E+02  0.10817219211E+03  0.79525138811E+02 0.  0.
          5    1    3    3  501    0  0.17245889648E+02 -0.19566981423E+02 -0.13316558501E+03  0.13577720907E+03  0.47000000000E+01 0. -1.
        -13    1    4    4    0    0 -0.69002043787E+02 -0.48457666314E+02 -0.51562610487E+02  0.98833851851E+02  0.00000000000E+00 0.  1.
         14    1    4    4    0    0 -0.41379783782E+02  0.32699006182E+02 -0.49064296151E+02  0.72033441317E+02  0.00000000000E+00 0. -1.
         -5    1    5    5    0  502  0.93001881740E+02  0.54611311227E+02 -0.16135741681E+03  0.19413925744E+03  0.47000000000E+01 0.  1.
         11    1    6    6    0    0  0.64421501198E+01  0.98001991662E+01 -0.76892794712E+02  0.77782048575E+02  0.00000000000E+00 0. -1.
        -12    1    6    6    0    0 -0.63080939380E+01 -0.29085868837E+02  0.61466257957E+01  0.30390143531E+02  0.00000000000E+00 0.  1.
</event>
<event>
12    1  0.8219652E-002  0.1889483E+03  0.7818608E-02  0.1159899E+00
         21   -1    0    0  501  502  0.00000000000E+00  0.00000000000E+00  0.35017667123E+03  0.35017667123E+03  0.00000000000E+00 0.  1.
         21   -1    0    0  502  503 -0.00000000000E+00 -0.00000000000E+00 -0.23775036027E+03  0.23775036027E+03  0.00000000000E+00 0. -1.
         -6    2    1    2    0  503  0.13961498568E+02 -0.73905935508E+02 -0.16701980427E+03  0.25059693227E+03  0.17101519436E+03 0.  0.
        -24    2    3    3    0    0 -0.54118340231E+02 -0.18358133829E+02 -0.92704091519E+02  0.13542168370E+03  0.80493279252E+02 0.  0.
          6    2    1    2  501    0 -0.13961498568E+02  0.73905935508E+02  0.27944611524E+03  0.33733009923E+03  0.17333336026E+03 0.  0.
         24    2    5    5    0    0  0.49795394398E+02  0.56865388785E+02  0.11772003533E+03  0.16259390792E+03  0.82858424004E+02 0.  0.
          5    1    5    5  501    0 -0.63756892966E+02  0.17040546723E+02  0.16172607990E+03  0.17473619131E+03  0.47000000000E+01 0. -1.
        -11    1    6    6    0    0  0.18066789121E+02 -0.20785738960E+02  0.21466685212E+02  0.34918109732E+02  0.00000000000E+00 0.  1.
         12    1    6    6    0    0  0.31728605276E+02  0.77651127745E+02  0.96253350120E+02  0.12767579819E+03  0.00000000000E+00 0. -1.
         -5    1    3    3    0  503  0.68079838799E+02 -0.55547801679E+02 -0.74315712748E+02  0.11517524857E+03  0.47000000000E+01 0.  1.
         11    1    4    4    0    0 -0.17817202003E+02 -0.45724958432E+02 -0.67462475055E+02  0.83423078649E+02  0.00000000000E+00 0. -1.
        -12    1    4    4    0    0 -0.36301138228E+02  0.27366824603E+02 -0.25241616464E+02  0.51998605051E+02  0.00000000000E+00 0.  1.
</event>
<event>
12    1  0.8219652E-002  0.1848452E+03  0.7818608E-02  0.1163208E+00
         21   -1    0    0  503  502  0.00000000000E+00  0.00000000000E+00  0.11395423559E+03  0.11395423559E+03  0.00000000000E+00 0.  1.
         21   -1    0    0  501  503 -0.00000000000E+00 -0.00000000000E+00 -0.30532766099E+03  0.30532766099E+03  0.00000000000E+00 0.  1.
          6    2    1    2  501    0  0.31017618444E+01  0.69488065796E+02 -0.12404340181E+03  0.22260846135E+03  0.17125872042E+03 0.  0.
         24    2    3    3    0    0  0.37640777606E+02  0.91039661323E+02 -0.12934664785E+03  0.18128498984E+03  0.80178826113E+02 0.  0.
         -6    2    1    2    0  502 -0.31017618444E+01 -0.69488065796E+02 -0.67330023587E+02  0.19667343523E+03  0.17119841072E+03 0.  0.
        -24    2    5    5    0    0 -0.11777954821E+00 -0.81923108039E+02 -0.10460598686E+03  0.15698563025E+03  0.83610203427E+02 0.  0.
          5    1    3    3  501    0 -0.34539015761E+02 -0.21551595527E+02  0.53032460459E+01  0.41323471516E+02  0.47000000000E+01 0. -1.
        -11    1    4    4    0    0  0.37488054579E+02  0.10375851404E+03 -0.98414933140E+02  0.14784005728E+03  0.00000000000E+00 0.  1.
         12    1    4    4    0    0  0.15272302650E+00 -0.12718852715E+02 -0.30931714712E+02  0.33444932557E+02  0.00000000000E+00 0. -1.
         -5    1    5    5    0  502 -0.29839822961E+01  0.12435042243E+02  0.37275963269E+02  0.39687804973E+02  0.47000000000E+01 0.  1.
         13    1    6    6    0    0 -0.12591237192E+02 -0.13664002078E+02 -0.81891561481E+02  0.83973043583E+02  0.00000000000E+00 0. -1.
        -14    1    6    6    0    0  0.12473457644E+02 -0.68259105960E+02 -0.22714425375E+02  0.73012586670E+02  0.00000000000E+00 0.  1.
</event>
<event>
12    1  0.8219652E-002  0.1936343E+03  0.7818608E-02  0.1155289E+00
         21   -1    0    0  501  502  0.00000000000E+00  0.00000000000E+00  0.12451865137E+03  0.12451865137E+03  0.00000000000E+00 0.  1.
         21   -1    0    0  502  503 -0.00000000000E+00 -0.00000000000E+00 -0.30323670761E+03  0.30323670761E+03  0.00000000000E+00 0.  1.
         -6    2    1    2    0  503  0.25645125385E+02 -0.86282738612E+02 -0.10903957461E+03  0.22196582464E+03  0.17110469029E+03 0.  0.
        -24    2    3    3    0    0 -0.53866744749E+02 -0.42695179893E+02 -0.62176289037E+02  0.11978818373E+03  0.75886846464E+02 0.  0.
          6    2    1    2  501    0 -0.25645125385E+02  0.86282738612E+02 -0.69678481627E+02  0.20578953434E+03  0.17144053840E+03 0.  0.
         24    2    5    5    0    0 -0.40847677979E+02  0.11825417282E+03 -0.80496426116E+02  0.16847454897E+03  0.79065901912E+02 0.  0.
          5    1    5    5  501    0  0.15202552594E+02 -0.31971434211E+02  0.10817944490E+02  0.37314985379E+02  0.47000000000E+01 0. -1.
        -11    1    6    6    0    0  0.56155654707E+01  0.73485085319E+02 -0.12525603640E+02  0.74756157516E+02  0.00000000000E+00 0.  1.
         12    1    6    6    0    0 -0.46463243450E+02  0.44769087504E+02 -0.67970822477E+02  0.93718391450E+02  0.00000000000E+00 0. -1.
         -5    1    3    3    0  503  0.79511870134E+02 -0.43587558720E+02 -0.46863285570E+02  0.10217764091E+03  0.47000000000E+01 0.  1.
         11    1    4    4    0    0 -0.14851502683E+02  0.59559389596E+01  0.14055302781E+02  0.21297696521E+02  0.00000000000E+00 0. -1.
        -12    1    4    4    0    0 -0.39015242066E+02 -0.48651118852E+02 -0.76231591818E+02  0.98490487206E+02  0.00000000000E+00 0.  1.
</event>
<event>
12    1  0.8219652E-002  0.2412017E+03  0.7818608E-02  0.1119007E+00
         21   -1    0    0  503  502  0.00000000000E+00  0.00000000000E+00  0.21665811573E+04  0.21665811573E+04  0.00000000000E+00 0.  1.
         21   -1    0    0  501  503 -0.00000000000E+00 -0.00000000000E+00 -0.16674105499E+03  0.16674105499E+03  0.00000000000E+00 0.  1.
          6    2    1    2  501    0 -0.72150540181E+02  0.15217419001E+03 -0.68684896651E+02  0.25079048750E+03  0.17267185364E+03 0.  0.
         24    2    3    3    0    0 -0.10039028945E+03  0.13370590883E+03 -0.93633761516E+02  0.20856375774E+03  0.82316945243E+02 0.  0.
         -6    2    1    2    0  502  0.72150540181E+02 -0.15217419001E+03  0.20685249990E+04  0.20825317248E+04  0.17256891041E+03 0.  0.
        -24    2    5    5    0    0  0.80407261584E+02 -0.29175034907E+02  0.10192791095E+04  0.10260583497E+04  0.80927891646E+02 0.  0.
          5    1    3    3  501    0  0.28239749269E+02  0.18468281184E+02  0.24948864864E+02  0.42226729766E+02  0.47000000000E+01 0. -1.
        -11    1    4    4    0    0 -0.33488055802E+02  0.91563984054E+02 -0.84409601846E+02  0.12895888469E+03  0.00000000000E+00 0.  1.
         12    1    4    4    0    0 -0.66902233648E+02  0.42141924774E+02 -0.92241596692E+01  0.79604873044E+02  0.00000000000E+00 0. -1.
         -5    1    5    5    0  502 -0.82567214037E+01 -0.12299915511E+03  0.10492458895E+04  0.10564733751E+04  0.47000000000E+01 0.  1.
         11    1    6    6    0    0  0.80855814769E+02 -0.51206879461E+02  0.83367199278E+03  0.83914766211E+03  0.00000000000E+00 0. -1.
        -12    1    6    6    0    0 -0.44855318493E+00  0.22031844554E+02  0.18560711670E+03  0.18691068761E+03  0.00000000000E+00 0.  1.
</event>
<event>
12    1  0.8219652E-002  0.1856962E+03  0.7818608E-02  0.1162561E+00
         21   -1    0    0  501  502  0.00000000000E+00  0.00000000000E+00  0.36011580536E+03  0.36011580536E+03  0.00000000000E+00 0. -1.
         21   -1    0    0  502  503 -0.00000000000E+00 -0.00000000000E+00 -0.12946187960E+03  0.12946187960E+03  0.00000000000E+00 0. -1.
         -6    2    1    2    0  503 -0.43388311036E+02  0.38661147180E+02 -0.10071437922E+02  0.18596912800E+03  0.17636851440E+03 0.  0.
        -24    2    3    3    0    0  0.68219345332E+01 -0.24906484344E+02  0.36515342758E+02  0.92404547779E+02  0.80860116500E+02 0.  0.
          6    2    1    2  501    0  0.43388311036E+02 -0.38661147180E+02  0.24072536368E+03  0.30360855696E+03  0.17564801537E+03 0.  0.
         24    2    5    5    0    0  0.65682718301E+02  0.19599136745E+02  0.10260151149E+03  0.15197877815E+03  0.88725042707E+02 0.  0.
          5    1    5    5  501    0 -0.22294407264E+02 -0.58260283925E+02  0.13812385219E+03  0.15162977881E+03  0.47000000000E+01 0. -1.
        -11    1    6    6    0    0  0.67896138099E+02 -0.21218458699E+02  0.68315080481E+02  0.98625852491E+02  0.00000000000E+00 0.  1.
         12    1    6    6    0    0 -0.22134197988E+01  0.40817595445E+02  0.34286431013E+02  0.53352925662E+02  0.00000000000E+00 0. -1.
         -5    1    3    3    0  503 -0.50210245570E+02  0.63567631524E+02 -0.46586780680E+02  0.93564580220E+02  0.47000000000E+01 0.  1.
         11    1    4    4    0    0  0.35545982547E+02 -0.38955232685E+02  0.25569239770E+02  0.58607278142E+02  0.00000000000E+00 0. -1.
        -12    1    4    4    0    0 -0.28724048014E+02  0.14048748341E+02  0.10946102988E+02  0.33797269637E+02  0.00000000000E+00 0.  1.
</event>
<event>
12    1  0.8219652E-002  0.2416414E+03  0.7818608E-02  0.1119259E+00
         21   -1    0    0  503  502  0.00000000000E+00  0.00000000000E+00  0.37853324934E+02  0.37853324934E+02  0.00000000000E+00 0.  1.
         21   -1    0    0  501  503 -0.00000000000E+00 -0.00000000000E+00 -0.15248069967E+04  0.15248069967E+04  0.00000000000E+00 0.  1.
          6    2    1    2  501    0  0.91450696261E+02 -0.13560246088E+03 -0.78600149470E+03  0.82230707078E+03  0.17787442690E+03 0.  0.
         24    2    3    3    0    0  0.43616847918E+02 -0.10193817550E+03 -0.26579811872E+03  0.29880444086E+03  0.79634370182E+02 0.  0.
         -6    2    1    2    0  502 -0.91450696261E+02  0.13560246088E+03 -0.70095217712E+03  0.74035325090E+03  0.17331394714E+03 0.  0.
        -24    2    5    5    0    0 -0.94063241921E+01  0.58052694074E+02 -0.16078243113E+03  0.18849213631E+03  0.78865081415E+02 0.  0.
          5    1    3    3  501    0  0.47833848342E+02 -0.33664285382E+02 -0.52020337598E+03  0.52350262992E+03  0.47000000000E+01 0. -1.
        -13    1    4    4    0    0  0.30845417226E+02 -0.77114508274E+02 -0.25613294750E+03  0.26926227724E+03  0.00000000000E+00 0.  1.
         14    1    4    4    0    0  0.12771430693E+02 -0.24823667228E+02 -0.96651712241E+01  0.29542163620E+02  0.00000000000E+00 0. -1.
         -5    1    5    5    0  502 -0.82044372068E+02  0.77549766810E+02 -0.54016974598E+03  0.55186111459E+03  0.47000000000E+01 0.  1.
         11    1    6    6    0    0 -0.62664985944E+01 -0.19356853606E+02 -0.42143532371E+02  0.46797800235E+02  0.00000000000E+00 0. -1.
        -12    1    6    6    0    0 -0.31398255977E+01  0.77409547680E+02 -0.11863889876E+03  0.14169433608E+03  0.00000000000E+00 0.  1.
</event>
<event>
12    1  0.8219652E-002  0.2051572E+03  0.7818608E-02  0.1145994E+00
         21   -1    0    0  503  502  0.00000000000E+00  0.00000000000E+00  0.53203122205E+02  0.53203122205E+02  0.00000000000E+00 0. -1.
         21   -1    0    0  501  503 -0.00000000000E+00 -0.00000000000E+00 -0.80688106793E+03  0.80688106793E+03  0.00000000000E+00 0.  1.
          6    2    1    2  501    0  0.10598530657E+03 -0.20875659581E+02 -0.45137577071E+03  0.49474038264E+03  0.17134550317E+03 0.  0.
         24    2    3    3    0    0 -0.13176361426E+02 -0.18896276559E+01 -0.18870775965E+03  0.20564429729E+03  0.80633561642E+02 0.  0.
         -6    2    1    2    0  502 -0.10598530657E+03  0.20875659581E+02 -0.30230217502E+03  0.36534380750E+03  0.17441563658E+03 0.  0.
        -24    2    5    5    0    0 -0.49274661232E+02 -0.24247368754E+02 -0.26929788717E+03  0.28557189516E+03  0.77550165328E+02 0.  0.
          5    1    3    3  501    0  0.11916166800E+03 -0.18986031925E+02 -0.26266801106E+03  0.28909608534E+03  0.47000000000E+01 0. -1.
        -11    1    4    4    0    0 -0.20672780604E+02 -0.38783267728E+02 -0.10736325711E+03  0.11601023529E+03  0.00000000000E+00 0.  1.
         12    1    4    4    0    0  0.74964191781E+01  0.36893640072E+02 -0.81344502540E+02  0.89634062006E+02  0.00000000000E+00 0. -1.
         -5    1    5    5    0  502 -0.56710645342E+02  0.45123028334E+02 -0.33004287847E+02  0.79771912334E+02  0.47000000000E+01 0.  1.
         13    1    6    6    0    0 -0.20788402516E+02  0.10366238957E+02 -0.15688760000E+02  0.28031299999E+02  0.00000000000E+00 0. -1.
        -14    1    6    6    0    0 -0.28486258717E+02 -0.34613607711E+02 -0.25360912717E+03  0.25754059516E+03  0.00000000000E+00 0.  1.
</event>
<event>
12    1  0.8219652E-002  0.1714293E+03  0.7818608E-02  0.1177266E+00
         21   -1    0    0  501  502  0.00000000000E+00  0.00000000000E+00  0.77995298527E+02  0.77995298527E+02  0.00000000000E+00 0.  1.
         21   -1    0    0  502  503 -0.00000000000E+00 -0.00000000000E+00 -0.38824937311E+03  0.38824937311E+03  0.00000000000E+00 0.  1.
         -6    2    1    2    0  503 -0.29340146503E+01 -0.13713596498E+02 -0.20520430614E+03  0.26518884833E+03  0.16739070120E+03 0.  0.
        -24    2    3    3    0    0  0.43369870947E+02 -0.44906646733E+02 -0.12573909308E+03  0.16795785383E+03  0.92206119686E+02 0.  0.
          6    2    1    2  501    0  0.29340146503E+01  0.13713596498E+02 -0.10504976844E+03  0.20105582331E+03  0.17085467236E+03 0.  0.
         24    2    5    5    0    0 -0.43001775959E+02 -0.21050264894E+02 -0.35221374576E+02  0.11040971193E+03  0.93045649410E+02 0.  0.
          5    1    5    5  501    0  0.45935790610E+02  0.34763861392E+02 -0.69828393869E+02  0.90646111379E+02  0.47000000000E+01 0. -1.
        -11    1    6    6    0    0  0.22960215180E+02  0.16517884623E+01  0.12205532103E+02  0.26055227885E+02  0.00000000000E+00 0.  1.
         12    1    6    6    0    0 -0.65961991140E+02 -0.22702053357E+02 -0.47426906678E+02  0.84354484047E+02  0.00000000000E+00 0. -1.
         -5    1    3    3    0  503 -0.46303885598E+02  0.31193050235E+02 -0.79465213058E+02  0.97230994497E+02  0.47000000000E+01 0.  1.
         11    1    4    4    0    0  0.65358602376E+02 -0.26796064875E+02 -0.48641528541E+02  0.85765810765E+02  0.00000000000E+00 0. -1.
        -12    1    4    4    0    0 -0.21988731429E+02 -0.18110581857E+02 -0.77097564542E+02  0.82192043066E+02  0.00000000000E+00 0.  1.
</event>
<event>
12    1  0.8219652E-002  0.3182192E+03  0.7818608E-02  0.1076580E+00
         21   -1    0    0  503  502  0.00000000000E+00  0.00000000000E+00  0.35673307615E+03  0.35673307615E+03  0.00000000000E+00 0. -1.
         21   -1    0    0  501  503 -0.00000000000E+00 -0.00000000000E+00 -0.28322038621E+03  0.28322038621E+03  0.00000000000E+00 0.  1.
          6    2    1    2  501    0 -0.26635186465E+03 -0.12336918944E+02  0.28479259700E+02  0.31856352711E+03  0.17197714151E+03 0.  0.
         24    2    3    3    0    0 -0.18242675198E+03 -0.94711409803E+01 -0.47571863477E+02  0.20517260791E+03  0.80395861176E+02 0.  0.
         -6    2    1    2    0  502  0.26635186465E+03  0.12336918944E+02  0.45033430244E+02  0.32138993525E+03  0.17368927792E+03 0.  0.
        -24    2    5    5    0    0  0.11541980029E+03  0.32452320377E+02  0.81637214427E+02  0.16471497093E+03  0.78048084354E+02 0.  0.
          5    1    3    3  501    0 -0.83925112675E+02 -0.28657779635E+01  0.76051123176E+02  0.11339091920E+03  0.47000000000E+01 0. -1.
        -11    1    4    4    0    0 -0.75109905951E+02  0.25092549062E+02 -0.47661562009E+02  0.92427044113E+02  0.00000000000E+00 0.  1.
         12    1    4    4    0    0 -0.10731684603E+03 -0.34563690042E+02  0.89698532724E-01  0.11274556380E+03  0.00000000000E+00 0. -1.
         -5    1    5    5    0  502  0.15093206436E+03 -0.20115401433E+02 -0.36603784183E+02  0.15667496432E+03  0.47000000000E+01 0.  1.
         11    1    6    6    0    0  0.88074053445E+02  0.54078819519E+02  0.41039260292E+02  0.11120152201E+03  0.00000000000E+00 0. -1.
        -12    1    6    6    0    0  0.27345746848E+02 -0.21626499143E+02  0.40597954135E+02  0.53513448924E+02  0.00000000000E+00 0.  1.
</event>
<event>
12    1  0.8219652E-002  0.2353771E+03  0.7818608E-02  0.1122945E+00
         21   -1    0    0  501  502  0.00000000000E+00  0.00000000000E+00  0.84381913314E+03  0.84381913314E+03  0.00000000000E+00 0.  1.
         21   -1    0    0  502  503 -0.00000000000E+00 -0.00000000000E+00 -0.66309564672E+02  0.66309564672E+02  0.00000000000E+00 0.  1.
         -6    2    1    2    0  503 -0.15905011138E+03 -0.15777360946E+01  0.34158242974E+03  0.41471488598E+03  0.17323525382E+03 0.  0.
        -24    2    3    3    0    0 -0.15956918788E+03  0.38544152068E+02  0.21547864557E+03  0.28229778085E+03  0.79454471220E+02 0.  0.
          6    2    1    2  501    0  0.15905011138E+03  0.15777360946E+01  0.43592713872E+03  0.49541381182E+03  0.17350201004E+03 0.  0.
         24    2    5    5    0    0  0.18853640321E+03  0.61595325017E+00  0.36484581978E+03  0.41830991870E+03  0.79525851998E+02 0.  0.
          5    1    5    5  501    0 -0.29486291832E+02  0.96178284443E+00  0.71081318947E+02  0.77103893128E+02  0.47000000000E+01 0. -1.
        -11    1    6    6    0    0  0.77450068717E+02 -0.23212707929E+02  0.21890296286E+03  0.23335777275E+03  0.00000000000E+00 0.  1.
         12    1    6    6    0    0  0.11108633450E+03  0.23828661179E+02  0.14594285692E+03  0.18495214595E+03  0.00000000000E+00 0. -1.
         -5    1    3    3    0  503  0.51907649761E+00 -0.40121888163E+02  0.12610378417E+03  0.13241710513E+03  0.47000000000E+01 0.  1.
         13    1    4    4    0    0 -0.50755150668E+01 -0.41748843170E+01  0.55308217795E+02  0.55697302160E+02  0.00000000000E+00 0. -1.
        -14    1    4    4    0    0 -0.15449367281E+03  0.42719036385E+02  0.16017042777E+03  0.22660047869E+03  0.00000000000E+00 0.  1.
</event>
<event>
12    1  0.8219652E-002  0.1759080E+03  0.7818608E-02  0.1171839E+00
         21   -1    0    0  501  502  0.00000000000E+00  0.00000000000E+00  0.21753947069E+04  0.21753947069E+04  0.00000000000E+00 0.  1.
         21   -1    0    0  502  503 -0.00000000000E+00 -0.00000000000E+00 -0.33967522119E+02  0.33967522119E+02  0.00000000000E+00 0.  1.
         -6    2    1    2    0  503 -0.33395058480E+02  0.82762751261E+01  0.22832105572E+03  0.28818584934E+03  0.17244376653E+03 0.  0.
        -24    2    3    3    0    0 -0.83641378358E+02  0.22087575440E+02  0.19180679734E+03  0.22438282635E+03  0.77936282265E+02 0.  0.
          6    2    1    2  501    0  0.33395058480E+02 -0.82762751261E+01  0.19131061291E+04  0.19211763797E+04  0.17251056237E+03 0.  0.
         24    2    5    5    0    0  0.63830984944E+02 -0.29782419793E+01  0.66526820198E+03  0.67294723523E+03  0.78695211311E+02 0.  0.
          5    1    5    5  501    0 -0.30435926465E+02 -0.52980331468E+01  0.12478379271E+04  0.12482291445E+04  0.47000000000E+01 0. -1.
        -13    1    6    6    0    0 -0.77864651434E+01  0.43509028228E+01  0.32613832973E+03  0.32626027879E+03  0.00000000000E+00 0.  1.
         14    1    6    6    0    0  0.71617450088E+02 -0.73291448021E+01  0.33912987224E+03  0.34668695645E+03  0.00000000000E+00 0. -1.
         -5    1    3    3    0  503  0.50246319878E+02 -0.13811300314E+02  0.36514258387E+02  0.63803022995E+02  0.47000000000E+01 0.  1.
         13    1    4    4    0    0 -0.84820525118E+02 -0.87535788395E+01  0.14775341066E+03  0.17059371907E+03  0.00000000000E+00 0. -1.
        -14    1    4    4    0    0  0.11791467599E+01  0.30841154279E+02  0.44053386671E+02  0.53789107276E+02  0.00000000000E+00 0.  1.
</event>
<event>
12    1  0.8219652E-002  0.2384579E+03  0.7818608E-02  0.1120832E+00
         21   -1    0    0  503  502  0.00000000000E+00  0.00000000000E+00  0.14885081274E+03  0.14885081274E+03  0.00000000000E+00 0.  1.
         21   -1    0    0  501  503 -0.00000000000E+00 -0.00000000000E+00 -0.91798597729E+03  0.91798597729E+03  0.00000000000E+00 0. -1.
          6    2    1    2  501    0  0.18719215801E+02 -0.16465687792E+03 -0.79216971750E+03  0.82726890710E+03  0.17140212032E+03 0.  0.
         24    2    3    3    0    0  0.47836939619E+02 -0.32168137779E+02 -0.42025339080E+03  0.43135862413E+03  0.78321058764E+02 0.  0.
         -6    2    1    2    0  502 -0.18719215801E+02  0.16465687792E+03  0.23034552945E+02  0.23956788292E+03  0.17146394202E+03 0.  0.
        -24    2    5    5    0    0  0.37468450343E+02  0.48993248844E+02 -0.15774040823E+02  0.10516800990E+03  0.83709418465E+02 0.  0.
          5    1    3    3  501    0 -0.29117723818E+02 -0.13248874014E+03 -0.37191632669E+03  0.39591028297E+03  0.47000000000E+01 0. -1.
        -11    1    4    4    0    0  0.45712594801E+02 -0.47210261839E+02 -0.40320006383E+03  0.40852018508E+03  0.00000000000E+00 0.  1.
         12    1    4    4    0    0  0.21243448182E+01  0.15042124061E+02 -0.17053326976E+02  0.22838439047E+02  0.00000000000E+00 0. -1.
         -5    1    5    5    0  502 -0.56187666144E+02  0.11566362908E+03  0.38808593768E+02  0.13439987302E+03  0.47000000000E+01 0.  1.
         11    1    6    6    0    0  0.40054801070E+02  0.51349881091E+02 -0.42791429556E+02  0.77924988420E+02  0.00000000000E+00 0. -1.
        -12    1    6    6    0    0 -0.25863507276E+01 -0.23566322469E+01  0.27017388732E+02  0.27243021484E+02  0.00000000000E+00 0.  1.
</event>
<event>
12    1  0.8219652E-002  0.2288313E+03  0.7818608E-02  0.1127475E+00
         21   -1    0    0  501  502  0.00000000000E+00  0.00000000000E+00  0.29279402654E+03  0.29279402654E+03  0.00000000000E+00 0. -1.
         21   -1    0    0  502  503 -0.00000000000E+00 -0.00000000000E+00 -0.17899227895E+03  0.17899227895E+03  0.00000000000E+00 0. -1.
         -6    2    1    2    0  503 -0.95576425615E+02  0.11699859369E+03  0.49158960026E+02  0.23405203665E+03  0.17187271003E+03 0.  0.
        -24    2    3    3    0    0 -0.87502970858E+02  0.15171277418E+03  0.46238479159E+02  0.19798440286E+03  0.79914273205E+02 0.  0.
          6    2    1    2  501    0  0.95576425615E+02 -0.11699859369E+03  0.64642787567E+02  0.23773426883E+03  0.17180037408E+03 0.  0.
         24    2    5    5    0    0  0.11881305636E+03 -0.10278468354E+03  0.92144219693E+02  0.19874202577E+03  0.79539939987E+02 0.  0.
          5    1    5    5  501    0 -0.23236630742E+02 -0.14213910152E+02 -0.27501432126E+02  0.38992243062E+02  0.47000000000E+01 0. -1.
        -13    1    6    6    0    0 -0.74658395976E+01  0.91945539824E+00  0.17595012214E+02  0.19135532758E+02  0.00000000000E+00 0.  1.
         14    1    6    6    0    0  0.12627889595E+03 -0.10370413893E+03  0.74549207479E+02  0.17960649301E+03  0.00000000000E+00 0. -1.
         -5    1    3    3    0  503 -0.80734547578E+01 -0.34714180494E+02  0.29204808665E+01  0.36067633795E+02  0.47000000000E+01 0.  1.
         13    1    4    4    0    0 -0.33504525894E+02  0.30367269674E+02 -0.20142642608E+02  0.49502023939E+02  0.00000000000E+00 0. -1.
        -14    1    4    4    0    0 -0.53998444964E+02  0.12134550451E+03  0.66381121768E+02  0.14848237892E+03  0.00000000000E+00 0.  1.
</event>
<event>
12    1  0.8219652E-002  0.1993856E+03  0.7818608E-02  0.1150301E+00
         21   -1    0    0  501  502  0.00000000000E+00  0.00000000000E+00  0.13267086792E+03  0.13267086792E+03  0.00000000000E+00 0.  1.
         21   -1    0    0  502  503 -0.00000000000E+00 -0.00000000000E+00 -0.31307215986E+03  0.31307215986E+03  0.00000000000E+00 0.  1.
         -6    2    1    2    0  503  0.10016718745E+03 -0.26512694869E+01 -0.43494231584E+02  0.20387906166E+03  0.17214653331E+03 0.  0.
        -24    2    3    3    0    0  0.20108654857E+02  0.49587309658E+02 -0.66843272041E+02  0.10536253775E+03  0.61400179686E+02 0.  0.
          6    2    1    2  501    0 -0.10016718745E+03  0.26512694869E+01 -0.13690706036E+03  0.24186396613E+03  0.17237789957E+03 0.  0.
         24    2    5    5    0    0 -0.26561067577E+02 -0.66059070860E+02 -0.59133521418E+02  0.11454631176E+03  0.67489206757E+02 0.  0.
          5    1    5    5  501    0 -0.73606119877E+02  0.68710340347E+02 -0.77773538941E+02  0.12731765437E+03  0.47000000000E+01 0. -1.
        -13    1    6    6    0    0 -0.47585407097E+02 -0.34387028968E+02 -0.26367059734E+02  0.64358842196E+02  0.00000000000E+00 0.  1.
         14    1    6    6    0    0  0.21024339520E+02 -0.31672041892E+02 -0.32766461684E+02  0.50187469563E+02  0.00000000000E+00 0. -1.
         -5    1    3    3    0  503  0.80058532597E+02 -0.52238579145E+02  0.23349040458E+02  0.98516523908E+02  0.47000000000E+01 0.  1.
         13    1    4    4    0    0 -0.67537570178E+01 -0.11137173742E+02 -0.32562991198E+01  0.13425846595E+02  0.00000000000E+00 0. -1.
        -14    1    4    4    0    0  0.26862411875E+02  0.60724483400E+02 -0.63586972921E+02  0.91936691159E+02  0.00000000000E+00 0.  1.
</event>
<event>
12    1  0.8219652E-002  0.2153690E+03  0.7818608E-02  0.1137742E+00
         21   -1    0    0  503  502  0.00000000000E+00  0.00000000000E+00  0.26972580700E+03  0.26972580700E+03  0.00000000000E+00 0.  1.
         21   -1    0    0  501  503 -0.00000000000E+00 -0.00000000000E+00 -0.49347908678E+03  0.49347908678E+03  0.00000000000E+00 0. -1.
          6    2    1    2  501    0 -0.67526758379E+02  0.10607665280E+03 -0.42043543960E+03  0.47154127809E+03  0.17254882992E+03 0.  0.
         24    2    3    3    0    0 -0.91018040769E+02  0.18946558958E+02 -0.21799759808E+03  0.24985081082E+03  0.79115226440E+02 0.  0.
         -6    2    1    2    0  502  0.67526758379E+02 -0.10607665280E+03  0.19668215982E+03  0.29166361569E+03  0.17484757178E+03 0.  0.
        -24    2    5    5    0    0 -0.18805043613E+02 -0.72463730589E+01  0.93507143377E+02  0.12466727367E+03  0.79951258117E+02 0.  0.
          5    1    3    3  501    0  0.23491282390E+02  0.87130093846E+02 -0.20243784152E+03  0.22169046727E+03  0.47000000000E+01 0. -1.
        -13    1    4    4    0    0 -0.11426500522E+02 -0.25179697569E+02 -0.79113040515E+02  0.83806057439E+02  0.00000000000E+00 0.  1.
         14    1    4    4    0    0 -0.79591540246E+02  0.44126256527E+02 -0.13888455756E+03  0.16604475338E+03  0.00000000000E+00 0. -1.
         -5    1    5    5    0  502  0.86331801991E+02 -0.98830279745E+02  0.10317501645E+03  0.16699634202E+03  0.47000000000E+01 0.  1.
         13    1    6    6    0    0 -0.24738449267E+02 -0.41151528074E+02  0.53224645496E+02  0.71681950470E+02  0.00000000000E+00 0. -1.
        -14    1    6    6    0    0  0.59334056541E+01  0.33905155015E+02  0.40282497880E+02  0.52985323201E+02  0.00000000000E+00 0.  1.
</event>
<event>
12    1  0.8219652E-002  0.2274393E+03  0.7818608E-02  0.1128535E+00
         21   -1    0    0  503  502  0.00000000000E+00  0.00000000000E+00  0.13001424549E+03  0.13001424549E+03  0.00000000000E+00 0. -1.
         21   -1    0    0  501  503 -0.00000000000E+00 -0.00000000000E+00 -0.72467359885E+03  0.72467359885E+03  0.00000000000E+00 0. -1.
          6    2    1    2  501    0 -0.14119004519E+03 -0.44600387435E+02 -0.58481390750E+03  0.62748380418E+03  0.17264065192E+03 0.  0.
         24    2    3    3    0    0 -0.17018730946E+03 -0.28744679981E+02 -0.51557223636E+03  0.55061545039E+03  0.87021068524E+02 0.  0.
         -6    2    1    2    0  502  0.14119004519E+03  0.44600387435E+02 -0.98454458598E+01  0.22720404016E+03  0.17204917797E+03 0.  0.
        -24    2    5    5    0    0  0.74694423278E+02 -0.21472432983E+02  0.44482519514E+02  0.11875634238E+03  0.78000333760E+02 0.  0.
          5    1    3    3  501    0  0.28997264275E+02 -0.15855707454E+02 -0.69241671132E+02  0.76868353797E+02  0.47000000000E+01 0. -1.
        -11    1    4    4    0    0 -0.50832666712E+02 -0.21868046880E+02 -0.29088585811E+03  0.29610260709E+03  0.00000000000E+00 0.  1.
         12    1    4    4    0    0 -0.11935464275E+03 -0.68766331011E+01 -0.22468637826E+03  0.25451284330E+03  0.00000000000E+00 0. -1.
         -5    1    5    5    0  502  0.66495621907E+02  0.66072820418E+02 -0.54327965373E+02  0.10844769777E+03  0.47000000000E+01 0.  1.
         11    1    6    6    0    0  0.27326854195E+02  0.28265483150E+02  0.27574812433E+02  0.48021503293E+02  0.00000000000E+00 0. -1.
        -12    1    6    6    0    0  0.47367569084E+02 -0.49737916133E+02  0.16907707081E+02  0.70734839089E+02  0.00000000000E+00 0.  1.
</event>
<event>
12    1  0.8219652E-002  0.2092728E+03  0.7818608E-02  0.1143381E+00
         21   -1    0    0  503  502  0.00000000000E+00  0.00000000000E+00  0.10957103671E+03  0.10957103671E+03  0.00000000000E+00 0. -1.
         21   -1    0    0  501  503 -0.00000000000E+00 -0.00000000000E+00 -0.80537223163E+03  0.80537223163E+03  0.00000000000E+00 0.  1.
          6    2    1    2  501    0 -0.58783292326E+02 -0.98697561355E+02 -0.67468804843E+03  0.70460817496E+03  0.16754710817E+03 0.  0.
         24    2    3    3    0    0  0.28784937958E+02 -0.26066886971E+02 -0.25853034373E+03  0.27315396535E+03  0.79164985344E+02 0.  0.
         -6    2    1    2    0  502  0.58783292326E+02  0.98697561355E+02 -0.21113146501E+02  0.21033509338E+03  0.17492399057E+03 0.  0.
        -24    2    5    5    0    0  0.73159694020E+02  0.66929993246E+02  0.46033380120E+02  0.13452872592E+03  0.78402431012E+02 0.  0.
          5    1    3    3  501    0 -0.87568230284E+02 -0.72630674384E+02 -0.41615770469E+03  0.43145420961E+03  0.47000000000E+01 0. -1.
        -11    1    4    4    0    0 -0.21028676686E+01  0.24838830671E+02 -0.11668280367E+03  0.11931582558E+03  0.00000000000E+00 0.  1.
         12    1    4    4    0    0  0.30887805627E+02 -0.50905717642E+02 -0.14184754006E+03  0.15383813977E+03  0.00000000000E+00 0. -1.
         -5    1    5    5    0  502 -0.14376401694E+02  0.31767568110E+02 -0.67146526621E+02  0.75806367454E+02  0.47000000000E+01 0.  1.
         11    1    6    6    0    0  0.45656726298E+02  0.15352663215E+02  0.57450663860E+02  0.74972126167E+02  0.00000000000E+00 0. -1.
        -12    1    6    6    0    0  0.27502967722E+02  0.51577330031E+02 -0.11417283740E+02  0.59556599757E+02  0.00000000000E+00 0.  1.
</event>
<event>
12    1  0.8219652E-002  0.2135520E+03  0.7818608E-02  0.1139877E+00
         21   -1    0    0  503  502  0.00000000000E+00  0.00000000000E+00  0.14611833444E+03  0.14611833444E+03  0.00000000000E+00 0.  1.
         21   -1    0    0  501  503 -0.00000000000E+00 -0.00000000000E+00 -0.32744026499E+03  0.32744026499E+03  0.00000000000E+00 0.  1.
          6    2    1    2  501    0 -0.10321092436E+03  0.72363445562E+02 -0.15286437189E+03  0.25811881272E+03  0.16543531100E+03 0.  0.
         24    2    3    3    0    0 -0.13247011786E+03  0.43000505224E+02 -0.14127817224E+03  0.21482201501E+03  0.82411167969E+02 0.  0.
         -6    2    1    2    0  502  0.10321092436E+03 -0.72363445562E+02 -0.28457558661E+02  0.21543978670E+03  0.17238186067E+03 0.  0.
        -24    2    5    5    0    0  0.88458807003E+02  0.15775523336E+02 -0.35982024093E+02  0.12563549736E+03  0.80098342465E+02 0.  0.
          5    1    3    3  501    0  0.29259193499E+02  0.29362940338E+02 -0.11586199648E+02  0.43296797708E+02  0.47000000000E+01 0. -1.
        -13    1    4    4    0    0 -0.11821002377E+03  0.79243005417E+01 -0.80577300019E+02  0.14327981553E+03  0.00000000000E+00 0.  1.
         14    1    4    4    0    0 -0.14260094088E+02  0.35076204683E+02 -0.60700872221E+02  0.71542199482E+02  0.00000000000E+00 0. -1.
         -5    1    5    5    0  502  0.14752117359E+02 -0.88138968898E+02  0.75244654321E+01  0.89804289347E+02  0.47000000000E+01 0.  1.
         13    1    6    6    0    0 -0.10398811986E+02 -0.29767659510E+01 -0.21380846538E+02  0.23961156585E+02  0.00000000000E+00 0. -1.
        -14    1    6    6    0    0  0.98857618988E+02  0.18752289287E+02 -0.14601177555E+02  0.10167434077E+03  0.00000000000E+00 0.  1.
</event>
<event>
12    1  0.8219652E-002  0.1943914E+03  0.7818608E-02  0.1155385E+00
         21   -1    0    0  503  502  0.00000000000E+00  0.00000000000E+00  0.30768025524E+02  0.30768025524E+02  0.00000000000E+00 0. -1.
         21   -1    0    0  501  503 -0.00000000000E+00 -0.00000000000E+00 -0.14538750490E+04  0.14538750490E+04  0.00000000000E+00 0. -1.
          6    2    1    2  501    0  0.78634459464E+02  0.44362750742E+02 -0.39851282557E+03  0.44177141433E+03  0.16792283498E+03 0.  0.
         24    2    3    3    0    0  0.25417510284E+02 -0.35218680296E+02 -0.24483383146E+03  0.26065109223E+03  0.78159974307E+02 0.  0.
         -6    2    1    2    0  502 -0.78634459464E+02 -0.44362750742E+02 -0.10245941980E+04  0.10428716602E+04  0.17215283148E+03 0.  0.
        -24    2    5    5    0    0 -0.48541631950E+02 -0.87232263213E+02 -0.65581422768E+03  0.67036108342E+03  0.96570819413E+02 0.  0.
          5    1    3    3  501    0  0.53216949179E+02  0.79581431039E+02 -0.15367899411E+03  0.18112032210E+03  0.47000000000E+01 0. -1.
        -13    1    4    4    0    0 -0.13681377179E+02 -0.16612801103E+02 -0.13734818251E+02  0.25530579202E+02  0.00000000000E+00 0.  1.
         14    1    4    4    0    0  0.39098887464E+02 -0.18605879193E+02 -0.23109901321E+03  0.23512051303E+03  0.00000000000E+00 0. -1.
         -5    1    5    5    0  502 -0.30092827514E+02  0.42869512471E+02 -0.36877997027E+03  0.37251057682E+03  0.47000000000E+01 0.  1.
         11    1    6    6    0    0 -0.54774041353E+02 -0.38629464877E+01 -0.23603629999E+03  0.24233912782E+03  0.00000000000E+00 0. -1.
        -12    1    6    6    0    0  0.62324094036E+01 -0.83369316725E+02 -0.41977792770E+03  0.42802195560E+03  0.00000000000E+00 0.  1.
</event>
<event>
12    1  0.8219652E-002  0.1898640E+03  0.7818608E-02  0.1159084E+00
         21   -1    0    0  503  502  0.00000000000E+00  0.00000000000E+00  0.16788107483E+03  0.16788107483E+03  0.00000000000E+00 0.  1.
         21   -1    0    0  501  503 -0.00000000000E+00 -0.00000000000E+00 -0.46735184449E+03  0.46735184449E+03  0.00000000000E+00 0.  1.
          6    2    1    2  501    0 -0.21878452685E+02 -0.71319639608E+02 -0.38479234261E+03  0.42908446069E+03  0.17459430055E+03 0.  0.
         24    2    3    3    0    0 -0.29330715339E+02 -0.56226610892E+02 -0.94650059359E+02  0.13841631612E+03  0.78604835708E+02 0.  0.
         -6    2    1    2    0  502  0.21878452685E+02  0.71319639608E+02  0.85321572960E+02  0.20614845863E+03  0.17219831154E+03 0.  0.
        -24    2    5    5    0    0  0.21188759828E+02  0.25697923082E+02 -0.21659096259E+02  0.89749273578E+02  0.80476511252E+02 0.  0.
          5    1    3    3  501    0  0.74522626541E+01 -0.15093028716E+02 -0.29014228325E+03  0.29066814457E+03  0.47000000000E+01 0. -1.
        -13    1    4    4    0    0 -0.36584879487E+02 -0.42044770895E+02 -0.10537966585E+03  0.11921027700E+03  0.00000000000E+00 0.  1.
         14    1    4    4    0    0  0.72541641475E+01 -0.14181839996E+02  0.10729606495E+02  0.19206039120E+02  0.00000000000E+00 0. -1.
         -5    1    5    5    0  502  0.68969285689E+00  0.45621716525E+02  0.10698066922E+03  0.11639918506E+03  0.47000000000E+01 0.  1.
         11    1    6    6    0    0  0.38952185978E+02 -0.80636345915E+01 -0.31048973976E+02  0.50461210650E+02  0.00000000000E+00 0. -1.
        -12    1    6    6    0    0 -0.17763426150E+02  0.33761557674E+02  0.93898777167E+01  0.39288062929E+02  0.00000000000E+00 0.  1.
</event>
<event>
12    1  0.8219652E-002  0.2047536E+03  0.7818608E-02  0.1146147E+00
         21   -1    0    0  503  502  0.00000000000E+00  0.00000000000E+00  0.62634001543E+02  0.62634001543E+02  0.00000000000E+00 0. -1.
         21   -1    0    0  501  503 -0.00000000000E+00 -0.00000000000E+00 -0.90100917443E+03  0.90100917443E+03  0.00000000000E+00 0. -1.
          6    2    1    2  501    0  0.82330012751E+02  0.74047809551E+02 -0.66779795422E+03  0.69848273792E+03  0.17222868057E+03 0.  0.
         24    2    3    3    0    0 -0.13647548293E+02  0.69568274037E+02 -0.30670005066E+03  0.32479096063E+03  0.79989041131E+02 0.  0.
         -6    2    1    2    0  502 -0.82330012751E+02 -0.74047809551E+02 -0.17057721866E+03  0.26516043805E+03  0.17015334637E+03 0.  0.
        -24    2    5    5    0    0 -0.11215005887E+03 -0.65956713862E+02 -0.87459854753E+02  0.17636129862E+03  0.80784637474E+02 0.  0.
          5    1    3    3  501    0  0.95977561044E+02  0.44795355137E+01 -0.36109790356E+03  0.37369177729E+03  0.47000000000E+01 0. -1.
        -11    1    4    4    0    0  0.16826628370E+02  0.42671439602E+02 -0.64168497636E+02  0.78877013564E+02  0.00000000000E+00 0.  1.
         12    1    4    4    0    0 -0.30474176663E+02  0.26896834435E+02 -0.24253155303E+03  0.24591394706E+03  0.00000000000E+00 0. -1.
         -5    1    5    5    0  502  0.29820046114E+02 -0.80910956885E+01 -0.83117363909E+02  0.88799139426E+02  0.47000000000E+01 0.  1.
         13    1    6    6    0    0 -0.67091461491E+02  0.68098268329E+01 -0.35036536511E+02  0.75994715850E+02  0.00000000000E+00 0. -1.
        -14    1    6    6    0    0 -0.45058597374E+02 -0.72766540695E+02 -0.52423318243E+02  0.10036658277E+03  0.00000000000E+00 0.  1.
</event>
<event>
12    1  0.8219652E-002  0.1861822E+03  0.7818608E-02  0.1162485E+00
         21   -1    0    0  503  502  0.00000000000E+00  0.00000000000E+00  0.23122274827E+03  0.23122274827E+03  0.00000000000E+00 0. -1.
         21   -1    0    0  501  503 -0.00000000000E+00 -0.00000000000E+00 -0.38292285812E+03  0.38292285812E+03  0.00000000000E+00 0. -1.
          6    2    1    2  501    0 -0.37958153955E+02  0.51809049444E+02 -0.31651098192E+03  0.36720976289E+03  0.17475356716E+03 0.  0.
         24    2    3    3    0    0 -0.78390676633E+02  0.44746411607E+02 -0.29960130886E+03  0.32257013043E+03  0.78378601948E+02 0.  0.
         -6    2    1    2    0  502  0.37958153955E+02 -0.51809049444E+02  0.16481087207E+03  0.24693584350E+03  0.17230695922E+03 0.  0.
        -24    2    5    5    0    0  0.75311423420E+02 -0.20009932423E+02  0.49733755065E+02  0.12175084663E+03  0.79231397615E+02 0.  0.
          5    1    3    3  501    0  0.40432522678E+02  0.70626378368E+01 -0.16909673061E+02  0.44639632462E+02  0.47000000000E+01 0. -1.
        -13    1    4    4    0    0  0.10767362099E+02 -0.54529390156E+01 -0.10860730386E+02  0.16236566601E+02  0.00000000000E+00 0.  1.
         14    1    4    4    0    0 -0.89158038732E+02  0.50199350622E+02 -0.28874057847E+03  0.30633356383E+03  0.00000000000E+00 0. -1.
         -5    1    5    5    0  502 -0.37353269465E+02 -0.31799117021E+02  0.11507711701E+03  0.12518499687E+03  0.47000000000E+01 0.  1.
         13    1    6    6    0    0  0.17450047059E+02 -0.44142650706E+02  0.29443010775E+02  0.55856679433E+02  0.00000000000E+00 0. -1.
        -14    1    6    6    0    0  0.57861376361E+02  0.24132718284E+02  0.20290744290E+02  0.65894167193E+02  0.00000000000E+00 0.  1.
</event>
<event>
12    1  0.8219652E-002  0.1891282E+03  0.7818608E-02  0.1159377E+00
         21   -1    0    0  501  502  0.00000000000E+00  0.00000000000E+00  0.31157314370E+02  0.31157314370E+02  0.00000000000E+00 0. -1.
         21   -1    0    0  502  503 -0.00000000000E+00 -0.00000000000E+00 -0.12535441939E+04  0.12535441939E+04  0.00000000000E+00 0. -1.
         -6    2    1    2    0  503 -0.77413713458E+02  0.14806700275E+02 -0.79970696861E+03  0.82163801694E+03  0.17130579041E+03 0.  0.
        -24    2    3    3    0    0 -0.10052794952E+02  0.63064522354E+02 -0.35996454824E+03  0.37413181921E+03  0.79510687881E+02 0.  0.
          6    2    1    2  501    0  0.77413713458E+02 -0.14806700275E+02 -0.42267991092E+03  0.46306349134E+03  0.17192256544E+03 0.  0.
         24    2    5    5    0    0 -0.23939096067E+02 -0.15196628866E+02 -0.11740712804E+03  0.14137092691E+03  0.73466233124E+02 0.  0.
          5    1    5    5  501    0  0.10135280952E+03  0.38992859050E+00 -0.30527278288E+03  0.32169256443E+03  0.47000000000E+01 0. -1.
        -11    1    6    6    0    0 -0.67253969482E+01 -0.41461970554E+02 -0.40714214131E+02  0.58497634128E+02  0.00000000000E+00 0.  1.
         12    1    6    6    0    0 -0.17213699119E+02  0.26265341688E+02 -0.76692913913E+02  0.82873292778E+02  0.00000000000E+00 0. -1.
         -5    1    3    3    0  503 -0.67360918506E+02 -0.48257822079E+02 -0.43974242037E+03  0.44750619773E+03  0.47000000000E+01 0.  1.
         11    1    4    4    0    0 -0.19704161474E+02  0.87143374389E+01 -0.25157163040E+03  0.25249253232E+03  0.00000000000E+00 0. -1.
        -12    1    4    4    0    0  0.96513665217E+01  0.54350184915E+02 -0.10839291785E+03  0.12163928689E+03  0.00000000000E+00 0.  1.
</event>
<event>
12    1  0.8219652E-002  0.3181021E+03  0.7818608E-02  0.1076616E+00
         21   -1    0    0  501  502  0.00000000000E+00  0.00000000000E+00  0.16711121336E+03  0.16711121336E+03  0.00000000000E+00 0.  1.
         21   -1    0    0  502  503 -0.00000000000E+00 -0.00000000000E+00 -0.70394166312E+03  0.70394166312E+03  0.00000000000E+00 0. -1.
         -6    2    1    2    0  503  0.17861294880E+03  0.19832995515E+03 -0.43276014781E+03  0.53709432896E+03  0.17306535204E+03 0.  0.
        -24    2    3    3    0    0  0.18477186473E+03  0.13299235796E+03 -0.27269224246E+03  0.36403145548E+03  0.79562756445E+02 0.  0.
          6    2    1    2  501    0 -0.17861294880E+03 -0.19832995515E+03 -0.10407030195E+03  0.33395854752E+03  0.17164010932E+03 0.  0.
         24    2    5    5    0    0 -0.14624680998E+03 -0.77220308223E+02 -0.10003757668E+03  0.20844573386E+03  0.78044870327E+02 0.  0.
          5    1    5    5  501    0 -0.32366138822E+02 -0.12110964693E+03 -0.40327252678E+01  0.12551281366E+03  0.47000000000E+01 0. -1.
        -13    1    6    6    0    0 -0.14381301176E+03 -0.85634105263E+02 -0.77859717731E+02  0.18460096961E+03  0.00000000000E+00 0.  1.
         14    1    6    6    0    0 -0.24337982182E+01  0.84137970403E+01 -0.22177858950E+02  0.23844764247E+02  0.00000000000E+00 0. -1.
         -5    1    3    3    0  503 -0.61589159261E+01  0.65337597192E+02 -0.16006790535E+03  0.17306287348E+03  0.47000000000E+01 0.  1.
         11    1    4    4    0    0  0.15517842358E+03  0.10204202817E+03 -0.16611342157E+03  0.24917180315E+03  0.00000000000E+00 0. -1.
        -12    1    4    4    0    0  0.29593441150E+02  0.30950329792E+02 -0.10657882089E+03  0.11485965234E+03  0.00000000000E+00 0.  1.
</event>
<event>
12    1  0.8219652E-002  0.2059209E+03  0.7818608E-02  0.1144841E+00
         21   -1    0    0  501  502  0.00000000000E+00  0.00000000000E+00  0.17166030269E+04  0.17166030269E+04  0.00000000000E+00 0. -1.
         21   -1    0    0  502  503 -0.00000000000E+00 -0.00000000000E+00 -0.24735138038E+02  0.24735138038E+02  0.00000000000E+00 0. -1.
         -6    2    1    2    0  503 -0.88828075079E+02 -0.72007522765E+02  0.87868330429E+03  0.90248622022E+03  0.17123527146E+03 0.  0.
        -24    2    3    3    0    0 -0.12670631030E+03 -0.49551876307E+02  0.63413680634E+03  0.65396238551E+03  0.83829797724E+02 0.  0.
          6    2    1    2  501    0  0.88828075079E+02  0.72007522765E+02  0.81318458458E+03  0.83885194473E+03  0.17125392351E+03 0.  0.
         24    2    5    5    0    0 -0.11458434084E+02  0.10443958129E+02  0.43512553636E+03  0.44287443230E+03  0.81013322456E+02 0.  0.
          5    1    5    5  501    0  0.10028650916E+03  0.61563564637E+02  0.37805904822E+03  0.39597751243E+03  0.47000000000E+01 0. -1.
        -13    1    6    6    0    0 -0.11691551743E+02  0.45405110340E+02  0.27591660496E+03  0.27987191592E+03  0.00000000000E+00 0.  1.
         14    1    6    6    0    0  0.23311765934E+00 -0.34961152211E+02  0.15920893140E+03  0.16300251638E+03  0.00000000000E+00 0. -1.
         -5    1    3    3    0  503  0.37878235219E+02 -0.22455646458E+02  0.24454649795E+03  0.24852383472E+03  0.47000000000E+01 0.  1.
         11    1    4    4    0    0 -0.47196817305E+01  0.47348200899E+01  0.19171736154E+03  0.19183388813E+03  0.00000000000E+00 0. -1.
        -12    1    4    4    0    0 -0.12198662857E+03 -0.54286696397E+02  0.44241944480E+03  0.46212849738E+03  0.00000000000E+00 0.  1.
</event>
<event>
12    1  0.8219652E-002  0.1842017E+03  0.7818608E-02  0.1165495E+00
         21   -1    0    0  503  502  0.00000000000E+00  0.00000000000E+00  0.63033909695E+02  0.63033909695E+02  0.00000000000E+00 0.  1.
         21   -1    0    0  501  503 -0.00000000000E+00 -0.00000000000E+00 -0.84684836882E+03  0.84684836882E+03  0.00000000000E+00 0.  1.
          6    2    1    2  501    0  0.64431820860E+02 -0.15635416413E+02 -0.67076560831E+03  0.69375662197E+03  0.16424318388E+03 0.  0.
         24    2    3    3    0    0  0.77547613614E+02  0.23248038009E+02 -0.59512171755E+03  0.60757057172E+03  0.91749862552E+02 0.  0.
         -6    2    1    2    0  502 -0.64431820860E+02  0.15635416413E+02 -0.11304885082E+03  0.21612565655E+03  0.17185555261E+03 0.  0.
        -24    2    5    5    0    0 -0.41121675198E+02  0.59121381623E+02 -0.12522537359E+03  0.16508890736E+03  0.79916351310E+02 0.  0.
          5    1    3    3  501    0 -0.13115792754E+02 -0.38883454422E+02 -0.75643890756E+02  0.86186050241E+02  0.47000000000E+01 0. -1.
        -11    1    4    4    0    0  0.55324363197E+02  0.15920890462E+02 -0.13384702858E+03  0.14570273496E+03  0.00000000000E+00 0.  1.
         12    1    4    4    0    0  0.22223250417E+02  0.73271475466E+01 -0.46127468897E+03  0.46186783676E+03  0.00000000000E+00 0. -1.
         -5    1    5    5    0  502 -0.23310145662E+02 -0.43485965209E+02  0.12176522771E+02  0.51036749189E+02  0.47000000000E+01 0.  1.
         13    1    6    6    0    0  0.16545380761E+02  0.43968030089E+02 -0.44308380554E+02  0.64576852523E+02  0.00000000000E+00 0. -1.
        -14    1    6    6    0    0 -0.57667055959E+02  0.15153351534E+02 -0.80916993035E+02  0.10051205484E+03  0.00000000000E+00 0.  1.
</event>
<event>
12    1  0.8219652E-002  0.2404631E+03  0.7818608E-02  0.1119661E+00
         21   -1    0    0  501  502  0.00000000000E+00  0.00000000000E+00  0.32655940988E+03  0.32655940988E+03  0.00000000000E+00 0.  1.
         21   -1    0    0  502  503 -0.00000000000E+00 -0.00000000000E+00 -0.17710387865E+03  0.17710387865E+03  0.00000000000E+00 0. -1.
         -6    2    1    2    0  503  0.16202561729E+03 -0.43379123488E+02  0.57442204354E+02  0.24619684144E+03  0.17081928721E+03 0.  0.
        -24    2    3    3    0    0  0.11410270939E+03  0.28582019807E+02 -0.10390857630E+00  0.14223215341E+03  0.79960080779E+02 0.  0.
          6    2    1    2  501    0 -0.16202561729E+03  0.43379123488E+02  0.92013326879E+02  0.25746644708E+03  0.17230342434E+03 0.  0.
         24    2    5    5    0    0 -0.18670377257E+03  0.52482445756E+02  0.95133303457E+02  0.23056466130E+03  0.80604043382E+02 0.  0.
          5    1    5    5  501    0  0.24678155284E+02 -0.91033222682E+01 -0.31199765781E+01  0.26901785784E+02  0.47000000000E+01 0. -1.
        -13    1    6    6    0    0 -0.39386715261E+02 -0.88352311899E+01  0.50930215842E+02  0.64986625816E+02  0.00000000000E+00 0.  1.
         14    1    6    6    0    0 -0.14731705731E+03  0.61317676946E+02  0.44203087615E+02  0.16557803548E+03  0.00000000000E+00 0. -1.
         -5    1    3    3    0  503  0.47922907893E+02 -0.71961143295E+02  0.57546112931E+02  0.10396468804E+03  0.47000000000E+01 0.  1.
         11    1    4    4    0    0  0.89001672184E+02 -0.15265389917E+02  0.95136054994E+01  0.90801092892E+02  0.00000000000E+00 0. -1.
        -12    1    4    4    0    0  0.25101037210E+02  0.43847409724E+02 -0.96175140757E+01  0.51431060513E+02  0.00000000000E+00 0.  1.
</event>
<event>
12    1  0.8219652E-002  0.1891930E+03  0.7818608E-02  0.1160814E+00
         21   -1    0    0  501  502  0.00000000000E+00  0.00000000000E+00  0.15404046283E+03  0.15404046283E+03  0.00000000000E+00 0. -1.
         21   -1    0    0  502  503 -0.00000000000E+00 -0.00000000000E+00 -0.22938479311E+03  0.22938479311E+03  0.00000000000E+00 0. -1.
         -6    2    1    2    0  503 -0.42691028091E+02  0.14260805216E+02 -0.66795915972E+02  0.19403923650E+03  0.17653225333E+03 0.  0.
        -24    2    3    3    0    0 -0.26955084353E+02 -0.45274126737E+02  0.92721298726E+01  0.96057270574E+02  0.79779093210E+02 0.  0.
          6    2    1    2  501    0  0.42691028091E+02 -0.14260805216E+02 -0.85484143144E+01  0.18938601944E+03  0.18376097117E+03 0.  0.
         24    2    5    5    0    0  0.78299622076E+02  0.33420126380E+02  0.24674020912E+02  0.12106864679E+03  0.82468625930E+02 0.  0.
          5    1    5    5  501    0 -0.35608593985E+02 -0.47680931596E+02 -0.33222435227E+02  0.68317372650E+02  0.47000000000E+01 0. -1.
        -11    1    6    6    0    0  0.77848091957E+02  0.13443176909E+02 -0.11411332039E+02  0.79820191215E+02  0.00000000000E+00 0.  1.
         12    1    6    6    0    0  0.45153011938E+00  0.19976949470E+02  0.36085352951E+02  0.41248455574E+02  0.00000000000E+00 0. -1.
         -5    1    3    3    0  503 -0.15735943738E+02  0.59534931953E+02 -0.76068045845E+02  0.97981965926E+02  0.47000000000E+01 0.  1.
         13    1    4    4    0    0 -0.25004212875E+02 -0.12793254012E+02 -0.32598371579E+02  0.43029429921E+02  0.00000000000E+00 0. -1.
        -14    1    4    4    0    0 -0.19508714781E+01 -0.32480872725E+02  0.41870501452E+02  0.53027840653E+02  0.00000000000E+00 0.  1.
</event>
<event>
12    1  0.8219652E-002  0.2107926E+03  0.7818608E-02  0.1141261E+00
         21   -1    0    0  501  502  0.00000000000E+00  0.00000000000E+00  0.82541103304E+02  0.82541103304E+02  0.00000000000E+00 0. -1.
         21   -1    0    0  502  503 -0.00000000000E+00 -0.00000000000E+00 -0.54156630992E+03  0.54156630992E+03  0.00000000000E+00 0.  1.
         -6    2    1    2    0  503 -0.85777748474E+02  0.81181658404E+02 -0.26682843740E+03  0.34004551872E+03  0.17460027492E+03 0.  0.
        -24    2    3    3    0    0  0.16828425910E+00  0.90761146920E+02 -0.13199031452E+03  0.17978979644E+03  0.81641372274E+02 0.  0.
          6    2    1    2  501    0  0.85777748474E+02 -0.81181658404E+02 -0.19219676922E+03  0.28406189451E+03  0.17263625928E+03 0.  0.
         24    2    5    5    0    0 -0.17624007304E+02 -0.66989872936E+02 -0.76903725357E+02  0.12847299440E+03  0.76110962464E+02 0.  0.
          5    1    5    5  501    0  0.10340175578E+03 -0.14191785468E+02 -0.11529304386E+03  0.15558890010E+03  0.47000000000E+01 0. -1.
        -11    1    6    6    0    0  0.69023404460E+01  0.15411976168E+02 -0.14160862535E+02  0.22038632916E+02  0.00000000000E+00 0.  1.
         12    1    6    6    0    0 -0.24526347750E+02 -0.82401849105E+02 -0.62742862822E+02  0.10643436149E+03  0.00000000000E+00 0. -1.
         -5    1    3    3    0  503 -0.85946032733E+02 -0.95794885155E+01 -0.13483812288E+03  0.16025572228E+03  0.47000000000E+01 0.  1.
         11    1    4    4    0    0  0.41941477556E+01  0.90243080377E+02 -0.14238737085E+03  0.16862849051E+03  0.00000000000E+00 0. -1.
        -12    1    4    4    0    0 -0.40258634965E+01  0.51806654247E+00  0.10397056331E+02  0.11161305936E+02  0.00000000000E+00 0.  1.
</event>
<event>
12    1  0.8219652E-002  0.1805709E+03  0.7818608E-02  0.1167328E+00
         21   -1    0    0  503  502  0.00000000000E+00  0.00000000000E+00  0.27198891786E+03  0.27198891786E+03  0.00000000000E+00 0. -1.
         21   -1    0    0  501  503 -0.00000000000E+00 -0.00000000000E+00 -0.19002646727E+03  0.19002646727E+03  0.00000000000E+00 0.  1.
          6    2    1    2  501    0 -0.18181756419E+02 -0.52348577373E+02 -0.99603867399E+02  0.20594473512E+03  0.17152653935E+03 0.  0.
         24    2    3    3    0    0 -0.30599382579E+02  0.20871808641E+02 -0.82056420873E+01  0.88084020892E+02  0.79495330456E+02 0.  0.
         -6    2    1    2    0  502  0.18181756419E+02  0.52348577373E+02  0.18156631799E+03  0.25607065002E+03  0.17185720862E+03 0.  0.
        -24    2    5    5    0    0  0.53061563378E+02 -0.50368130927E+01  0.15743912778E+03  0.18455914549E+03  0.80212843328E+02 0.  0.
          5    1    3    3  501    0  0.12417626159E+02 -0.73220386014E+02 -0.91398225312E+02  0.11786071422E+03  0.47000000000E+01 0. -1.
        -11    1    4    4    0    0  0.13701138767E+02  0.37780283403E+02 -0.58116115648E+01  0.40605982891E+02  0.00000000000E+00 0.  1.
         12    1    4    4    0    0 -0.44300521346E+02 -0.16908474762E+02 -0.23940305225E+01  0.47478038001E+02  0.00000000000E+00 0. -1.
         -5    1    5    5    0  502 -0.34879806959E+02  0.57385390465E+02  0.24127190211E+02  0.71511504528E+02  0.47000000000E+01 0.  1.
         13    1    6    6    0    0 -0.19071687945E+02 -0.10472939758E+02  0.55055682173E+02  0.59199154451E+02  0.00000000000E+00 0. -1.
        -14    1    6    6    0    0  0.72133251323E+02  0.54361266650E+01  0.10238344561E+03  0.12535999104E+03  0.00000000000E+00 0.  1.
</event>
<event>
12    1  0.8219652E-002  0.1841324E+03  0.7818608E-02  0.1165515E+00
         21   -1    0    0  501  502  0.00000000000E+00  0.00000000000E+00  0.48895581915E+03  0.48895581915E+03  0.00000000000E+00 0. -1.
         21   -1    0    0  502  503 -0.00000000000E+00 -0.00000000000E+00 -0.67539620638E+02  0.67539620638E+02  0.00000000000E+00 0. -1.
         -6    2    1    2    0  503  0.51917588782E+02 -0.43676084142E+02  0.23642415385E+03  0.29548434366E+03  0.16374242112E+03 0.  0.
        -24    2    3    3    0    0  0.28235584631E+02  0.19523050119E+02  0.20063269854E+03  0.21894620830E+03  0.80657080768E+02 0.  0.
          6    2    1    2  501    0 -0.51917588782E+02  0.43676084142E+02  0.18499204465E+03  0.26101109612E+03  0.17117739150E+03 0.  0.
         24    2    5    5    0    0 -0.67025162802E+02 -0.28594233934E+01  0.18410753190E+03  0.21185151295E+03  0.80529072319E+02 0.  0.
          5    1    5    5  501    0  0.15107574019E+02  0.46535507535E+02  0.88451275629E+00  0.49159583166E+02  0.47000000000E+01 0. -1.
        -11    1    6    6    0    0  0.38035036519E+01 -0.13978226538E+02  0.22731735817E+00  0.14488241107E+02  0.00000000000E+00 0.  1.
         12    1    6    6    0    0 -0.70828666454E+02  0.11118803145E+02  0.18388021454E+03  0.19736327185E+03  0.00000000000E+00 0. -1.
         -5    1    3    3    0  503  0.23682004151E+02 -0.63199134261E+02  0.35791455310E+02  0.76538135365E+02  0.47000000000E+01 0.  1.
         11    1    4    4    0    0  0.19351844972E+02 -0.12532985037E+02  0.94930851398E+01  0.24933677691E+02  0.00000000000E+00 0. -1.
        -12    1    4    4    0    0  0.88837396593E+01  0.32056035157E+02  0.19113961340E+03  0.19401253061E+03  0.00000000000E+00 0.  1.
</event>
<event>
12    1  0.8219652E-002  0.1818023E+03  0.7818608E-02  0.1166483E+00
         21   -1    0    0  501  502  0.00000000000E+00  0.00000000000E+00  0.50746921413E+03  0.50746921413E+03  0.00000000000E+00 0. -1.
         21   -1    0    0  502  503 -0.00000000000E+00 -0.00000000000E+00 -0.98775322997E+02  0.98775322997E+02  0.00000000000E+00 0. -1.
         -6    2    1    2    0  503  0.36362418843E+02  0.48322894343E+02  0.25193821874E+02  0.18183390401E+03  0.16962167422E+03 0.  0.
        -24    2    3    3    0    0  0.56951059120E+02  0.52855202399E+02 -0.48268439934E+02  0.10526218708E+03  0.52088292149E+02 0.  0.
          6    2    1    2  501    0 -0.36362418843E+02 -0.48322894343E+02  0.38350006926E+03  0.42441063312E+03  0.17144898587E+03 0.  0.
         24    2    5    5    0    0 -0.76066740502E+01 -0.81978207075E+02  0.16086763121E+03  0.19737128541E+03  0.79364611813E+02 0.  0.
          5    1    5    5  501    0 -0.28755744792E+02  0.33655312731E+02  0.22263243805E+03  0.22703934771E+03  0.47000000000E+01 0. -1.
        -11    1    6    6    0    0  0.78104559943E+00  0.77629435392E+01 -0.45209504634E+01  0.90173342909E+01  0.00000000000E+00 0.  1.
         12    1    6    6    0    0 -0.83877196496E+01 -0.89741150614E+02  0.16538858167E+03  0.18835395112E+03  0.00000000000E+00 0. -1.
         -5    1    3    3    0  503 -0.20588640277E+02 -0.45323080554E+01  0.73462261808E+02  0.76571716937E+02  0.47000000000E+01 0.  1.
         13    1    4    4    0    0  0.38358372820E+02  0.27590930710E+02  0.52731089329E+00  0.47253595415E+02  0.00000000000E+00 0. -1.
        -14    1    4    4    0    0  0.18592686300E+02  0.25264271688E+02 -0.48795750827E+02  0.58008591662E+02  0.00000000000E+00 0.  1.
</event>
<event>
12    1  0.8219652E-002  0.1990212E+03  0.7818608E-02  0.1151589E+00
         21   -1    0    0  501  502  0.00000000000E+00  0.00000000000E+00  0.35845643385E+03  0.35845643385E+03  0.00000000000E+00 0.  1.
         21   -1    0    0  502  503 -0.00000000000E+00 -0.00000000000E+00 -0.14023077525E+03  0.14023077525E+03  0.00000000000E+00 0.  1.
         -6    2    1    2    0  503 -0.89885053390E+02  0.17802716995E+00 -0.96318065740E+01  0.19925409276E+03  0.17756707822E+03 0.  0.
        -24    2    3    3    0    0  0.20168580088E+02 -0.32835225294E+02 -0.44951998836E+01  0.84144789013E+02  0.74667362704E+02 0.  0.
          6    2    1    2  501    0  0.89885053390E+02 -0.17802716995E+00  0.22785746518E+03  0.29943311634E+03  0.17222604974E+03 0.  0.
         24    2    5    5    0    0  0.11722872607E+03 -0.39189518174E+02  0.19398733799E+03  0.24079142143E+03  0.71211156317E+02 0.  0.
          5    1    5    5  501    0 -0.27343672681E+02  0.39011491004E+02  0.33870127190E+02  0.58641694910E+02  0.47000000000E+01 0. -1.
        -13    1    6    6    0    0  0.11930086061E+03 -0.20812147799E+02  0.14805005039E+03  0.19127116421E+03  0.00000000000E+00 0.  1.
         14    1    6    6    0    0 -0.20721345340E+01 -0.18377370375E+02  0.45937287605E+02  0.49520257228E+02  0.00000000000E+00 0. -1.
         -5    1    3    3    0  503 -0.11005363348E+03  0.33013252464E+02 -0.51366066904E+01  0.11510930374E+03  0.47000000000E+01 0.  1.
         13    1    4    4    0    0  0.12686648116E+02  0.23156952012E+02 -0.78753940649E+01  0.27553898065E+02  0.00000000000E+00 0. -1.
        -14    1    4    4    0    0  0.74819319719E+01 -0.55992177306E+02  0.33801941813E+01  0.56590890948E+02  0.00000000000E+00 0.  1.
</event>
<event>
12    1  0.8219652E-002  0.1962832E+03  0.7818608E-02  0.1153794E+00
         21   -1    0    0  503  502  0.00000000000E+00  0.00000000000E+00  0.46407070538E+03  0.46407070538E+03  0.00000000000E+00 0. -1.
         21   -1    0    0  501  503 -0.00000000000E+00 -0.00000000000E+00 -0.10115410686E+03  0.10115410686E+03  0.00000000000E+00 0. -1.
          6    2    1    2  501    0 -0.73545793465E+02 -0.23734547329E+02  0.54823365354E+02  0.19991874726E+03  0.17603860839E+03 0.  0.
         24    2    3    3    0    0 -0.53926540424E+02  0.51879696929E+02  0.10369461110E+02  0.10991503274E+03  0.79838674734E+02 0.  0.
         -6    2    1    2    0  502  0.73545793465E+02  0.23734547329E+02  0.30809323316E+03  0.36530606498E+03  0.18042939981E+03 0.  0.
        -24    2    5    5    0    0  0.89294919898E+02  0.59351456449E+02  0.29067789443E+03  0.32238773298E+03  0.89129310346E+02 0.  0.
          5    1    3    3  501    0 -0.19619253041E+02 -0.75614244258E+02  0.44453904244E+02  0.90003714518E+02  0.47000000000E+01 0. -1.
        -11    1    4    4    0    0  0.13378950319E+02  0.62687987013E+01  0.23299396809E+02  0.27589056534E+02  0.00000000000E+00 0.  1.
         12    1    4    4    0    0 -0.67305490743E+02  0.45610898227E+02 -0.12929935700E+02  0.82325976207E+02  0.00000000000E+00 0. -1.
         -5    1    5    5    0  502 -0.15749126434E+02 -0.35616909120E+02  0.17415338738E+02  0.42918332005E+02  0.47000000000E+01 0.  1.
         13    1    6    6    0    0 -0.17449413033E+01 -0.80219312685E+01  0.10197878439E+03  0.10230869302E+03  0.00000000000E+00 0. -1.
        -14    1    6    6    0    0  0.91039861202E+02  0.67373387718E+02  0.18869911004E+03  0.22007903996E+03  0.00000000000E+00 0.  1.
</event>
<event>
12    1  0.8219652E-002  0.1761923E+03  0.7818608E-02  0.1172464E+00
         21   -1    0    0  501  502  0.00000000000E+00  0.00000000000E+00  0.22795425022E+03  0.22795425022E+03  0.00000000000E+00 0. -1.
         21   -1    0    0  502  503 -0.00000000000E+00 -0.00000000000E+00 -0.15214644418E+03  0.15214644418E+03  0.00000000000E+00 0. -1.
         -6    2    1    2    0  503 -0.50391772703E+01  0.39641181655E+02 -0.28522746021E+02  0.17848607020E+03  0.17160103037E+03 0.  0.
        -24    2    3    3    0    0 -0.60656754597E+02  0.22882389629E+02 -0.52686813523E+02  0.11539752785E+03  0.79610573927E+02 0.  0.
          6    2    1    2  501    0  0.50391772703E+01 -0.39641181655E+02  0.10433055206E+03  0.20161462420E+03  0.16782960409E+03 0.  0.
         24    2    5    5    0    0  0.56659848475E+01  0.29890264679E+02  0.13353217099E+02  0.87011044876E+02  0.80418170936E+02 0.  0.
          5    1    5    5  501    0 -0.62680757714E+00 -0.69531446334E+02  0.90977334963E+02  0.11460357932E+03  0.47000000000E+01 0. -1.
        -11    1    6    6    0    0  0.64552693787E+01  0.18071641766E+02  0.47306709819E+02  0.51050754478E+02  0.00000000000E+00 0.  1.
         12    1    6    6    0    0 -0.78928453117E+00  0.11818622913E+02 -0.33953492720E+02  0.35960290398E+02  0.00000000000E+00 0. -1.
         -5    1    3    3    0  503  0.55617577326E+02  0.16758792026E+02  0.24164067503E+02  0.63088542352E+02  0.47000000000E+01 0.  1.
         13    1    4    4    0    0  0.47578796904E+01  0.32524926801E+02 -0.36419011071E+01  0.33072219857E+02  0.00000000000E+00 0. -1.
        -14    1    4    4    0    0 -0.65414634287E+02 -0.96425371728E+01 -0.49044912416E+02  0.82325307992E+02  0.00000000000E+00 0.  1.
</event>
<event>
12    1  0.8219652E-002  0.1857561E+03  0.7818608E-02  0.1164248E+00
         21   -1    0    0  501  502  0.00000000000E+00  0.00000000000E+00  0.59373563723E+02  0.59373563723E+02  0.00000000000E+00 0.  1.
         21   -1    0    0  502  503 -0.00000000000E+00 -0.00000000000E+00 -0.58494872481E+03  0.58494872481E+03  0.00000000000E+00 0.  1.
         -6    2    1    2    0  503  0.57006766182E+02 -0.96426648991E+01 -0.18611814237E+03  0.25736441930E+03  0.16808845595E+03 0.  0.
        -24    2    3    3    0    0  0.35923663752E+01  0.12999936426E+00 -0.18704268801E+03  0.20285251365E+03  0.78429925152E+02 0.  0.
          6    2    1    2  501    0 -0.57006766182E+02  0.96426648991E+01 -0.33945701871E+03  0.38695786923E+03  0.17652924015E+03 0.  0.
         24    2    5    5    0    0 -0.88777345087E+02 -0.33254713245E+02 -0.17532714319E+03  0.21430138724E+03  0.78728549321E+02 0.  0.
          5    1    5    5  501    0  0.31770578905E+02  0.42897378144E+02 -0.16412987552E+03  0.17265648199E+03  0.47000000000E+01 0. -1.
        -13    1    6    6    0    0  0.88531765655E+01  0.10867845920E+02 -0.35355619245E+02  0.38032993866E+02  0.00000000000E+00 0.  1.
         14    1    6    6    0    0 -0.97630521652E+02 -0.44122559165E+02 -0.13997152395E+03  0.17626839337E+03  0.00000000000E+00 0. -1.
         -5    1    3    3    0  503  0.53414399807E+02 -0.97726642634E+01  0.92454563523E+00  0.54511905655E+02  0.47000000000E+01 0.  1.
         13    1    4    4    0    0  0.24798183631E+02  0.12709528576E+02 -0.17140537791E+03  0.17365565238E+03  0.00000000000E+00 0. -1.
        -14    1    4    4    0    0 -0.21205817255E+02 -0.12579529211E+02 -0.15637310102E+02  0.29196861267E+02  0.00000000000E+00 0.  1.
</event>
<event>
12    1  0.8219652E-002  0.1944241E+03  0.7818608E-02  0.1155960E+00
         21   -1    0    0  501  502  0.00000000000E+00  0.00000000000E+00  0.37295529461E+02  0.37295529461E+02  0.00000000000E+00 0.  1.
         21   -1    0    0  502  503 -0.00000000000E+00 -0.00000000000E+00 -0.10586948488E+04  0.10586948488E+04  0.00000000000E+00 0.  1.
         -6    2    1    2    0  503  0.21859715565E+01  0.73872172066E+02 -0.36960535573E+03  0.41762287332E+03  0.17983011165E+03 0.  0.
        -24    2    3    3    0    0  0.32292527596E+02  0.10609006203E+03 -0.20684809245E+03  0.24893258344E+03  0.82966192784E+02 0.  0.
          6    2    1    2  501    0 -0.21859715565E+01 -0.73872172066E+02 -0.65179396365E+03  0.67836750498E+03  0.17287343488E+03 0.  0.
         24    2    5    5    0    0 -0.94362065023E+01 -0.53762486294E+02 -0.16588307395E+03  0.19196391937E+03  0.79708877740E+02 0.  0.
          5    1    5    5  501    0  0.72502349457E+01 -0.20109685772E+02 -0.48591088970E+03  0.48640358561E+03  0.47000000000E+01 0. -1.
        -13    1    6    6    0    0  0.29438349851E+02 -0.85549051651E+01 -0.92294197876E+02  0.97252361441E+02  0.00000000000E+00 0.  1.
         14    1    6    6    0    0 -0.38874556353E+02 -0.45207581129E+02 -0.73588876072E+02  0.94711557926E+02  0.00000000000E+00 0. -1.
         -5    1    3    3    0  503 -0.30106556039E+02 -0.32217889968E+02 -0.16275726328E+03  0.16869028988E+03  0.47000000000E+01 0.  1.
         13    1    4    4    0    0  0.30273197491E+02 -0.10598797452E+01 -0.33805824227E+02  0.45391888957E+02  0.00000000000E+00 0. -1.
        -14    1    4    4    0    0  0.20193301050E+01  0.10714994178E+03 -0.17304226823E+03  0.20354069448E+03  0.00000000000E+00 0.  1.
</event>
<event>
12    1  0.8219652E-002  0.2111433E+03  0.7818608E-02  0.1141669E+00
         21   -1    0    0  503  502  0.00000000000E+00  0.00000000000E+00  0.25483729123E+03  0.25483729123E+03  0.00000000000E+00 0. -1.
         21   -1    0    0  501  503 -0.00000000000E+00 -0.00000000000E+00 -0.20732078668E+03  0.20732078668E+03  0.00000000000E+00 0. -1.
          6    2    1    2  501    0 -0.11346429887E+03  0.44907025977E+02  0.12052298668E+03  0.23874937825E+03  0.16608638474E+03 0.  0.
         24    2    3    3    0    0 -0.60796748479E+02  0.19107007930E+02 -0.16583422776E+01  0.10314009043E+03  0.81079009479E+02 0.  0.
         -6    2    1    2    0  502  0.11346429887E+03 -0.44907025977E+02 -0.73006482121E+02  0.22340869967E+03  0.17230993168E+03 0.  0.
        -24    2    5    5    0    0  0.73545069196E+01 -0.61377996270E+02 -0.59712504324E+02  0.11510634209E+03  0.76567222878E+02 0.  0.
          5    1    3    3  501    0 -0.52667550392E+02  0.25800018047E+02  0.12218132895E+03  0.13560928781E+03  0.47000000000E+01 0. -1.
        -11    1    4    4    0    0 -0.64224828777E+01 -0.11924905121E+02 -0.31126234988E+02  0.33945458503E+02  0.00000000000E+00 0.  1.
         12    1    4    4    0    0 -0.54374265601E+02  0.31031913051E+02  0.29467892711E+02  0.69194631931E+02  0.00000000000E+00 0. -1.
         -5    1    5    5    0  502  0.10610979195E+03  0.16470970293E+02 -0.13293977797E+02  0.10830235757E+03  0.47000000000E+01 0.  1.
         11    1    6    6    0    0 -0.32162766649E+02 -0.10366756331E+02 -0.18236893160E+02  0.38399185766E+02  0.00000000000E+00 0. -1.
        -12    1    6    6    0    0  0.39517273569E+02 -0.51011239939E+02 -0.41475611164E+02  0.76707156327E+02  0.00000000000E+00 0.  1.
</event>
<event>
12    1  0.8219652E-002  0.1991757E+03  0.7818608E-02  0.1150796E+00
         21   -1    0    0  503  502  0.00000000000E+00  0.00000000000E+00  0.22134245154E+03  0.22134245154E+03  0.00000000000E+00 0.  1.
         21   -1    0    0  501  503 -0.00000000000E+00 -0.00000000000E+00 -0.18117654274E+03  0.18117654274E+03  0.00000000000E+00 0. -1.
          6    2    1    2  501    0  0.80320281041E+02  0.56769605440E+02 -0.76639861563E+01  0.19932310482E+03  0.17319592312E+03 0.  0.
         24    2    3    3    0    0  0.31466181070E+02  0.18222688917E+02  0.60726899951E+02  0.10673805657E+03  0.79894113677E+02 0.  0.
         -6    2    1    2    0  502 -0.80320281041E+02 -0.56769605440E+02  0.47829894958E+02  0.20319588946E+03  0.17125050363E+03 0.  0.
        -24    2    5    5    0    0  0.48928180211E+00 -0.78773322983E+02  0.37234576215E+02  0.11864590536E+03  0.80529257928E+02 0.  0.
          5    1    3    3  501    0  0.48854099970E+02  0.38546916523E+02 -0.68390886108E+02  0.92585048252E+02  0.47000000000E+01 0. -1.
        -11    1    4    4    0    0 -0.83802681980E+01  0.21061197152E+02  0.62771064641E+02  0.66738365852E+02  0.00000000000E+00 0.  1.
         12    1    4    4    0    0  0.39846449268E+02 -0.28385082346E+01 -0.20441646892E+01  0.39999690719E+02  0.00000000000E+00 0. -1.
         -5    1    5    5    0  502 -0.80809562843E+02  0.22003717543E+02  0.10595318744E+02  0.84549984103E+02  0.47000000000E+01 0.  1.
         13    1    6    6    0    0  0.21327271486E+01 -0.10902580671E+02 -0.24489083006E+02  0.26891076156E+02  0.00000000000E+00 0. -1.
        -14    1    6    6    0    0 -0.16434453464E+01 -0.67870742312E+02  0.61723659221E+02  0.91754829204E+02  0.00000000000E+00 0.  1.
</event>
<event>
12    1  0.8219652E-002  0.1988299E+03  0.7818608E-02  0.1150740E+00
         21   -1    0    0  501  502  0.00000000000E+00  0.00000000000E+00  0.19252021135E+03  0.19252021135E+03  0.00000000000E+00 0. -1.
         21   -1    0    0  502  503 -0.00000000000E+00 -0.00000000000E+00 -0.26080697596E+03  0.26080697596E+03  0.00000000000E+00 0. -1.
         -6    2    1    2    0  503 -0.27691379969E+02 -0.95409136387E+02  0.70424128038E+02  0.21093339074E+03  0.17223130287E+03 0.  0.
        -24    2    3    3    0    0 -0.21450791820E+02 -0.11688863460E+03  0.68201696020E+01  0.14334739136E+03  0.79867831629E+02 0.  0.
          6    2    1    2  501    0  0.27691379969E+02  0.95409136387E+02 -0.13871089265E+03  0.24239379656E+03  0.17217527419E+03 0.  0.
         24    2    5    5    0    0  0.35865077282E+02 -0.83743967219E+01 -0.89773867451E+02  0.12726450616E+03  0.82343627337E+02 0.  0.
          5    1    5    5  501    0 -0.81736973121E+01  0.10378353311E+03 -0.48937025196E+02  0.11512929040E+03  0.47000000000E+01 0. -1.
        -13    1    6    6    0    0 -0.27988180911E+01  0.21571712178E+02  0.34186285150E+01  0.22019517931E+02  0.00000000000E+00 0.  1.
         14    1    6    6    0    0  0.38663895373E+02 -0.29946108900E+02 -0.93192495966E+02  0.10524498823E+03  0.00000000000E+00 0. -1.
         -5    1    3    3    0  503 -0.62405881493E+01  0.21479498209E+02  0.63603958436E+02  0.67585999382E+02  0.47000000000E+01 0.  1.
         13    1    4    4    0    0 -0.21803997943E+02 -0.12425261986E+03  0.20501345958E+02  0.12780623246E+03  0.00000000000E+00 0. -1.
        -14    1    4    4    0    0  0.35320612326E+00  0.73639852661E+01 -0.13681176356E+02  0.15541158903E+02  0.00000000000E+00 0.  1.
</event>
<event>
12    1  0.8219652E-002  0.1815029E+03  0.7818608E-02  0.1168379E+00
         21   -1    0    0  503  502  0.00000000000E+00  0.00000000000E+00  0.66380463573E+03  0.66380463573E+03  0.00000000000E+00 0. -1.
         21   -1    0    0  501  503 -0.00000000000E+00 -0.00000000000E+00 -0.53056338912E+02  0.53056338912E+02  0.00000000000E+00 0. -1.
          6    2    1    2  501    0 -0.26827693259E+02  0.24576579763E+02  0.19470912887E+03  0.26618595487E+03  0.17781896498E+03 0.  0.
         24    2    3    3    0    0  0.42023662711E+01  0.32624902924E+02  0.21264233659E+03  0.22915448123E+03  0.78822387580E+02 0.  0.
         -6    2    1    2    0  502  0.26827693259E+02 -0.24576579763E+02  0.41603916795E+03  0.45067501977E+03  0.16939790666E+03 0.  0.
        -24    2    5    5    0    0  0.33731383191E+02  0.14382566646E+02  0.10510181549E+03  0.13719519079E+03  0.80196410901E+02 0.  0.
          5    1    3    3  501    0 -0.31030059530E+02 -0.80483231612E+01 -0.17933207728E+02  0.37031473635E+02  0.47000000000E+01 0. -1.
        -13    1    4    4    0    0  0.83637423874E+00 -0.99604155708E+01 -0.20922230321E+01  0.10212090747E+02  0.00000000000E+00 0.  1.
         14    1    4    4    0    0  0.33659920324E+01  0.42585318495E+02  0.21473455963E+03  0.21894239048E+03  0.00000000000E+00 0. -1.
         -5    1    5    5    0  502 -0.69036899315E+01 -0.38959146409E+02  0.31093735246E+03  0.31347982898E+03  0.47000000000E+01 0.  1.
         13    1    6    6    0    0  0.50195127210E+02  0.17044309219E+02  0.10796210582E+03  0.12027416832E+03  0.00000000000E+00 0. -1.
        -14    1    6    6    0    0 -0.16463744019E+02 -0.26617425729E+01 -0.28602903291E+01  0.16921022469E+02  0.00000000000E+00 0.  1.
</event>
<event>
12    1  0.8219652E-002  0.1751151E+03  0.7818608E-02  0.1172861E+00
         21   -1    0    0  501  502  0.00000000000E+00  0.00000000000E+00  0.11953907126E+04  0.11953907126E+04  0.00000000000E+00 0.  1.
         21   -1    0    0  502  503 -0.00000000000E+00 -0.00000000000E+00 -0.53907703172E+02  0.53907703172E+02  0.00000000000E+00 0.  1.
         -6    2    1    2    0  503  0.16152920700E+02 -0.22051039560E+02  0.11662830301E+03  0.20959054194E+03  0.17198508370E+03 0.  0.
        -24    2    3    3    0    0  0.30872847148E+02  0.14313170365E+02  0.12937014861E+01  0.87675849198E+02  0.80792210838E+02 0.  0.
          6    2    1    2  501    0 -0.16152920700E+02  0.22051039560E+02  0.10248547064E+04  0.10397078738E+04  0.17296857646E+03 0.  0.
         24    2    5    5    0    0 -0.35460194104E+02 -0.16748783237E+01  0.98598213660E+03  0.99002028312E+03  0.81970462418E+02 0.  0.
          5    1    5    5  501    0  0.19307273403E+02  0.23725917884E+02  0.38872569788E+02  0.49687590680E+02  0.47000000000E+01 0. -1.
        -13    1    6    6    0    0 -0.49521631134E+02 -0.19574282600E+02  0.39176848473E+03  0.39537082608E+03  0.00000000000E+00 0.  1.
         14    1    6    6    0    0  0.14061437031E+02  0.17899404277E+02  0.59421365187E+03  0.59464945704E+03  0.00000000000E+00 0. -1.
         -5    1    3    3    0  503 -0.14719926448E+02 -0.36364209925E+02  0.11533460152E+03  0.12191469274E+03  0.47000000000E+01 0.  1.
         13    1    4    4    0    0  0.28609301794E+02 -0.89048541220E+01  0.35385111864E+02  0.46366957175E+02  0.00000000000E+00 0. -1.
        -14    1    4    4    0    0  0.22635453548E+01  0.23218024487E+02 -0.34091410378E+02  0.41308892023E+02  0.00000000000E+00 0.  1.
</event>
<event>
12    1  0.8219652E-002  0.2258162E+03  0.7818608E-02  0.1130022E+00
         21   -1    0    0  503  502  0.00000000000E+00  0.00000000000E+00  0.24571283386E+03  0.24571283386E+03  0.00000000000E+00 0.  1.
         21   -1    0    0  501  503 -0.00000000000E+00 -0.00000000000E+00 -0.20919803583E+03  0.20919803583E+03  0.00000000000E+00 0. -1.
          6    2    1    2  501    0  0.12094904345E+03 -0.76197239643E+02  0.48606457101E+02  0.23098822169E+03  0.17480926877E+03 0.  0.
         24    2    3    3    0    0  0.85417968048E+02  0.21781890743E+02  0.44911845810E+02  0.12659422060E+03  0.78983180272E+02 0.  0.
         -6    2    1    2    0  502 -0.12094904345E+03  0.76197239643E+02 -0.12091659077E+02  0.22392264800E+03  0.17193153762E+03 0.  0.
        -24    2    5    5    0    0 -0.93984081982E+01  0.63645048078E+02  0.25935934580E+02  0.10530861166E+03  0.79235148547E+02 0.  0.
          5    1    3    3  501    0  0.35531075403E+02 -0.97979130386E+02  0.36946112915E+01  0.10439400109E+03  0.47000000000E+01 0. -1.
        -11    1    4    4    0    0  0.79425420763E+01 -0.22441075716E+02  0.26284217282E+02  0.35461894084E+02  0.00000000000E+00 0.  1.
         12    1    4    4    0    0  0.77475425972E+02  0.44222966459E+02  0.18627628528E+02  0.91132326517E+02  0.00000000000E+00 0. -1.
         -5    1    5    5    0  502 -0.11155063525E+03  0.12552191565E+02 -0.38027593657E+02  0.11861403634E+03  0.47000000000E+01 0.  1.
         13    1    6    6    0    0  0.12281602906E+02  0.18175976446E+02 -0.25280786810E+02  0.33471212578E+02  0.00000000000E+00 0. -1.
        -14    1    6    6    0    0 -0.21680011104E+02  0.45469071632E+02  0.51216721390E+02  0.71837399080E+02  0.00000000000E+00 0.  1.
</event>
<event>
12    1  0.8219652E-002  0.1760734E+03  0.7818608E-02  0.1171730E+00
         21   -1    0    0  501  502  0.00000000000E+00  0.00000000000E+00  0.58780670129E+03  0.58780670129E+03  0.00000000000E+00 0.  1.
         21   -1    0    0  502  503 -0.00000000000E+00 -0.00000000000E+00 -0.73815234379E+02  0.73815234379E+02  0.00000000000E+00 0.  1.
         -6    2    1    2    0  503  0.40596883886E+02 -0.60022670379E+01  0.80028674886E+02  0.19340742120E+03  0.17122414427E+03 0.  0.
        -24    2    3    3    0    0 -0.25078322385E+02 -0.35241534879E+02  0.89737632581E+01  0.92219190809E+02  0.80950371785E+02 0.  0.
          6    2    1    2  501    0 -0.40596883886E+02  0.60022670379E+01  0.43396279203E+03  0.46821451447E+03  0.17092978824E+03 0.  0.
         24    2    5    5    0    0 -0.48245512842E+00  0.47985005158E+02  0.35306432952E+03  0.36852314609E+03  0.94085572429E+02 0.  0.
          5    1    5    5  501    0 -0.40114428758E+02 -0.41982738121E+02  0.80898462502E+02  0.99691368382E+02  0.47000000000E+01 0. -1.
        -11    1    6    6    0    0 -0.70459033145E+01 -0.24753723743E+02  0.16094988185E+03  0.16299465040E+03  0.00000000000E+00 0.  1.
         12    1    6    6    0    0  0.65634481860E+01  0.72738728901E+02  0.19211444767E+03  0.20552849569E+03  0.00000000000E+00 0. -1.
         -5    1    3    3    0  503  0.65675206271E+02  0.29239267841E+02  0.71054911628E+02  0.10118823039E+03  0.47000000000E+01 0.  1.
         13    1    4    4    0    0 -0.48129324043E+01  0.17326112991E+02  0.27548055133E+02  0.32897626834E+02  0.00000000000E+00 0. -1.
        -14    1    4    4    0    0 -0.20265389981E+02 -0.52567647870E+02 -0.18574291875E+02  0.59321563974E+02  0.00000000000E+00 0.  1.
</event>
<event>
12    1  0.8219652E-002  0.2422430E+03  0.7818608E-02  0.1118392E+00
         21   -1    0    0  501  502  0.00000000000E+00  0.00000000000E+00  0.11130298013E+03  0.11130298013E+03  0.00000000000E+00 0. -1.
         21   -1    0    0  502  503 -0.00000000000E+00 -0.00000000000E+00 -0.62330889726E+03  0.62330889726E+03  0.00000000000E+00 0.  1.
         -6    2    1    2    0  503 -0.70960459129E+02 -0.15528256989E+03 -0.40127770219E+03  0.46872748217E+03  0.17185341135E+03 0.  0.
        -24    2    3    3    0    0 -0.69558178286E+02 -0.13620821516E+03 -0.18842059464E+03  0.25496117136E+03  0.78178388151E+02 0.  0.
          6    2    1    2  501    0  0.70960459129E+02  0.15528256989E+03 -0.11072821494E+03  0.26588439523E+03  0.17113068332E+03 0.  0.
         24    2    5    5    0    0  0.33100640611E+02  0.17111180541E+03 -0.12081346629E+03  0.22336695351E+03  0.70156966324E+02 0.  0.
          5    1    5    5  501    0  0.37859818519E+02 -0.15829235520E+02  0.10085251355E+02  0.42517441719E+02  0.47000000000E+01 0. -1.
        -13    1    6    6    0    0 -0.17581921010E+02  0.91717220265E+02 -0.66404432632E+02  0.11458935864E+03  0.00000000000E+00 0.  1.
         14    1    6    6    0    0  0.50682561621E+02  0.79394585145E+02 -0.54409033658E+02  0.10877759487E+03  0.00000000000E+00 0. -1.
         -5    1    3    3    0  503 -0.14022808432E+01 -0.19074354729E+02 -0.21285710755E+03  0.21376631081E+03  0.47000000000E+01 0.  1.
         13    1    4    4    0    0 -0.52124806203E+02 -0.71060185159E+02 -0.50841780603E+02  0.10174198736E+03  0.00000000000E+00 0. -1.
        -14    1    4    4    0    0 -0.17433372083E+02 -0.65148030001E+02 -0.13757881403E+03  0.15321918400E+03  0.00000000000E+00 0.  1.
</event>
<event>
12    1  0.8219652E-002  0.2524835E+03  0.7818608E-02  0.1111867E+00
         21   -1    0    0  503  502  0.00000000000E+00  0.00000000000E+00  0.11661901570E+03  0.11661901570E+03  0.00000000000E+00 0. -1.
         21   -1    0    0  501  503 -0.00000000000E+00 -0.00000000000E+00 -0.55291720938E+03  0.55291720938E+03  0.00000000000E+00 0.  1.
          6    2    1    2  501    0 -0.73632342908E+02  0.16903868589E+03 -0.25866666422E+03  0.36146419098E+03  0.17248802549E+03 0.  0.
         24    2    3    3    0    0 -0.55565182497E+02  0.11840939571E+03 -0.75397571918E+02  0.17041603606E+03  0.79047814618E+02 0.  0.
         -6    2    1    2    0  502  0.73632342908E+02 -0.16903868589E+03 -0.17763152947E+03  0.30807203409E+03  0.17134648720E+03 0.  0.
        -24    2    5    5    0    0  0.10832547209E+03 -0.16606838381E+03 -0.16700211054E+03  0.27136358201E+03  0.80220774831E+02 0.  0.
          5    1    3    3  501    0 -0.18067160411E+02  0.50629290185E+02 -0.18326909230E+03  0.19104815493E+03  0.47000000000E+01 0. -1.
        -13    1    4    4    0    0  0.14139252107E+02  0.18978133036E+02  0.57660212575E+01  0.24358468442E+02  0.00000000000E+00 0.  1.
         14    1    4    4    0    0 -0.69704434604E+02  0.99431262672E+02 -0.81163593176E+02  0.14605756761E+03  0.00000000000E+00 0. -1.
         -5    1    5    5    0  502 -0.34693129184E+02 -0.29703020815E+01 -0.10629418932E+02  0.36708452077E+02  0.47000000000E+01 0.  1.
         11    1    6    6    0    0  0.10848283151E+03 -0.10232991648E+03 -0.10454594848E+03  0.18212575843E+03  0.00000000000E+00 0. -1.
        -12    1    6    6    0    0 -0.15735941751E+00 -0.63738467330E+02 -0.62456162060E+02  0.89237823588E+02  0.00000000000E+00 0.  1.
</event>
<event>
12    1  0.8219652E-002  0.2654164E+03  0.7818608E-02  0.1104070E+00
         21   -1    0    0  501  502  0.00000000000E+00  0.00000000000E+00  0.73457025468E+02  0.73457025468E+02  0.00000000000E+00 0.  1.
         21   -1    0    0  502  503 -0.00000000000E+00 -0.00000000000E+00 -0.13718549816E+04  0.13718549816E+04  0.00000000000E+00 0.  1.
         -6    2    1    2    0  503 -0.50652951247E+02  0.19556998861E+03 -0.10480627006E+04  0.10811481462E+04  0.17214106943E+03 0.  0.
        -24    2    3    3    0    0  0.10007402842E+02  0.12853233676E+03 -0.40954828488E+03  0.43624778617E+03  0.77211550838E+02 0.  0.
          6    2    1    2  501    0  0.50652951247E+02 -0.19556998861E+03 -0.25033525557E+03  0.36416386087E+03  0.17068753754E+03 0.  0.
         24    2    5    5    0    0 -0.24182027072E+02 -0.84892731155E+02 -0.17107601508E+03  0.20874878278E+03  0.80731066739E+02 0.  0.
          5    1    5    5  501    0  0.74834978319E+02 -0.11067725746E+03 -0.79259240483E+02  0.15541507810E+03  0.47000000000E+01 0. -1.
        -11    1    6    6    0    0  0.10175419863E+02 -0.42379738389E+02 -0.19744143157E+02  0.47847806473E+02  0.00000000000E+00 0.  1.
         12    1    6    6    0    0 -0.34357446935E+02 -0.42512992766E+02 -0.15133187193E+03  0.16090097630E+03  0.00000000000E+00 0. -1.
         -5    1    3    3    0  503 -0.60660354089E+02  0.67037651857E+02 -0.63851441568E+03  0.64490036002E+03  0.47000000000E+01 0.  1.
         13    1    4    4    0    0 -0.11790306168E+02  0.45034246744E+02 -0.58572957503E+02  0.74819021980E+02  0.00000000000E+00 0. -1.
        -14    1    4    4    0    0  0.21797709010E+02  0.83498090014E+02 -0.35097532738E+03  0.36142876419E+03  0.00000000000E+00 0.  1.
</event>
<event>
12    1  0.8219652E-002  0.1802102E+03  0.7818608E-02  0.1167763E+00
         21   -1    0    0  503  502  0.00000000000E+00  0.00000000000E+00  0.12024120561E+03  0.12024120561E+03  0.00000000000E+00 0.  1.
         21   -1    0    0  501  503 -0.00000000000E+00 -0.00000000000E+00 -0.28393070300E+03  0.28393070300E+03  0.00000000000E+00 0.  1.
          6    2    1    2  501    0  0.37864292481E+02  0.31345586529E+02 -0.12820563589E+03  0.22116148273E+03  0.17337665913E+03 0.  0.
         24    2    3    3    0    0  0.55004064271E+02  0.20084732048E+02 -0.81850723860E+01  0.99310736796E+02  0.79792126712E+02 0.  0.
         -6    2    1    2    0  502 -0.37864292481E+02 -0.31345586529E+02 -0.35483861496E+02  0.18301042587E+03  0.17267733236E+03 0.  0.
        -24    2    5    5    0    0 -0.26398697221E+02  0.17920023380E+01  0.48126621970E+02  0.92222967397E+02  0.74086446033E+02 0.  0.
          5    1    3    3  501    0 -0.17139771790E+02  0.11260854481E+02 -0.12002056351E+03  0.12185074594E+03  0.47000000000E+01 0. -1.
        -11    1    4    4    0    0  0.35572848703E+02  0.51049372689E+02 -0.21411528160E+01  0.62257935657E+02  0.00000000000E+00 0.  1.
         12    1    4    4    0    0  0.19431215568E+02 -0.30964640642E+02 -0.60439195701E+01  0.37052801140E+02  0.00000000000E+00 0. -1.
         -5    1    5    5    0  502 -0.11465595260E+02 -0.33137588867E+02 -0.83610483467E+02  0.90787458474E+02  0.47000000000E+01 0.  1.
         13    1    6    6    0    0  0.10015743955E+02  0.30590906336E+02  0.18021669751E+02  0.36890368093E+02  0.00000000000E+00 0. -1.
        -14    1    6    6    0    0 -0.36414441176E+02 -0.28798903998E+02  0.30104952219E+02  0.55332599304E+02  0.00000000000E+00 0.  1.
</event>
<event>
12    1  0.8219652E-002  0.1869375E+03  0.7818608E-02  0.1161528E+00
         21   -1    0    0  501  502  0.00000000000E+00  0.00000000000E+00  0.29809093980E+03  0.29809093980E+03  0.00000000000E+00 0. -1.
         21   -1    0    0  502  503 -0.00000000000E+00 -0.00000000000E+00 -0.12386001652E+03  0.12386001652E+03  0.00000000000E+00 0. -1.
         -6    2    1    2    0  503 -0.51570589615E+02  0.52992289101E+02  0.35373346920E+02  0.18908388592E+03  0.17039288080E+03 0.  0.
        -24    2    3    3    0    0 -0.15016796552E+02  0.86261573216E+02 -0.14117110471E+02  0.11898095856E+03  0.79313381586E+02 0.  0.
          6    2    1    2  501    0  0.51570589615E+02 -0.52992289101E+02  0.13885757636E+03  0.23286707039E+03  0.17169140207E+03 0.  0.
         24    2    5    5    0    0  0.20227442164E+02 -0.96515089043E+02  0.12348315961E+03  0.17687519869E+03  0.79450823619E+02 0.  0.
          5    1    5    5  501    0  0.31343147451E+02  0.43522799942E+02  0.15374416753E+02  0.55991871708E+02  0.47000000000E+01 0. -1.
        -13    1    6    6    0    0  0.20613173540E+02 -0.68184410276E+01  0.68053205490E+02  0.71432715467E+02  0.00000000000E+00 0.  1.
         14    1    6    6    0    0 -0.38573137624E+00 -0.89696648015E+02  0.55429954118E+02  0.10544248322E+03  0.00000000000E+00 0. -1.
         -5    1    3    3    0  503 -0.36553793063E+02 -0.33269284115E+02  0.49490457391E+02  0.70102927368E+02  0.47000000000E+01 0.  1.
         11    1    4    4    0    0 -0.40508457082E+00  0.26334980484E+02 -0.43348632530E+02  0.50722768387E+02  0.00000000000E+00 0. -1.
        -12    1    4    4    0    0 -0.14611711981E+02  0.59926592731E+02  0.29231522058E+02  0.68258190170E+02  0.00000000000E+00 0.  1.
</event>
<event>
12    1  0.8219652E-002  0.1783532E+03  0.7818608E-02  0.1169430E+00
         21   -1    0    0  503  502  0.00000000000E+00  0.00000000000E+00  0.56752152711E+03  0.56752152711E+03  0.00000000000E+00 0. -1.
         21   -1    0    0  501  503 -0.00000000000E+00 -0.00000000000E+00 -0.59052055321E+02  0.59052055321E+02  0.00000000000E+00 0. -1.
          6    2    1    2  501    0 -0.13010431396E+02  0.45570461760E+02  0.18317614429E+03  0.25559431764E+03  0.17184009156E+03 0.  0.
         24    2    3    3    0    0  0.18877276656E+02 -0.35066805355E+02  0.10849560011E+03  0.14105843483E+03  0.80871220983E+02 0.  0.
         -6    2    1    2    0  502  0.13010431396E+02 -0.45570461760E+02  0.32529332751E+03  0.37097926479E+03  0.17194164031E+03 0.  0.
        -24    2    5    5    0    0 -0.29864090562E+02 -0.53334752921E+02  0.31001741907E+03  0.32456857390E+03  0.74145122979E+02 0.  0.
          5    1    3    3  501    0 -0.31887708052E+02  0.80637267114E+02  0.74680544181E+02  0.11453588281E+03  0.47000000000E+01 0. -1.
        -13    1    4    4    0    0  0.22039350630E+02  0.10671538431E+02  0.87077106780E+02  0.90454614221E+02  0.00000000000E+00 0.  1.
         14    1    4    4    0    0 -0.31620739741E+01 -0.45738343786E+02  0.21418493325E+02  0.50603820611E+02  0.00000000000E+00 0. -1.
         -5    1    5    5    0  502  0.42874521957E+02  0.77642911618E+01  0.15275908433E+02  0.46410690889E+02  0.47000000000E+01 0.  1.
         13    1    6    6    0    0 -0.49891871442E+02 -0.13980221991E+02  0.15918204639E+03  0.16740241736E+03  0.00000000000E+00 0. -1.
        -14    1    6    6    0    0  0.20027780880E+02 -0.39354530930E+02  0.15083537268E+03  0.15716615654E+03  0.00000000000E+00 0.  1.
</event>
<event>
12    1  0.8219652E-002  0.2213174E+03  0.7818608E-02  0.1132987E+00
         21   -1    0    0  503  502  0.00000000000E+00  0.00000000000E+00  0.14940891555E+04  0.14940891555E+04  0.00000000000E+00 0. -1.
         21   -1    0    0  501  503 -0.00000000000E+00 -0.00000000000E+00 -0.38900220989E+02  0.38900220989E+02  0.00000000000E+00 0.  1.
          6    2    1    2  501    0  0.25879205999E+02  0.13578419976E+03  0.42263160422E+03  0.47707324632E+03  0.17284191407E+03 0.  0.
         24    2    3    3    0    0  0.53929795279E+02  0.15263985026E+03  0.39387599008E+03  0.43325631058E+03  0.79783384212E+02 0.  0.
         -6    2    1    2    0  502 -0.25879205999E+02 -0.13578419976E+03  0.10325573303E+04  0.10559161302E+04  0.17227057615E+03 0.  0.
        -24    2    5    5    0    0  0.35648116158E+02 -0.81835829544E+02  0.40167571381E+03  0.41973239725E+03  0.82849351550E+02 0.  0.
          5    1    3    3  501    0 -0.28050589280E+02 -0.16855650492E+02  0.28755614140E+02  0.43816935732E+02  0.47000000000E+01 0. -1.
        -13    1    4    4    0    0  0.95189888023E+01  0.12982386750E+03  0.27176465166E+03  0.30133183306E+03  0.00000000000E+00 0.  1.
         14    1    4    4    0    0  0.44410806477E+02  0.22815982754E+02  0.12211133841E+03  0.13192447753E+03  0.00000000000E+00 0. -1.
         -5    1    5    5    0  502 -0.61527322157E+02 -0.53948370221E+02  0.63088161648E+03  0.63618373292E+03  0.47000000000E+01 0.  1.
         11    1    6    6    0    0  0.12382900666E+02 -0.61882049719E+02  0.37114064816E+03  0.37646793360E+03  0.00000000000E+00 0. -1.
        -12    1    6    6    0    0  0.23265215492E+02 -0.19953779825E+02  0.30535065649E+02  0.43264463656E+02  0.00000000000E+00 0.  1.
</event>
<event>
12    1  0.8219652E-002  0.2209756E+03  0.7818608E-02  0.1133231E+00
         21   -1    0    0  503  502  0.00000000000E+00  0.00000000000E+00  0.87488097245E+02  0.87488097245E+02  0.00000000000E+00 0.  1.
         21   -1    0    0  501  503 -0.00000000000E+00 -0.00000000000E+00 -0.14988161215E+04  0.14988161215E+04  0.00000000000E+00 0. -1.
          6    2    1    2  501    0  0.96069493902E+01  0.13861724768E+03 -0.13345838095E+04  0.13527542905E+04  0.17182313846E+03 0.  0.
         24    2    3    3    0    0  0.27828621799E+02  0.44368090777E+02 -0.31017643736E+03  0.32384832438E+03  0.76976329068E+02 0.  0.
         -6    2    1    2    0  502 -0.96069493902E+01 -0.13861724768E+03 -0.76744214696E+02  0.23354992824E+03  0.17131508883E+03 0.  0.
        -24    2    5    5    0    0 -0.35285597293E+02 -0.64739939838E+02 -0.10416051269E+03  0.15053792328E+03  0.79849362900E+02 0.  0.
          5    1    3    3  501    0 -0.18221672409E+02  0.94249156903E+02 -0.10244073721E+04  0.10289059661E+04  0.47000000000E+01 0. -1.
        -13    1    4    4    0    0  0.47875783548E+02  0.42090550256E+02 -0.28247157661E+03  0.28957537302E+03  0.00000000000E+00 0.  1.
         14    1    4    4    0    0 -0.20047161749E+02  0.22775405214E+01 -0.27704860758E+02  0.34272951356E+02  0.00000000000E+00 0. -1.
         -5    1    5    5    0  502  0.25678647903E+02 -0.73877307842E+02  0.27416297990E+02  0.83012004960E+02  0.47000000000E+01 0.  1.
         13    1    6    6    0    0 -0.14700682174E+02 -0.84110937739E+01  0.11348914748E+02  0.20387604587E+02  0.00000000000E+00 0. -1.
        -14    1    6    6    0    0 -0.20584915120E+02 -0.56328846064E+02 -0.11550942743E+03  0.13015031869E+03  0.00000000000E+00 0.  1.
</event>
<event>
12    1  0.8219652E-002  0.2046005E+03  0.7818608E-02  0.1146168E+00
         21   -1    0    0  503  502  0.00000000000E+00  0.00000000000E+00  0.12318743488E+04  0.12318743488E+04  0.00000000000E+00 0.  1.
         21   -1    0    0  501  503 -0.00000000000E+00 -0.00000000000E+00 -0.39440673282E+02  0.39440673282E+02  0.00000000000E+00 0.  1.
          6    2    1    2  501    0  0.16538961002E+02 -0.10829869019E+03  0.35380072143E+03  0.40808468524E+03  0.17133597498E+03 0.  0.
         24    2    3    3    0    0 -0.35590947321E+02 -0.11681522426E+03  0.21536826300E+03  0.25984267284E+03  0.78881010226E+02 0.  0.
         -6    2    1    2    0  502 -0.16538961002E+02  0.10829869019E+03  0.83863295404E+03  0.86323033679E+03  0.17279826161E+03 0.  0.
        -24    2    5    5    0    0  0.93100262544E+01  0.22419284909E+02  0.63913002622E+03  0.64444516681E+03  0.78949868156E+02 0.  0.
          5    1    3    3  501    0  0.52129908324E+02  0.85165340705E+01  0.13843245843E+03  0.14824201240E+03  0.47000000000E+01 0. -1.
        -11    1    4    4    0    0 -0.42947260317E+02 -0.29943191863E+02  0.11831473963E+03  0.12938098593E+03  0.00000000000E+00 0.  1.
         12    1    4    4    0    0  0.73563129959E+01 -0.86872032393E+02  0.97053523370E+02  0.13046168691E+03  0.00000000000E+00 0. -1.
         -5    1    5    5    0  502 -0.25848987257E+02  0.85879405277E+02  0.19950292782E+03  0.21878516998E+03  0.47000000000E+01 0.  1.
         11    1    6    6    0    0  0.20617321234E+02 -0.19921651922E+02  0.41990545209E+03  0.42088304177E+03  0.00000000000E+00 0. -1.
        -12    1    6    6    0    0 -0.11307294979E+02  0.42340936831E+02  0.21922457413E+03  0.22356212504E+03  0.00000000000E+00 0.  1.
</event>
<event>
12    1  0.8219652E-002  0.1946276E+03  0.7818608E-02  0.1154659E+00
         21   -1    0    0  503  502  0.00000000000E+00  0.00000000000E+00  0.57766424517E+03  0.57766424517E+03  0.00000000000E+00 0.  1.
         21   -1    0    0  501  503 -0.00000000000E+00 -0.00000000000E+00 -0.73997297648E+02  0.73997297648E+02  0.00000000000E+00 0.  1.
          6    2    1    2  501    0  0.70538857661E+02 -0.53540876817E+02  0.36558674721E+03  0.41416609878E+03  0.17331339161E+03 0.  0.
         24    2    3    3    0    0  0.69357035083E+02 -0.18375939952E+02  0.36254712645E+03  0.37853887908E+03  0.81873015057E+02 0.  0.
         -6    2    1    2    0  502 -0.70538857661E+02  0.53540876817E+02  0.13808020030E+03  0.23749544403E+03  0.17174279691E+03 0.  0.
        -24    2    5    5    0    0  0.72296150688E+01 -0.18232733499E+02  0.86472735182E+02  0.11966163333E+03  0.80353423424E+02 0.  0.
          5    1    3    3  501    0  0.11818225782E+01 -0.35164936865E+02  0.30396207648E+01  0.35627219703E+02  0.47000000000E+01 0. -1.
        -13    1    4    4    0    0 -0.16122320933E+02  0.23539626488E+01  0.10803532818E+03  0.10925704786E+03  0.00000000000E+00 0.  1.
         14    1    4    4    0    0  0.85479356016E+02 -0.20729902600E+02  0.25451179827E+03  0.26928183122E+03  0.00000000000E+00 0. -1.
         -5    1    5    5    0  502 -0.77768472730E+02  0.71773610315E+02  0.51607465122E+02  0.11783381070E+03  0.47000000000E+01 0.  1.
         13    1    6    6    0    0 -0.66389632486E+00 -0.33744045846E+02  0.24324629124E+01  0.33838118509E+02  0.00000000000E+00 0. -1.
        -14    1    6    6    0    0  0.78935113937E+01  0.15511312347E+02  0.84040272269E+02  0.85823514819E+02  0.00000000000E+00 0.  1.
</event>
<event>
12    1  0.8219652E-002  0.2052732E+03  0.7818608E-02  0.1148655E+00
         21   -1    0    0  503  502  0.00000000000E+00  0.00000000000E+00  0.14022713480E+03  0.14022713480E+03  0.00000000000E+00 0.  1.
         21   -1    0    0  501  503 -0.00000000000E+00 -0.00000000000E+00 -0.30393803980E+03  0.30393803980E+03  0.00000000000E+00 0.  1.
          6    2    1    2  501    0 -0.46810482434E+02  0.65260893443E+02 -0.14928891821E+03  0.25381937271E+03  0.18890973342E+03 0.  0.
         24    2    3    3    0    0 -0.95429720655E+01  0.59814584871E+02 -0.17896072307E+03  0.20564224526E+03  0.81196919612E+02 0.  0.
         -6    2    1    2    0  502  0.46810482434E+02 -0.65260893443E+02 -0.14421986787E+02  0.19034580189E+03  0.17196896556E+03 0.  0.
        -24    2    5    5    0    0  0.93544999348E+02 -0.41230736325E+02 -0.33502517912E+02  0.13424125492E+03  0.80297293206E+02 0.  0.
          5    1    3    3  501    0 -0.37267510368E+02  0.54463085719E+01  0.29671804852E+02  0.48177127449E+02  0.47000000000E+01 0. -1.
        -13    1    4    4    0    0  0.37484428767E+01  0.74176771734E+02 -0.16683748421E+03  0.18262253538E+03  0.00000000000E+00 0.  1.
         14    1    4    4    0    0 -0.13291414942E+02 -0.14362186863E+02 -0.12123238855E+02  0.23019709881E+02  0.00000000000E+00 0. -1.
         -5    1    5    5    0  502 -0.46734516914E+02 -0.24030157118E+02  0.19080531125E+02  0.56104546967E+02  0.47000000000E+01 0.  1.
         11    1    6    6    0    0  0.63109894259E+02  0.12717755487E+02 -0.32897471020E+02  0.72296913195E+02  0.00000000000E+00 0. -1.
        -12    1    6    6    0    0  0.30435105089E+02 -0.53948491812E+02 -0.60504689223E+00  0.61944341729E+02  0.00000000000E+00 0.  1.
</event>
<event>
12    1  0.8219652E-002  0.1948180E+03  0.7818608E-02  0.1155013E+00
         21   -1    0    0  501  502  0.00000000000E+00  0.00000000000E+00  0.34679069688E+03  0.34679069688E+03  0.00000000000E+00 0. -1.
         21   -1    0    0  502  503 -0.00000000000E+00 -0.00000000000E+00 -0.12059229307E+03  0.12059229307E+03  0.00000000000E+00 0. -1.
         -6    2    1    2    0  503  0.50459282584E+01  0.87156890434E+02  0.18956359636E+03  0.26915036485E+03  0.16995816218E+03 0.  0.
        -24    2    3    3    0    0  0.47409810883E+02  0.93474290554E+02  0.87019151946E+02  0.15792059736E+03  0.79883972754E+02 0.  0.
          6    2    1    2  501    0 -0.50459282584E+01 -0.87156890434E+02  0.36634807456E+02  0.19823262510E+03  0.17416164788E+03 0.  0.
         24    2    5    5    0    0  0.47171930623E+02 -0.10221373191E+03  0.25420139216E+02  0.14254355934E+03  0.83663879905E+02 0.  0.
          5    1    5    5  501    0 -0.52217858882E+02  0.15056841478E+02  0.11214668240E+02  0.55689065760E+02  0.47000000000E+01 0. -1.
        -13    1    6    6    0    0  0.51942438104E+02 -0.17897651389E+02  0.17793120741E+02  0.57748921610E+02  0.00000000000E+00 0.  1.
         14    1    6    6    0    0 -0.47705074808E+01 -0.84316080524E+02  0.76270184746E+01  0.84794637727E+02  0.00000000000E+00 0. -1.
         -5    1    3    3    0  503 -0.42363882625E+02 -0.63174001195E+01  0.10254444442E+03  0.11122976749E+03  0.47000000000E+01 0.  1.
         11    1    4    4    0    0  0.68875672306E+01  0.48293316464E+02  0.84021230278E+02  0.97155803403E+02  0.00000000000E+00 0. -1.
        -12    1    4    4    0    0  0.40522243653E+02  0.45180974090E+02  0.29979216672E+01  0.60764793957E+02  0.00000000000E+00 0.  1.
</event>
<event>
12    1  0.8219652E-002  0.1978783E+03  0.7818608E-02  0.1151894E+00
         21   -1    0    0  503  502  0.00000000000E+00  0.00000000000E+00  0.80864373306E+03  0.80864373306E+03  0.00000000000E+00 0. -1.
         21   -1    0    0  501  503 -0.00000000000E+00 -0.00000000000E+00 -0.72616798013E+02  0.72616798013E+02  0.00000000000E+00 0.  1.
          6    2    1    2  501    0  0.58826755422E+02 -0.76254206220E+02  0.11056251094E+03  0.22524103071E+03  0.17098000459E+03 0.  0.
         24    2    3    3    0    0  0.14347662979E+02  0.20986522469E+02  0.25360232469E+02  0.88435814300E+02  0.80817462851E+02 0.  0.
         -6    2    1    2    0  502 -0.58826755422E+02  0.76254206220E+02  0.62546442410E+03  0.65601950036E+03  0.17285990834E+03 0.  0.
        -24    2    5    5    0    0 -0.61162482884E+02  0.39335389921E+02  0.21707801282E+03  0.24593413664E+03  0.89847725069E+02 0.  0.
          5    1    3    3  501    0  0.44479092443E+02 -0.97240728688E+02  0.85202278469E+02  0.13680521641E+03  0.47000000000E+01 0. -1.
        -11    1    4    4    0    0 -0.75308569218E+01 -0.20842407994E+02 -0.14641565196E+02  0.26561159770E+02  0.00000000000E+00 0.  1.
         12    1    4    4    0    0  0.21878519901E+02  0.41828930463E+02  0.40001797665E+02  0.61874654530E+02  0.00000000000E+00 0. -1.
         -5    1    5    5    0  502  0.23357274617E+01  0.36918816299E+02  0.40838641128E+03  0.41008536372E+03  0.47000000000E+01 0.  1.
         13    1    6    6    0    0 -0.36039468413E+02  0.16204789228E+02  0.20640817740E+03  0.21015654683E+03  0.00000000000E+00 0. -1.
        -14    1    6    6    0    0 -0.25123014471E+02  0.23130600693E+02  0.10669835421E+02  0.35777589807E+02  0.00000000000E+00 0.  1.
</event>
<event>
12    1  0.8219652E-002  0.2829893E+03  0.7818608E-02  0.1094291E+00
         21   -1    0    0  503  502  0.00000000000E+00  0.00000000000E+00  0.12399859435E+04  0.12399859435E+04  0.00000000000E+00 0. -1.
         21   -1    0    0  501  503 -0.00000000000E+00 -0.00000000000E+00 -0.64324645345E+02  0.64324645345E+02  0.00000000000E+00 0. -1.
          6    2    1    2  501    0  0.19368313504E+03 -0.11182859586E+03  0.61752752779E+03  0.67928136638E+03  0.17339012511E+03 0.  0.
         24    2    3    3    0    0  0.77142338631E+02 -0.69280912538E+02  0.16641843303E+03  0.21139936421E+03  0.79017789671E+02 0.  0.
         -6    2    1    2    0  502 -0.19368313504E+03  0.11182859586E+03  0.55813377036E+03  0.62502922246E+03  0.17067346501E+03 0.  0.
        -24    2    5    5    0    0 -0.19735957349E+03  0.13176824106E+03  0.44751718220E+03  0.51247156956E+03  0.77729084912E+02 0.  0.
          5    1    3    3  501    0  0.11654079641E+03 -0.42547683323E+02  0.45110909476E+03  0.46788200217E+03  0.47000000000E+01 0. -1.
        -11    1    4    4    0    0  0.33457007285E+02  0.67243622204E+01  0.16912948564E+02  0.38087218498E+02  0.00000000000E+00 0.  1.
         12    1    4    4    0    0  0.43685331346E+02 -0.76005274758E+02  0.14950548446E+03  0.17331214571E+03  0.00000000000E+00 0. -1.
         -5    1    5    5    0  502  0.36764384477E+01 -0.19939645196E+02  0.11061658816E+03  0.11255765290E+03  0.47000000000E+01 0.  1.
         13    1    6    6    0    0 -0.10147829994E+02  0.18203487537E+02  0.97751115030E+01  0.23019518175E+02  0.00000000000E+00 0. -1.
        -14    1    6    6    0    0 -0.18721174349E+03  0.11356475352E+03  0.43774207070E+03  0.48945205138E+03  0.00000000000E+00 0.  1.
</event>
<event>
12    1  0.8219652E-002  0.2277814E+03  0.7818608E-02  0.1128396E+00
         21   -1    0    0  501  502  0.00000000000E+00  0.00000000000E+00  0.93381145196E+03  0.93381145196E+03  0.00000000000E+00 0.  1.
         21   -1    0    0  502  503 -0.00000000000E+00 -0.00000000000E+00 -0.82200313341E+02  0.82200313341E+02  0.00000000000E+00 0.  1.
         -6    2    1    2    0  503  0.39268599595E+02 -0.14166903462E+03  0.71701271965E+03  0.75232413090E+03  0.17398913619E+03 0.  0.
        -24    2    3    3    0    0  0.28516863761E+02 -0.73980618463E+01  0.18492065315E+03  0.20342673504E+03  0.79491167617E+02 0.  0.
          6    2    1    2  501    0 -0.39268599595E+02  0.14166903462E+03  0.13459841897E+03  0.26368763440E+03  0.17263341467E+03 0.  0.
         24    2    5    5    0    0 -0.92298306451E+02  0.84319591677E+02  0.87878074965E+02  0.17255043585E+03  0.80139415630E+02 0.  0.
          5    1    5    5  501    0  0.53029706856E+02  0.57349442947E+02  0.46720344002E+02  0.91137198548E+02  0.47000000000E+01 0. -1.
        -13    1    6    6    0    0 -0.37417395735E+01 -0.87715390438E+01 -0.78286421292E+01  0.12338077233E+02  0.00000000000E+00 0.  1.
         14    1    6    6    0    0 -0.88556566878E+02  0.93091130720E+02  0.95706717094E+02  0.16021235861E+03  0.00000000000E+00 0. -1.
         -5    1    3    3    0  503  0.10751735835E+02 -0.13427097278E+03  0.53209206650E+03  0.54889739586E+03  0.47000000000E+01 0.  1.
         11    1    4    4    0    0 -0.15085301753E+02 -0.26224506970E+02  0.35514638234E+02  0.46653838252E+02  0.00000000000E+00 0. -1.
        -12    1    4    4    0    0  0.43602165514E+02  0.18826445124E+02  0.14940601492E+03  0.15677289679E+03  0.00000000000E+00 0.  1.
</event>
<event>
12    1  0.8219652E-002  0.2041257E+03  0.7818608E-02  0.1147809E+00
         21   -1    0    0  501  502  0.00000000000E+00  0.00000000000E+00  0.33363544952E+03  0.33363544952E+03  0.00000000000E+00 0.  1.
         21   -1    0    0  502  503 -0.00000000000E+00 -0.00000000000E+00 -0.18765627729E+03  0.18765627729E+03  0.00000000000E+00 0.  1.
         -6    2    1    2    0  503  0.43179209253E+02 -0.88105423463E+02 -0.82042823142E+02  0.21999619844E+03  0.17899802442E+03 0.  0.
        -24    2    3    3    0    0  0.51698491840E+02 -0.24588365530E+02 -0.11193325747E+03  0.14912643840E+03  0.80201737661E+02 0.  0.
          6    2    1    2  501    0 -0.43179209253E+02  0.88105423463E+02  0.22802199537E+03  0.30129552836E+03  0.17075700654E+03 0.  0.
         24    2    5    5    0    0 -0.52461334630E+02  0.48945557052E+01  0.60363706155E+02  0.11383460361E+03  0.80860321864E+02 0.  0.
          5    1    5    5  501    0  0.92821253768E+01  0.83210867757E+02  0.16765828922E+03  0.18746092475E+03  0.47000000000E+01 0. -1.
        -13    1    6    6    0    0 -0.65934262938E+02  0.25614922510E+02  0.37015952264E+02  0.79835029946E+02  0.00000000000E+00 0.  1.
         14    1    6    6    0    0  0.13472928309E+02 -0.20720366804E+02  0.23347753891E+02  0.33999573666E+02  0.00000000000E+00 0. -1.
         -5    1    3    3    0  503 -0.85192825872E+01 -0.63517057932E+02  0.29890434329E+02  0.70869760043E+02  0.47000000000E+01 0.  1.
         13    1    4    4    0    0 -0.93536875812E+01  0.20260938896E+02 -0.31847591904E+02  0.38887867342E+02  0.00000000000E+00 0. -1.
        -14    1    4    4    0    0  0.61052179421E+02 -0.44849304426E+02 -0.80085665567E+02  0.11023857106E+03  0.00000000000E+00 0.  1.
</event>
<event>
12    1  0.8219652E-002  0.2353721E+03  0.7818608E-02  0.1122946E+00
         21   -1    0    0  501  502  0.00000000000E+00  0.00000000000E+00  0.17691104171E+04  0.17691104171E+04  0.00000000000E+00 0.  1.
         21   -1    0    0  502  503 -0.00000000000E+00 -0.00000000000E+00 -0.72036252876E+02  0.72036252876E+02  0.00000000000E+00 0.  1.
         -6    2    1    2    0  503  0.34662204651E+02  0.15713759203E+03  0.15633651795E+03  0.28256171766E+03  0.17177405562E+03 0.  0.
        -24    2    3    3    0    0 -0.32475062001E+02  0.13486815749E+03  0.13226600464E+03  0.20769637255E+03  0.79996485103E+02 0.  0.
          6    2    1    2  501    0 -0.34662204651E+02 -0.15713759203E+03  0.15407376463E+04  0.15585849523E+04  0.17152512256E+03 0.  0.
         24    2    5    5    0    0 -0.17056355284E+02 -0.65775171622E+01  0.56429850029E+03  0.57043830435E+03  0.81442486755E+02 0.  0.
          5    1    5    5  501    0 -0.17605849367E+02 -0.15056007487E+03  0.97643914597E+03  0.98814664795E+03  0.47000000000E+01 0. -1.
        -11    1    6    6    0    0  0.17553330148E+01 -0.42260862990E+02  0.32889563967E+03  0.33160428756E+03  0.00000000000E+00 0.  1.
         12    1    6    6    0    0 -0.18811688299E+02  0.35683345828E+02  0.23540286062E+03  0.23883401679E+03  0.00000000000E+00 0. -1.
         -5    1    3    3    0  503  0.67137266651E+02  0.22269434538E+02  0.24070513313E+02  0.74865345115E+02  0.47000000000E+01 0.  1.
         13    1    4    4    0    0 -0.13410013189E+02  0.12509126986E+02 -0.84995874149E+01  0.20212612347E+02  0.00000000000E+00 0. -1.
        -14    1    4    4    0    0 -0.19065048812E+02  0.12235903051E+03  0.14076559205E+03  0.18748376020E+03  0.00000000000E+00 0.  1.
</event>
<event>
12    1  0.8219652E-002  0.1758704E+03  0.7818608E-02  0.1171930E+00
         21   -1    0    0  501  502  0.00000000000E+00  0.00000000000E+00  0.47020632781E+03  0.47020632781E+03  0.00000000000E+00 0.  1.
         21   -1    0    0  502  503 -0.00000000000E+00 -0.00000000000E+00 -0.67563165845E+02  0.67563165845E+02  0.00000000000E+00 0.  1.
         -6    2    1    2    0  503 -0.12971385559E+02 -0.32679866795E+02  0.15654200809E+03  0.23544804347E+03  0.17231990697E+03 0.  0.
        -24    2    3    3    0    0  0.45214114122E+02 -0.55367094883E+02  0.11534991701E+03  0.16048711325E+03  0.85677761715E+02 0.  0.
          6    2    1    2  501    0  0.12971385559E+02  0.32679866795E+02  0.24610115388E+03  0.30232145019E+03  0.17203560902E+03 0.  0.
         24    2    5    5    0    0  0.20362048704E+02  0.12271343215E+02  0.26190996222E+03  0.27506088971E+03  0.80600656600E+02 0.  0.
          5    1    5    5  501    0 -0.73906631450E+01  0.20408523580E+02 -0.15808808347E+02  0.27260560482E+02  0.47000000000E+01 0. -1.
        -11    1    6    6    0    0  0.40453007652E+02  0.22081242599E+02  0.23761754049E+03  0.24204570364E+03  0.00000000000E+00 0.  1.
         12    1    6    6    0    0 -0.20090958948E+02 -0.98098993842E+01  0.24292421730E+02  0.33015186065E+02  0.00000000000E+00 0. -1.
         -5    1    3    3    0  503 -0.58185499681E+02  0.22687228088E+02  0.41192091079E+02  0.74960930217E+02  0.47000000000E+01 0.  1.
         11    1    4    4    0    0  0.45856024551E+02  0.81736605665E+01  0.36236686205E+02  0.59014245245E+02  0.00000000000E+00 0. -1.
        -12    1    4    4    0    0 -0.64191042937E+00 -0.63540755450E+02  0.79113230810E+02  0.10147286801E+03  0.00000000000E+00 0.  1.
</event>
<event>
12    1  0.8219652E-002  0.1998192E+03  0.7818608E-02  0.1149906E+00
         21   -1    0    0  501  502  0.00000000000E+00  0.00000000000E+00  0.57601952501E+03  0.57601952501E+03  0.00000000000E+00 0.  1.
         21   -1    0    0  502  503 -0.00000000000E+00 -0.00000000000E+00 -0.71374926416E+02  0.71374926416E+02  0.00000000000E+00 0.  1.
         -6    2    1    2    0  503  0.48559450296E+02  0.89901231631E+02  0.19708673956E+03  0.28066154138E+03  0.17171914931E+03 0.  0.
        -24    2    3    3    0    0 -0.41414996466E+01 -0.17292389431E+02  0.72376395775E+02  0.10791136810E+03  0.78040642930E+02 0.  0.
          6    2    1    2  501    0 -0.48559450296E+02 -0.89901231631E+02  0.30755785904E+03  0.36673291005E+03  0.17164189172E+03 0.  0.
         24    2    5    5    0    0 -0.39911856901E+02 -0.25551894778E+02  0.28469088553E+03  0.29773576154E+03  0.73156187337E+02 0.  0.
          5    1    5    5  501    0 -0.86475933951E+01 -0.64349336853E+02  0.22866973504E+02  0.68997148507E+02  0.47000000000E+01 0. -1.
        -11    1    6    6    0    0 -0.13114095514E+02 -0.49200025674E+02  0.18277258333E+03  0.18973254661E+03  0.00000000000E+00 0.  1.
         12    1    6    6    0    0 -0.26797761387E+02  0.23648130896E+02  0.10191830220E+03  0.10800321493E+03  0.00000000000E+00 0. -1.
         -5    1    3    3    0  503  0.52700949943E+02  0.10719362106E+03  0.12471034378E+03  0.17275017328E+03  0.47000000000E+01 0.  1.
         11    1    4    4    0    0  0.35596223206E+02 -0.13321234757E+02  0.47607837908E+02  0.60918409633E+02  0.00000000000E+00 0. -1.
        -12    1    4    4    0    0 -0.39737722852E+02 -0.39711546733E+01  0.24768557867E+02  0.46992958470E+02  0.00000000000E+00 0.  1.
</event>
<event>
12    1  0.8219652E-002  0.2356322E+03  0.7818608E-02  0.1122754E+00
         21   -1    0    0  503  502  0.00000000000E+00  0.00000000000E+00  0.14502027251E+04  0.14502027251E+04  0.00000000000E+00 0.  1.
         21   -1    0    0  501  503 -0.00000000000E+00 -0.00000000000E+00 -0.43529642546E+02  0.43529642546E+02  0.00000000000E+00 0. -1.
          6    2    1    2  501    0 -0.10957983836E+02 -0.16013057868E+03  0.44385232703E+03  0.50252107745E+03  0.17251279787E+03 0.  0.
         24    2    3    3    0    0 -0.70653224238E+01 -0.73402593842E+02  0.97508852116E+02  0.14543174859E+03  0.78769014805E+02 0.  0.
         -6    2    1    2    0  502  0.10957983836E+02  0.16013057868E+03  0.96282075555E+03  0.99121129022E+03  0.17237788406E+03 0.  0.
        -24    2    5    5    0    0  0.70709246976E+02  0.11150216232E+03  0.54726235699E+03  0.56854616399E+03  0.79474042277E+02 0.  0.
          5    1    3    3  501    0 -0.38926614124E+01 -0.86727984841E+02  0.34634347492E+03  0.35708932886E+03  0.47000000000E+01 0. -1.
        -13    1    4    4    0    0 -0.26422312829E+02  0.49870912851E+01  0.28909600777E+02  0.39481321049E+02  0.00000000000E+00 0.  1.
         14    1    4    4    0    0  0.19356990405E+02 -0.78389685127E+02  0.68599251339E+02  0.10595042754E+03  0.00000000000E+00 0. -1.
         -5    1    5    5    0  502 -0.59751263140E+02  0.48628416367E+02  0.41555839855E+03  0.42266512623E+03  0.47000000000E+01 0.  1.
         11    1    6    6    0    0  0.27277133686E+02  0.98936521890E+02  0.29697860774E+03  0.31421134741E+03  0.00000000000E+00 0. -1.
        -12    1    6    6    0    0  0.43432113290E+02  0.12565640425E+02  0.25028374925E+03  0.25433481658E+03  0.00000000000E+00 0.  1.
</event>
<event>
12    1  0.8219652E-002  0.1731059E+03  0.7818608E-02  0.1174651E+00
         21   -1    0    0  503  502  0.00000000000E+00  0.00000000000E+00  0.22344509472E+03  0.22344509472E+03  0.00000000000E+00 0.  1.
         21   -1    0    0  501  503 -0.00000000000E+00 -0.00000000000E+00 -0.15711404822E+03  0.15711404822E+03  0.00000000000E+00 0.  1.
          6    2    1    2  501    0 -0.95631268321E+01  0.23870974934E+02 -0.39669122074E+02  0.17757714271E+03  0.17116870487E+03 0.  0.
         24    2    3    3    0    0  0.50724152506E+02 -0.14222617636E+02 -0.43273891088E+02  0.10601764156E+03  0.81190443852E+02 0.  0.
         -6    2    1    2    0  502  0.95631268321E+01 -0.23870974934E+02  0.10600016858E+03  0.20298200023E+03  0.17118522085E+03 0.  0.
        -24    2    5    5    0    0  0.70914163136E+02 -0.12868461998E+02  0.85279075099E+02  0.13713020707E+03  0.79610031996E+02 0.  0.
          5    1    3    3  501    0 -0.60287279338E+02  0.38093592570E+02  0.36047690133E+01  0.71559501148E+02  0.47000000000E+01 0. -1.
        -11    1    4    4    0    0 -0.24311144285E+01  0.12254763458E+02 -0.44905010818E+02  0.46610616187E+02  0.00000000000E+00 0.  1.
         12    1    4    4    0    0  0.53155266935E+02 -0.26477381094E+02  0.16311197303E+01  0.59407025376E+02  0.00000000000E+00 0. -1.
         -5    1    5    5    0  502 -0.61351036304E+02 -0.11002512936E+02  0.20721093481E+02  0.65851793154E+02  0.47000000000E+01 0.  1.
         11    1    6    6    0    0  0.60354347273E+01 -0.48528777859E+01 -0.15314423464E+02  0.17161248823E+02  0.00000000000E+00 0. -1.
        -12    1    6    6    0    0  0.64878728409E+02 -0.80155842122E+01  0.10059349856E+03  0.11996895825E+03  0.00000000000E+00 0.  1.
</event>
<event>
12    1  0.8219652E-002  0.3319559E+03  0.7818608E-02  0.1070279E+00
         21   -1    0    0  503  502  0.00000000000E+00  0.00000000000E+00  0.74203226433E+02  0.74203226433E+02  0.00000000000E+00 0. -1.
         21   -1    0    0  501  503 -0.00000000000E+00 -0.00000000000E+00 -0.16455434904E+04  0.16455434904E+04  0.00000000000E+00 0. -1.
          6    2    1    2  501    0  0.23306371368E+03  0.16314639136E+03 -0.10543918045E+04  0.11054124960E+04  0.17105341114E+03 0.  0.
         24    2    3    3    0    0  0.43317307422E+02  0.22106809567E+02 -0.24277640220E+03  0.26005013972E+03  0.79502160660E+02 0.  0.
         -6    2    1    2    0  502 -0.23306371368E+03 -0.16314639136E+03 -0.51694845950E+03  0.61433422077E+03  0.17098358223E+03 0.  0.
        -24    2    5    5    0    0 -0.16085396948E+03 -0.18278987327E+03 -0.41829937675E+03  0.49042358740E+03  0.79087225358E+02 0.  0.
          5    1    3    3  501    0  0.18974640625E+03  0.14103958180E+03 -0.81161540225E+03  0.84536235633E+03  0.47000000000E+01 0. -1.
        -13    1    4    4    0    0  0.53124768815E+02 -0.14499652435E+02 -0.15270145323E+03  0.16232749244E+03  0.00000000000E+00 0.  1.
         14    1    4    4    0    0 -0.98074613929E+01  0.36606462001E+02 -0.90074948972E+02  0.97722647281E+02  0.00000000000E+00 0. -1.
         -5    1    5    5    0  502 -0.72209744192E+02  0.19643481907E+02 -0.98649082744E+02  0.12391063338E+03  0.47000000000E+01 0.  1.
         11    1    6    6    0    0 -0.11624707732E+03 -0.98922627545E+02 -0.19408757886E+03  0.24691913148E+03  0.00000000000E+00 0. -1.
        -12    1    6    6    0    0 -0.44606892162E+02 -0.83867245724E+02 -0.22421179790E+03  0.24350445591E+03  0.00000000000E+00 0.  1.
</event>
<event>
12    1  0.8219652E-002  0.1833074E+03  0.7818608E-02  0.1164869E+00
         21   -1    0    0  501  502  0.00000000000E+00  0.00000000000E+00  0.76078354176E+03  0.76078354176E+03  0.00000000000E+00 0. -1.
         21   -1    0    0  502  503 -0.00000000000E+00 -0.00000000000E+00 -0.45499931654E+02  0.45499931654E+02  0.00000000000E+00 0. -1.
         -6    2    1    2    0  503  0.60844262763E+02  0.12353050021E+02  0.28195733328E+03  0.33578025886E+03  0.17144626650E+03 0.  0.
        -24    2    3    3    0    0  0.29194057427E+02  0.58263607107E+02  0.90383764896E+02  0.13620060846E+03  0.78322665219E+02 0.  0.
          6    2    1    2  501    0 -0.60844262763E+02 -0.12353050021E+02  0.43332627682E+03  0.47050321455E+03  0.17247315895E+03 0.  0.
         24    2    5    5    0    0  0.45735370812E+01 -0.59193390513E+02  0.18783620215E+03  0.21212176630E+03  0.78666576002E+02 0.  0.
          5    1    5    5  501    0 -0.65417799844E+02  0.46840340492E+02  0.24549007467E+03  0.25838144824E+03  0.47000000000E+01 0. -1.
        -11    1    6    6    0    0  0.30935093430E+02 -0.11283852276E+02  0.28113170089E+02  0.43297293913E+02  0.00000000000E+00 0.  1.
         12    1    6    6    0    0 -0.26361556349E+02 -0.47909538237E+02  0.15972303206E+03  0.16882447239E+03  0.00000000000E+00 0. -1.
         -5    1    3    3    0  503  0.31650205336E+02 -0.45910557086E+02  0.19157356839E+03  0.19957965040E+03  0.47000000000E+01 0.  1.
         13    1    4    4    0    0  0.43952488760E+02  0.86492084593E+01  0.20575218911E+02  0.49294722926E+02  0.00000000000E+00 0. -1.
        -14    1    4    4    0    0 -0.14758431333E+02  0.49614398648E+02  0.69808545985E+02  0.86905885537E+02  0.00000000000E+00 0.  1.
</event>
<event>
12    1  0.8219652E-002  0.1776699E+03  0.7818608E-02  0.1170126E+00
         21   -1    0    0  503  502  0.00000000000E+00  0.00000000000E+00  0.58849736121E+03  0.58849736121E+03  0.00000000000E+00 0.  1.
         21   -1    0    0  501  503 -0.00000000000E+00 -0.00000000000E+00 -0.54759893372E+02  0.54759893372E+02  0.00000000000E+00 0.  1.
          6    2    1    2  501    0 -0.76621066163E+01  0.42647079946E+02  0.31424119973E+03  0.36099049973E+03  0.17230533359E+03 0.  0.
         24    2    3    3    0    0 -0.22040358980E+02  0.17958330527E+02  0.32053363258E+03  0.33136022467E+03  0.79053841260E+02 0.  0.
         -6    2    1    2    0  502  0.76621066163E+01 -0.42647079946E+02  0.21949626811E+03  0.28226675485E+03  0.17210005193E+03 0.  0.
        -24    2    5    5    0    0 -0.61161079447E+01  0.42250256400E+02  0.85553006073E+02  0.12301762813E+03  0.77404967806E+02 0.  0.
          5    1    3    3  501    0  0.14378252364E+02  0.24688749419E+02 -0.62924328552E+01  0.29630275060E+02  0.47000000000E+01 0. -1.
        -11    1    4    4    0    0  0.94225294827E+01  0.31019741329E+02  0.56518474774E+02  0.65156322830E+02  0.00000000000E+00 0.  1.
         12    1    4    4    0    0 -0.31462888463E+02 -0.13061410801E+02  0.26401515781E+03  0.26620390184E+03  0.00000000000E+00 0. -1.
         -5    1    5    5    0  502  0.13778214561E+02 -0.84897336347E+02  0.13394326204E+03  0.15924912672E+03  0.47000000000E+01 0.  1.
         13    1    6    6    0    0  0.19970593340E+02  0.32208925733E+02  0.87135654756E+02  0.95020323221E+02  0.00000000000E+00 0. -1.
        -14    1    6    6    0    0 -0.26086701285E+02  0.10041330667E+02 -0.15826486832E+01  0.27997304912E+02  0.00000000000E+00 0.  1.
</event>
<event>
12    1  0.8219652E-002  0.2132611E+03  0.7818608E-02  0.1139324E+00
         21   -1    0    0  503  502  0.00000000000E+00  0.00000000000E+00  0.77779137412E+03  0.77779137412E+03  0.00000000000E+00 0. -1.
         21   -1    0    0  501  503 -0.00000000000E+00 -0.00000000000E+00 -0.10035976629E+03  0.10035976629E+03  0.00000000000E+00 0. -1.
          6    2    1    2  501    0 -0.10528858545E+03  0.67474489395E+02  0.52821995825E+02  0.21813790526E+03  0.17074978630E+03 0.  0.
         24    2    3    3    0    0 -0.26151752255E+01  0.60838856202E+02  0.50582553073E+02  0.11511865512E+03  0.83579330669E+02 0.  0.
         -6    2    1    2    0  502  0.10528858545E+03 -0.67474489395E+02  0.62460961201E+03  0.66001323515E+03  0.17274782261E+03 0.  0.
        -24    2    5    5    0    0  0.65700089654E+02 -0.45906718527E+02  0.59540701573E+03  0.60609385673E+03  0.80101936322E+02 0.  0.
          5    1    3    3  501    0 -0.10267341023E+03  0.66356331933E+01  0.22394427522E+01  0.10301925014E+03  0.47000000000E+01 0. -1.
        -11    1    4    4    0    0 -0.95891886058E+01 -0.17375122027E+02 -0.29770564995E+01  0.20067642337E+02  0.00000000000E+00 0.  1.
         12    1    4    4    0    0  0.69740133803E+01  0.78213978228E+02  0.53559609573E+02  0.95051012780E+02  0.00000000000E+00 0. -1.
         -5    1    5    5    0  502  0.39588495799E+02 -0.21567770869E+02  0.29202596281E+02  0.53919378422E+02  0.47000000000E+01 0.  1.
         13    1    6    6    0    0  0.62433335230E+02 -0.54578457050E+02  0.32125674957E+03  0.33178702275E+03  0.00000000000E+00 0. -1.
        -14    1    6    6    0    0  0.32667544246E+01  0.86717385236E+01  0.27415026616E+03  0.27430683398E+03  0.00000000000E+00 0.  1.
</event>
<event>
12    1  0.8219652E-002  0.2565933E+03  0.7818608E-02  0.1109275E+00
         21   -1    0    0  503  502  0.00000000000E+00  0.00000000000E+00  0.19878092676E+04  0.19878092676E+04  0.00000000000E+00 0. -1.
         21   -1    0    0  501  503 -0.00000000000E+00 -0.00000000000E+00 -0.68190037546E+02  0.68190037546E+02  0.00000000000E+00 0. -1.
          6    2    1    2  501    0 -0.18939374235E+03 -0.12434220305E+02  0.22240594274E+03  0.33956520597E+03  0.17267172978E+03 0.  0.
         24    2    3    3    0    0 -0.29702406997E+02 -0.25889602508E+02  0.11811705172E+03  0.14830456526E+03  0.80561167257E+02 0.  0.
         -6    2    1    2    0  502  0.18939374235E+03  0.12434220305E+02  0.16972132873E+04  0.17164340992E+04  0.17201300732E+03 0.  0.
        -24    2    5    5    0    0  0.46183117746E+02 -0.65635561563E+01  0.10108094730E+04  0.10149766986E+04  0.79157737237E+02 0.  0.
          5    1    3    3  501    0 -0.15969133535E+03  0.13455382203E+02  0.10428889101E+03  0.19126064071E+03  0.47000000000E+01 0. -1.
        -11    1    4    4    0    0 -0.10515519706E+02 -0.21475121091E+02 -0.43166660771E+01  0.24297954370E+02  0.00000000000E+00 0.  1.
         12    1    4    4    0    0 -0.19186887290E+02 -0.44144814174E+01  0.12243371780E+03  0.12400661089E+03  0.00000000000E+00 0. -1.
         -5    1    5    5    0  502  0.14321062460E+03  0.18997776462E+02  0.68640381433E+03  0.70145740059E+03  0.47000000000E+01 0.  1.
         13    1    6    6    0    0  0.43425030011E+02 -0.26524425415E+02  0.33278313359E+03  0.33665099492E+03  0.00000000000E+00 0. -1.
        -14    1    6    6    0    0  0.27580877347E+01  0.19960869259E+02  0.67802633938E+03  0.67832570366E+03  0.00000000000E+00 0.  1.
</event>
<event>
12    1  0.8219652E-002  0.2174876E+03  0.7818608E-02  0.1135785E+00
         21   -1    0    0  503  502  0.00000000000E+00  0.00000000000E+00  0.17266537816E+03  0.17266537816E+03  0.00000000000E+00 0. -1.
         21   -1    0    0  501  503 -0.00000000000E+00 -0.00000000000E+00 -0.85474949671E+03  0.85474949671E+03  0.00000000000E+00 0.  1.
          6    2    1    2  501    0 -0.10606985502E+03  0.80136328298E+02 -0.76451758517E+03  0.79482914735E+03  0.17202787619E+03 0.  0.
         24    2    3    3    0    0 -0.77743570675E+02  0.21038154969E+01 -0.21213764073E+03  0.23622629696E+03  0.68934722329E+02 0.  0.
         -6    2    1    2    0  502  0.10606985502E+03 -0.80136328298E+02  0.82433466625E+02  0.23258572752E+03  0.17212843743E+03 0.  0.
        -24    2    5    5    0    0  0.14110076889E+03 -0.79913034683E+02  0.58166749377E+02  0.18971174529E+03  0.79445927981E+02 0.  0.
          5    1    3    3  501    0 -0.28326284345E+02  0.78032512802E+02 -0.55237994444E+03  0.55860285038E+03  0.47000000000E+01 0. -1.
        -13    1    4    4    0    0 -0.61924448224E+02  0.32181953766E+02 -0.13653533289E+03  0.15333692498E+03  0.00000000000E+00 0.  1.
         14    1    4    4    0    0 -0.15819122451E+02 -0.30078138269E+02 -0.75602307842E+02  0.82889371984E+02  0.00000000000E+00 0. -1.
         -5    1    5    5    0  502 -0.35030913872E+02 -0.22329361517E+00  0.24266717248E+02  0.42873982236E+02  0.47000000000E+01 0.  1.
         13    1    6    6    0    0  0.13935364137E+03 -0.65010218418E+02  0.71552399645E+02  0.16960398509E+03  0.00000000000E+00 0. -1.
        -14    1    6    6    0    0  0.17471275201E+01 -0.14902816266E+02 -0.13385650268E+02  0.20107760201E+02  0.00000000000E+00 0.  1.
</event>
<event>
12    1  0.8219652E-002  0.1811068E+03  0.7818608E-02  0.1166744E+00
         21   -1    0    0  503  502  0.00000000000E+00  0.00000000000E+00  0.53672163781E+02  0.53672163781E+02  0.00000000000E+00 0.  1.
         21   -1    0    0  501  503 -0.00000000000E+00 -0.00000000000E+00 -0.61940993497E+03  0.61940993497E+03  0.00000000000E+00 0.  1.
          6    2    1    2  501    0 -0.42952280050E+02  0.21264695540E+02 -0.32205371095E+03  0.36946787281E+03  0.17461623825E+03 0.  0.
         24    2    3    3    0    0  0.41097349475E+02  0.21108522152E+02 -0.20927068734E+03  0.22873242941E+03  0.79935860804E+02 0.  0.
         -6    2    1    2    0  502  0.42952280050E+02 -0.21264695540E+02 -0.24368406023E+03  0.30361422594E+03  0.17464991081E+03 0.  0.
        -24    2    5    5    0    0 -0.40179502707E+02  0.41558024790E+01 -0.12526075934E+03  0.15663374010E+03  0.84924717104E+02 0.  0.
          5    1    3    3  501    0 -0.84049629524E+02  0.15617338781E+00 -0.11278302362E+03  0.14073544340E+03  0.47000000000E+01 0. -1.
        -11    1    4    4    0    0  0.24482402086E+02  0.30563785139E+02 -0.32384549395E+02  0.50816257373E+02  0.00000000000E+00 0.  1.
         12    1    4    4    0    0  0.16614947388E+02 -0.94552629864E+01 -0.17688613794E+03  0.17791617203E+03  0.00000000000E+00 0. -1.
         -5    1    5    5    0  502  0.83131782757E+02 -0.25420498019E+02 -0.11842330089E+03  0.14698048584E+03  0.47000000000E+01 0.  1.
         11    1    6    6    0    0 -0.61000419508E+01 -0.30853340960E+02 -0.12683612955E+02  0.33911844506E+02  0.00000000000E+00 0. -1.
        -12    1    6    6    0    0 -0.34079460756E+02  0.35009143439E+02 -0.11257714639E+03  0.12272189559E+03  0.00000000000E+00 0.  1.
</event>
<event>
12    1  0.8219652E-002  0.1892083E+03  0.7818608E-02  0.1159405E+00
         21   -1    0    0  501  502  0.00000000000E+00  0.00000000000E+00  0.32026723268E+03  0.32026723268E+03  0.00000000000E+00 0. -1.
         21   -1    0    0  502  503 -0.00000000000E+00 -0.00000000000E+00 -0.14633857340E+03  0.14633857340E+03  0.00000000000E+00 0. -1.
         -6    2    1    2    0  503  0.50462004614E+02  0.58229624078E+02 -0.27548767433E+02  0.19021307968E+03  0.17171190426E+03 0.  0.
        -24    2    3    3    0    0  0.32006061444E+02  0.44816572427E+02 -0.84709246256E+02  0.12848835099E+03  0.79376865684E+02 0.  0.
          6    2    1    2  501    0 -0.50462004614E+02 -0.58229624078E+02  0.20147742672E+03  0.27639272639E+03  0.17280822520E+03 0.  0.
         24    2    5    5    0    0 -0.47203239271E+02 -0.38393145621E+02  0.22471789976E+03  0.24530711853E+03  0.77299860920E+02 0.  0.
          5    1    5    5  501    0 -0.32587653429E+01 -0.19836478457E+02 -0.23240473044E+02  0.31085607867E+02  0.47000000000E+01 0. -1.
        -13    1    6    6    0    0  0.10648234567E+02 -0.38142094376E+01  0.65796158328E+00  0.11329872306E+02  0.00000000000E+00 0.  1.
         14    1    6    6    0    0 -0.57851473838E+02 -0.34578936184E+02  0.22405993818E+03  0.23397724622E+03  0.00000000000E+00 0. -1.
         -5    1    3    3    0  503  0.18455943171E+02  0.13413051652E+02  0.57160478823E+02  0.61724728692E+02  0.47000000000E+01 0.  1.
         13    1    4    4    0    0  0.34825917694E+02  0.11420243925E+02 -0.87491457877E+02  0.94857902760E+02  0.00000000000E+00 0. -1.
        -14    1    4    4    0    0 -0.28198562506E+01  0.33396328501E+02  0.27822116217E+01  0.33630448230E+02  0.00000000000E+00 0.  1.
</event>
<event>
12    1  0.8219652E-002  0.3023093E+03  0.7818608E-02  0.1084164E+00
         21   -1    0    0  501  502  0.00000000000E+00  0.00000000000E+00  0.97425575566E+02  0.97425575566E+02  0.00000000000E+00 0.  1.
         21   -1    0    0  502  503 -0.00000000000E+00 -0.00000000000E+00 -0.10849113102E+04  0.10849113102E+04  0.00000000000E+00 0.  1.
         -6    2    1    2    0  503 -0.64908544289E+02  0.23924935365E+03 -0.71297942588E+03  0.77442273507E+03  0.17302467609E+03 0.  0.
        -24    2    3    3    0    0 -0.89369565753E+02  0.22909720363E+03 -0.53208300854E+03  0.59153749366E+03  0.79572799600E+02 0.  0.
          6    2    1    2  501    0  0.64908544289E+02 -0.23924935365E+03 -0.27450630874E+03  0.40791415068E+03  0.17200833829E+03 0.  0.
         24    2    5    5    0    0 -0.24760488124E+00 -0.34345712369E+02 -0.82119766416E+02  0.11935653485E+03  0.79515011847E+02 0.  0.
          5    1    5    5  501    0  0.65156149171E+02 -0.20490364128E+03 -0.19238654233E+03  0.28855761583E+03  0.47000000000E+01 0. -1.
        -11    1    6    6    0    0 -0.40729894487E+01 -0.58136247569E+02 -0.73418853810E+02  0.93737615818E+02  0.00000000000E+00 0.  1.
         12    1    6    6    0    0  0.38253845675E+01  0.23790535200E+02 -0.87009126059E+01  0.25618919032E+02  0.00000000000E+00 0. -1.
         -5    1    3    3    0  503  0.24461021464E+02  0.10152150014E+02 -0.18089641734E+03  0.18288524142E+03  0.47000000000E+01 0.  1.
         11    1    4    4    0    0 -0.59620451346E+02  0.70633032785E+02 -0.14184421298E+03  0.16930270020E+03  0.00000000000E+00 0. -1.
        -12    1    4    4    0    0 -0.29749114407E+02  0.15846417085E+03 -0.39023879555E+03  0.42223479345E+03  0.00000000000E+00 0.  1.
</event>
<event>
12    1  0.8219652E-002  0.1965684E+03  0.7818608E-02  0.1152789E+00
         21   -1    0    0  503  502  0.00000000000E+00  0.00000000000E+00  0.67403110135E+03  0.67403110135E+03  0.00000000000E+00 0.  1.
         21   -1    0    0  501  503 -0.00000000000E+00 -0.00000000000E+00 -0.57400618270E+02  0.57400618270E+02  0.00000000000E+00 0. -1.
          6    2    1    2  501    0 -0.84346190837E+02  0.42670863762E+02  0.33241171448E+03  0.38618219343E+03  0.17234864687E+03 0.  0.
         24    2    3    3    0    0 -0.41928708028E+02  0.93196747344E+02  0.23277300199E+03  0.26659092792E+03  0.80273296451E+02 0.  0.
         -6    2    1    2    0  502  0.84346190837E+02 -0.42670863762E+02  0.28421876860E+03  0.34524952619E+03  0.17170277920E+03 0.  0.
        -24    2    5    5    0    0  0.49921952603E+02 -0.36266719939E+02  0.60671118724E+02  0.11892744816E+03  0.81579880808E+02 0.  0.
          5    1    3    3  501    0 -0.42417482809E+02 -0.50525883582E+02  0.99638712495E+02  0.11959126551E+03  0.47000000000E+01 0. -1.
        -11    1    4    4    0    0 -0.27267678426E+02 -0.53141153175E+01  0.31336027023E+02  0.41877353044E+02  0.00000000000E+00 0.  1.
         12    1    4    4    0    0 -0.14661029601E+02  0.98510862662E+02  0.20143697496E+03  0.22471357488E+03  0.00000000000E+00 0. -1.
         -5    1    5    5    0  502  0.34424238234E+02 -0.64041438232E+01  0.22354764988E+03  0.22632207802E+03  0.47000000000E+01 0.  1.
         13    1    6    6    0    0 -0.78050667103E+01  0.15158794128E+02 -0.46969399123E+01  0.17685286266E+02  0.00000000000E+00 0. -1.
        -14    1    6    6    0    0  0.57727019313E+02 -0.51425514067E+02  0.65368058636E+02  0.10124216190E+03  0.00000000000E+00 0.  1.
</event>
<event>
12    1  0.8219652E-002  0.2163065E+03  0.7818608E-02  0.1136816E+00
         21   -1    0    0  503  502  0.00000000000E+00  0.00000000000E+00  0.20317766940E+02  0.20317766940E+02  0.00000000000E+00 0. -1.
         21   -1    0    0  501  503 -0.00000000000E+00 -0.00000000000E+00 -0.24023312672E+04  0.24023312672E+04  0.00000000000E+00 0. -1.
          6    2    1    2  501    0 -0.39982513687E+02  0.12468070087E+03 -0.14496193477E+04  0.14656687051E+04  0.17217613388E+03 0.  0.
         24    2    3    3    0    0  0.15326422285E+02  0.37855735552E+02 -0.36035919137E+03  0.37154465759E+03  0.80738651479E+02 0.  0.
         -6    2    1    2    0  502  0.39982513687E+02 -0.12468070087E+03 -0.93239415253E+03  0.95698032909E+03  0.17119759351E+03 0.  0.
        -24    2    5    5    0    0 -0.13790116341E+02 -0.90066715106E+01 -0.47873917700E+03  0.48570874748E+03  0.80315006978E+02 0.  0.
          5    1    3    3  501    0 -0.55308935972E+02  0.86824965317E+02 -0.10892601564E+04  0.10941240475E+04  0.47000000000E+01 0. -1.
        -13    1    4    4    0    0  0.22989907960E+02 -0.18676866658E+02 -0.17869104545E+03  0.18112937625E+03  0.00000000000E+00 0.  1.
         14    1    4    4    0    0 -0.76634856753E+01  0.56532602210E+02 -0.18166814593E+03  0.19041528134E+03  0.00000000000E+00 0. -1.
         -5    1    5    5    0  502  0.53772630028E+02 -0.11567402936E+03 -0.45365497553E+03  0.47127158161E+03  0.47000000000E+01 0.  1.
         11    1    6    6    0    0  0.13958446730E+02 -0.41662513665E+01 -0.14288892645E+02  0.20405105699E+02  0.00000000000E+00 0. -1.
        -12    1    6    6    0    0 -0.27748563071E+02 -0.48404201441E+01 -0.46445028436E+03  0.46530364178E+03  0.00000000000E+00 0.  1.
</event>
<event>
12    1  0.8219652E-002  0.2708303E+03  0.7818608E-02  0.1100919E+00
         21   -1    0    0  501  502  0.00000000000E+00  0.00000000000E+00  0.60784227428E+02  0.60784227428E+02  0.00000000000E+00 0. -1.
         21   -1    0    0  502  503 -0.00000000000E+00 -0.00000000000E+00 -0.17492264307E+04  0.17492264307E+04  0.00000000000E+00 0.  1.
         -6    2    1    2    0  503 -0.17731562706E+03 -0.10883299216E+03 -0.13507309754E+04  0.13776150486E+04  0.17338858842E+03 0.  0.
        -24    2    3    3    0    0 -0.94662844735E+02 -0.11178833214E+03 -0.67504050565E+03  0.69686552250E+03  0.92109645503E+02 0.  0.
          6    2    1    2  501    0  0.17731562706E+03  0.10883299216E+03 -0.33771122795E+03  0.43239560955E+03  0.17213842654E+03 0.  0.
         24    2    5    5    0    0  0.48334600006E+02 -0.97854848170E+01 -0.12155374913E+03  0.15409254799E+03  0.80853015708E+02 0.  0.
          5    1    5    5  501    0  0.12898102706E+03  0.11861847698E+03 -0.21615747882E+03  0.27830306156E+03  0.47000000000E+01 0. -1.
        -13    1    6    6    0    0 -0.18355544312E+02  0.10344482027E+02 -0.49857954626E+02  0.54127164667E+02  0.00000000000E+00 0.  1.
         14    1    6    6    0    0  0.66690144317E+02 -0.20129966844E+02 -0.71695794501E+02  0.99965383325E+02  0.00000000000E+00 0. -1.
         -5    1    3    3    0  503 -0.82652782329E+02  0.29553399840E+01 -0.67569046971E+03  0.68074952612E+03  0.47000000000E+01 0.  1.
         11    1    4    4    0    0 -0.91254265677E+02 -0.81931604905E+02 -0.35838804557E+03  0.37879033791E+03  0.00000000000E+00 0. -1.
        -12    1    4    4    0    0 -0.34085790578E+01 -0.29856727238E+02 -0.31665246009E+03  0.31807518459E+03  0.00000000000E+00 0.  1.
</event>
<event>
12    1  0.8219652E-002  0.2865008E+03  0.7818608E-02  0.1092567E+00
         21   -1    0    0  501  502  0.00000000000E+00  0.00000000000E+00  0.92065095240E+03  0.92065095240E+03  0.00000000000E+00 0. -1.
         21   -1    0    0  502  503 -0.00000000000E+00 -0.00000000000E+00 -0.88677554896E+02  0.88677554896E+02  0.00000000000E+00 0. -1.
         -6    2    1    2    0  503 -0.81443396538E+02  0.21407240449E+03  0.45184293076E+03  0.53501844835E+03  0.17211241906E+03 0.  0.
        -24    2    3    3    0    0 -0.55351868810E+02  0.22326391402E+03  0.32993350750E+03  0.40992148937E+03  0.79176406769E+02 0.  0.
          6    2    1    2  501    0  0.81443396538E+02 -0.21407240449E+03  0.38013046675E+03  0.47431005895E+03  0.16736439008E+03 0.  0.
         24    2    5    5    0    0  0.64874212741E+02 -0.87008685379E+02  0.28110600257E+03  0.31229875974E+03  0.82041183827E+02 0.  0.
          5    1    5    5  501    0  0.16569183797E+02 -0.12706371911E+03  0.99024464179E+02  0.16201129921E+03  0.47000000000E+01 0. -1.
        -13    1    6    6    0    0  0.66564041900E+02 -0.23470455059E+02  0.17374051855E+03  0.18752973556E+03  0.00000000000E+00 0.  1.
         14    1    6    6    0    0 -0.16898291589E+01 -0.63538230320E+02  0.10736548402E+03  0.12476902417E+03  0.00000000000E+00 0. -1.
         -5    1    3    3    0  503 -0.26091527728E+02 -0.91915095353E+01  0.12190942326E+03  0.12509695898E+03  0.47000000000E+01 0.  1.
         11    1    4    4    0    0 -0.70724621672E+02  0.15255069106E+03  0.25746160320E+03  0.30750636184E+03  0.00000000000E+00 0. -1.
        -12    1    4    4    0    0  0.15372752863E+02  0.70713222965E+02  0.72471904301E+02  0.10241512752E+03  0.00000000000E+00 0.  1.
</event>
<event>
12    1  0.8219652E-002  0.2192077E+03  0.7818608E-02  0.1134492E+00
         21   -1    0    0  503  502  0.00000000000E+00  0.00000000000E+00  0.62630866282E+03  0.62630866282E+03  0.00000000000E+00 0.  1.
         21   -1    0    0  501  503 -0.00000000000E+00 -0.00000000000E+00 -0.22256544778E+03  0.22256544778E+03  0.00000000000E+00 0.  1.
          6    2    1    2  501    0  0.28601407269E+02 -0.13257048922E+03 -0.14173013839E+03  0.26103534981E+03  0.17221802058E+03 0.  0.
         24    2    3    3    0    0  0.34560197677E+01 -0.15282111289E+03 -0.77958014348E+02  0.18940189341E+03  0.80183468432E+02 0.  0.
         -6    2    1    2    0  502 -0.28601407269E+02  0.13257048922E+03  0.54547335343E+03  0.58783876078E+03  0.17210535803E+03 0.  0.
        -24    2    5    5    0    0  0.38316595122E+02  0.88931184289E+02  0.42873714072E+03  0.44630487319E+03  0.77431175874E+02 0.  0.
          5    1    3    3  501    0  0.25145387501E+02  0.20250623665E+02 -0.63772124043E+02  0.71633456404E+02  0.47000000000E+01 0. -1.
        -11    1    4    4    0    0  0.67505597089E+01 -0.52942905706E+02  0.12269212172E+02  0.54763627421E+02  0.00000000000E+00 0.  1.
         12    1    4    4    0    0 -0.32945399412E+01 -0.99878207179E+02 -0.90227226520E+02  0.13463826599E+03  0.00000000000E+00 0. -1.
         -5    1    5    5    0  502 -0.66918002391E+02  0.43639304932E+02  0.11673621271E+03  0.14153388759E+03  0.47000000000E+01 0.  1.
         11    1    6    6    0    0 -0.10457221601E+02  0.21066068748E+02  0.22306316999E+03  0.22429959996E+03  0.00000000000E+00 0. -1.
        -12    1    6    6    0    0  0.48773816724E+02  0.67865115540E+02  0.20567397073E+03  0.22200527323E+03  0.00000000000E+00 0.  1.
</event>
<event>
12    1  0.8219652E-002  0.2334369E+03  0.7818608E-02  0.1124785E+00
         21   -1    0    0  501  502  0.00000000000E+00  0.00000000000E+00  0.48936641820E+03  0.48936641820E+03  0.00000000000E+00 0. -1.
         21   -1    0    0  502  503 -0.00000000000E+00 -0.00000000000E+00 -0.11100253170E+03  0.11100253170E+03  0.00000000000E+00 0. -1.
         -6    2    1    2    0  503 -0.48520168678E+02  0.15190471433E+03  0.16016995507E+03  0.28310284428E+03  0.17048037109E+03 0.  0.
        -24    2    3    3    0    0 -0.37545470982E+02  0.12199655137E+03  0.35105020866E+02  0.15395846783E+03  0.78600422319E+02 0.  0.
          6    2    1    2  501    0  0.48520168678E+02 -0.15190471433E+03  0.21819393143E+03  0.31726610563E+03  0.16619248197E+03 0.  0.
         24    2    5    5    0    0 -0.13253378516E+02 -0.12145816213E+03  0.19687534418E+03  0.24501975045E+03  0.79668310981E+02 0.  0.
          5    1    5    5  501    0  0.61773547195E+02 -0.30446552196E+02  0.21318587248E+02  0.72246355174E+02  0.47000000000E+01 0. -1.
        -13    1    6    6    0    0  0.23854066476E+02 -0.83903597317E+01  0.49613133647E+02  0.55685524637E+02  0.00000000000E+00 0.  1.
         14    1    6    6    0    0 -0.37107444992E+02 -0.11306780240E+03  0.14726221054E+03  0.18933422582E+03  0.00000000000E+00 0. -1.
         -5    1    3    3    0  503 -0.10974697696E+02  0.29908162962E+02  0.12506493421E+03  0.12914437645E+03  0.47000000000E+01 0.  1.
         11    1    4    4    0    0  0.78104715756E+01  0.96498336710E+02  0.31467780829E+02  0.10179957605E+03  0.00000000000E+00 0. -1.
        -12    1    4    4    0    0 -0.45355942558E+02  0.25498214656E+02  0.36372400366E+01  0.52158891773E+02  0.00000000000E+00 0.  1.
</event>
<event>
12    1  0.8219652E-002  0.3810019E+03  0.7818608E-02  0.1050631E+00
         21   -1    0    0  501  502  0.00000000000E+00  0.00000000000E+00  0.53836659637E+03  0.53836659637E+03  0.00000000000E+00 0. -1.
         21   -1    0    0  502  503 -0.00000000000E+00 -0.00000000000E+00 -0.33265001055E+03  0.33265001055E+03  0.00000000000E+00 0.  1.
         -6    2    1    2    0  503 -0.24001727008E+02 -0.33897608670E+03  0.29310206143E+03  0.48012194354E+03  0.17066748960E+03 0.  0.
        -24    2    3    3    0    0  0.35814212533E+02 -0.26147185951E+03  0.25446676168E+03  0.37476717032E+03  0.77761867339E+02 0.  0.
          6    2    1    2  501    0  0.24001727008E+02  0.33897608670E+03 -0.87385475604E+02  0.39089466338E+03  0.17228333134E+03 0.  0.
         24    2    5    5    0    0 -0.63200803859E-01  0.24012532186E+03  0.49739246991E+01  0.25340668833E+03  0.80808635478E+02 0.  0.
          5    1    5    5  501    0  0.24064927811E+02  0.98850764837E+02 -0.92359400303E+02  0.13748797505E+03  0.47000000000E+01 0. -1.
        -13    1    6    6    0    0 -0.74573415059E+01  0.19789406208E+03 -0.27077097136E+02  0.19987706457E+03  0.00000000000E+00 0.  1.
         14    1    6    6    0    0  0.73941407020E+01  0.42231259778E+02  0.32051021835E+02  0.53529623759E+02  0.00000000000E+00 0. -1.
         -5    1    3    3    0  503 -0.59815939540E+02 -0.77504227186E+02  0.38635299745E+02  0.10535477322E+03  0.47000000000E+01 0.  1.
         11    1    4    4    0    0  0.41207800661E+02 -0.21740518073E+03  0.24353070385E+03  0.32904452458E+03  0.00000000000E+00 0. -1.
        -12    1    4    4    0    0 -0.53935881284E+01 -0.44066678786E+02  0.10936057835E+02  0.45722645736E+02  0.00000000000E+00 0.  1.
</event>
<event>
12    1  0.8219652E-002  0.1786205E+03  0.7818608E-02  0.1170000E+00
         21   -1    0    0  501  502  0.00000000000E+00  0.00000000000E+00  0.57133961848E+03  0.57133961848E+03  0.00000000000E+00 0. -1.
         21   -1    0    0  502  503 -0.00000000000E+00 -0.00000000000E+00 -0.68972125300E+02  0.68972125300E+02  0.00000000000E+00 0. -1.
         -6    2    1    2    0  503 -0.23368232646E+02 -0.21322665380E+02  0.39452640344E+03  0.43166132119E+03  0.17227792325E+03 0.  0.
        -24    2    3    3    0    0  0.35300242598E+02  0.11316489779E+02  0.31638954721E+03  0.32853633518E+03  0.80371685819E+02 0.  0.
          6    2    1    2  501    0  0.23368232646E+02  0.21322665380E+02  0.10784108973E+03  0.20865042259E+03  0.17579695065E+03 0.  0.
         24    2    5    5    0    0 -0.50820234786E+02 -0.13140712842E+01  0.25404288967E+02  0.95362000113E+02  0.76577477894E+02 0.  0.
          5    1    5    5  501    0  0.74188467432E+02  0.22636736664E+02  0.82436800767E+02  0.11328842248E+03  0.47000000000E+01 0. -1.
        -13    1    6    6    0    0 -0.44591674720E+02  0.31809447817E+02  0.28078381134E+02  0.61552042304E+02  0.00000000000E+00 0.  1.
         14    1    6    6    0    0 -0.62285600663E+01 -0.33123519101E+02 -0.26740921680E+01  0.33809957809E+02  0.00000000000E+00 0. -1.
         -5    1    3    3    0  503 -0.58668475244E+02 -0.32639155159E+02  0.78136856236E+02  0.10312498601E+03  0.47000000000E+01 0.  1.
         13    1    4    4    0    0 -0.16989759636E+01 -0.30967421014E+01  0.25741984195E+03  0.25744407423E+03  0.00000000000E+00 0. -1.
        -14    1    4    4    0    0  0.36999218561E+02  0.14413231881E+02  0.58969705262E+02  0.71092260943E+02  0.00000000000E+00 0.  1.
</event>
<event>
12    1  0.8219652E-002  0.2320710E+03  0.7818608E-02  0.1125317E+00
         21   -1    0    0  501  502  0.00000000000E+00  0.00000000000E+00  0.28454737486E+03  0.28454737486E+03  0.00000000000E+00 0.  1.
         21   -1    0    0  502  503 -0.00000000000E+00 -0.00000000000E+00 -0.30170365377E+03  0.30170365377E+03  0.00000000000E+00 0.  1.
         -6    2    1    2    0  503 -0.58907818494E+00 -0.15655661394E+03 -0.18797978833E+03  0.29808851536E+03  0.17032334482E+03 0.  0.
        -24    2    3    3    0    0  0.18585756584E+02 -0.54590103582E+02 -0.16477369269E+03  0.19166738777E+03  0.79123371865E+02 0.  0.
          6    2    1    2  501    0  0.58907818494E+00  0.15655661394E+03  0.17082350942E+03  0.28816251326E+03  0.17130861711E+03 0.  0.
         24    2    5    5    0    0  0.20466801696E+02  0.14332569276E+03  0.19364597856E+03  0.25479881645E+03  0.80389848073E+02 0.  0.
          5    1    5    5  501    0 -0.19877723511E+02  0.13230921178E+02 -0.22822469140E+02  0.33363696810E+02  0.47000000000E+01 0. -1.
        -11    1    6    6    0    0 -0.30424359060E+02  0.61337168574E+02  0.69520921834E+02  0.97575859953E+02  0.00000000000E+00 0.  1.
         12    1    6    6    0    0  0.50891160756E+02  0.81988524188E+02  0.12412505673E+03  0.15722295650E+03  0.00000000000E+00 0. -1.
         -5    1    3    3    0  503 -0.19174834769E+02 -0.10196651036E+03 -0.23206095638E+02  0.10642112759E+03  0.47000000000E+01 0.  1.
         13    1    4    4    0    0 -0.28688097594E+02 -0.90601188700E+01 -0.34363447769E+02  0.45672083816E+02  0.00000000000E+00 0. -1.
        -14    1    4    4    0    0  0.47273854177E+02 -0.45529984712E+02 -0.13041024492E+03  0.14599530396E+03  0.00000000000E+00 0.  1.
</event>
<event>
12    1  0.8219652E-002  0.2415527E+03  0.7818608E-02  0.1118942E+00
         21   -1    0    0  501  502  0.00000000000E+00  0.00000000000E+00  0.54927895464E+03  0.54927895464E+03  0.00000000000E+00 0.  1.
         21   -1    0    0  502  503 -0.00000000000E+00 -0.00000000000E+00 -0.10698912354E+03  0.10698912354E+03  0.00000000000E+00 0.  1.
         -6    2    1    2    0  503  0.16894369928E+03  0.24295018339E+02  0.25594583048E+03  0.35119141320E+03  0.16939574708E+03 0.  0.
        -24    2    3    3    0    0  0.13441938520E+03 -0.45240629700E+02  0.18247489576E+03  0.24419981139E+03  0.78874423013E+02 0.  0.
          6    2    1    2  501    0 -0.16894369928E+03 -0.24295018339E+02  0.18634400063E+03  0.30507666497E+03  0.17092531557E+03 0.  0.
         24    2    5    5    0    0 -0.17874416545E+03  0.17866661638E+02  0.13977671209E+03  0.24132512572E+03  0.80197211796E+02 0.  0.
          5    1    5    5  501    0  0.98004661757E+01 -0.42161679977E+02  0.46567288539E+02  0.63751539257E+02  0.47000000000E+01 0. -1.
        -13    1    6    6    0    0 -0.65001720626E+02  0.45866683542E+02  0.58636950280E+02  0.98829490951E+02  0.00000000000E+00 0.  1.
         14    1    6    6    0    0 -0.11374244482E+03 -0.28000021904E+02  0.81139761807E+02  0.14249563477E+03  0.00000000000E+00 0. -1.
         -5    1    3    3    0  503  0.34524314074E+02  0.69535648039E+02  0.73470934711E+02  0.10699160181E+03  0.47000000000E+01 0.  1.
         11    1    4    4    0    0  0.30100828873E+02 -0.47157137524E+02  0.82625916470E+02  0.99784255225E+02  0.00000000000E+00 0. -1.
        -12    1    4    4    0    0  0.10431855633E+03  0.19165078245E+01  0.99848979295E+02  0.14441555617E+03  0.00000000000E+00 0.  1.
</event>
<event>
12    1  0.8219652E-002  0.1810303E+03  0.7818608E-02  0.1167120E+00
         21   -1    0    0  503  502  0.00000000000E+00  0.00000000000E+00  0.17392525759E+03  0.17392525759E+03  0.00000000000E+00 0. -1.
         21   -1    0    0  501  503 -0.00000000000E+00 -0.00000000000E+00 -0.22018572531E+03  0.22018572531E+03  0.00000000000E+00 0. -1.
          6    2    1    2  501    0  0.51523199378E+02  0.15512557854E+02 -0.99600367909E+02  0.20662091022E+03  0.17284874234E+03 0.  0.
         24    2    3    3    0    0 -0.37814821642E+02  0.30687363493E+01 -0.35477261906E+02  0.95850907888E+02  0.80556703954E+02 0.  0.
         -6    2    1    2    0  502 -0.51523199378E+02 -0.15512557854E+02  0.53339900189E+02  0.18749007268E+03  0.17149957106E+03 0.  0.
        -24    2    5    5    0    0  0.89443813629E+01 -0.60929982334E+02  0.35258575057E+02  0.10959209398E+03  0.83515239577E+02 0.  0.
          5    1    3    3  501    0  0.89338021020E+02  0.12443821505E+02 -0.64123106004E+02  0.11077000233E+03  0.47000000000E+01 0. -1.
        -13    1    4    4    0    0  0.34386962622E+01  0.21679295062E+02  0.16108324720E+02  0.27226725688E+02  0.00000000000E+00 0.  1.
         14    1    4    4    0    0 -0.41253517904E+02 -0.18610558713E+02 -0.51585586626E+02  0.68624182200E+02  0.00000000000E+00 0. -1.
         -5    1    5    5    0  502 -0.60467580741E+02  0.45417424480E+02  0.18081325132E+02  0.77897978700E+02  0.47000000000E+01 0.  1.
         13    1    6    6    0    0 -0.34971988848E+02 -0.29504964851E+02  0.12477523068E+01  0.45772697547E+02  0.00000000000E+00 0. -1.
        -14    1    6    6    0    0  0.43916370211E+02 -0.31425017484E+02  0.34010822750E+02  0.63819396429E+02  0.00000000000E+00 0.  1.
</event>
<event>
12    1  0.8219652E-002  0.2141411E+03  0.7818608E-02  0.1138357E+00
         21   -1    0    0  503  502  0.00000000000E+00  0.00000000000E+00  0.38106961296E+03  0.38106961296E+03  0.00000000000E+00 0. -1.
         21   -1    0    0  501  503 -0.00000000000E+00 -0.00000000000E+00 -0.13721050828E+03  0.13721050828E+03  0.00000000000E+00 0.  1.
          6    2    1    2  501    0  0.10536890460E+03 -0.73227348539E+02  0.21306918547E+03  0.30208424711E+03  0.17143968013E+03 0.  0.
         24    2    3    3    0    0  0.99002944062E+02 -0.56081661463E+01  0.19239123160E+03  0.23093266907E+03  0.80513832256E+02 0.  0.
         -6    2    1    2    0  502 -0.10536890460E+03  0.73227348539E+02  0.30789919216E+02  0.21619587414E+03  0.17125357292E+03 0.  0.
        -24    2    5    5    0    0 -0.34106096946E+02 -0.28381770444E+02  0.10394513348E+02  0.90335382338E+02  0.77997978512E+02 0.  0.
          5    1    3    3  501    0  0.63659605410E+01 -0.67619182393E+02  0.20677953864E+02  0.71151578036E+02  0.47000000000E+01 0. -1.
        -11    1    4    4    0    0  0.42234447631E+02  0.35377099948E+01  0.15826468698E+02  0.45240922516E+02  0.00000000000E+00 0.  1.
         12    1    4    4    0    0  0.56768496431E+02 -0.91458761411E+01  0.17656476291E+03  0.18569174655E+03  0.00000000000E+00 0. -1.
         -5    1    5    5    0  502 -0.71262807657E+02  0.10160911898E+03  0.20395405868E+02  0.12586049180E+03  0.47000000000E+01 0.  1.
         13    1    6    6    0    0 -0.36850262056E+02 -0.68826730186E+01  0.39230919968E+02  0.54262123834E+02  0.00000000000E+00 0. -1.
        -14    1    6    6    0    0  0.27441651099E+01 -0.21499097425E+02 -0.28836406620E+02  0.36073258503E+02  0.00000000000E+00 0.  1.
</event>
<event>
12    1  0.8219652E-002  0.2231534E+03  0.7818608E-02  0.1131642E+00
         21   -1    0    0  503  502  0.00000000000E+00  0.00000000000E+00  0.28084074413E+03  0.28084074413E+03  0.00000000000E+00 0.  1.
         21   -1    0    0  501  503 -0.00000000000E+00 -0.00000000000E+00 -0.56178165487E+03  0.56178165487E+03  0.00000000000E+00 0.  1.
          6    2    1    2  501    0  0.10446555590E+02  0.14195823959E+03 -0.48922896332E+03  0.53771963483E+03  0.17186085891E+03 0.  0.
         24    2    3    3    0    0 -0.11617730657E+02  0.10889161205E+03 -0.18121060533E+03  0.22711114583E+03  0.82157374799E+02 0.  0.
         -6    2    1    2    0  502 -0.10446555590E+02 -0.14195823959E+03  0.20828805258E+03  0.30490276417E+03  0.17123232883E+03 0.  0.
        -24    2    5    5    0    0 -0.28499509110E+02 -0.15844314430E+03  0.21419015768E+03  0.27931788467E+03  0.78896166286E+02 0.  0.
          5    1    3    3  501    0  0.22064286247E+02  0.33066627539E+02 -0.30801835799E+03  0.31060848901E+03  0.47000000000E+01 0. -1.
        -11    1    4    4    0    0  0.31915149741E+02  0.75297642517E+02 -0.10342970223E+03  0.13185603913E+03  0.00000000000E+00 0.  1.
         12    1    4    4    0    0 -0.43532880398E+02  0.33593969537E+02 -0.77780903099E+02  0.95255106697E+02  0.00000000000E+00 0. -1.
         -5    1    5    5    0  502  0.18052953520E+02  0.16484904707E+02 -0.59021051040E+01  0.25584879493E+02  0.47000000000E+01 0.  1.
         11    1    6    6    0    0 -0.26564112662E+02 -0.10265218981E+03  0.76522912305E+02  0.13076268681E+03  0.00000000000E+00 0. -1.
        -12    1    6    6    0    0 -0.19353964486E+01 -0.55790954494E+02  0.13766724538E+03  0.14855519786E+03  0.00000000000E+00 0.  1.
</event>
<event>
12    1  0.8219652E-002  0.1875814E+03  0.7818608E-02  0.1160770E+00
         21   -1    0    0  501  502  0.00000000000E+00  0.00000000000E+00  0.95425343779E+02  0.95425343779E+02  0.00000000000E+00 0.  1.
         21   -1    0    0  502  503 -0.00000000000E+00 -0.00000000000E+00 -0.46966447551E+03  0.46966447551E+03  0.00000000000E+00 0. -1.
         -6    2    1    2    0  503 -0.56634644689E+02 -0.46741061658E+02 -0.31851456812E+03  0.36940640083E+03  0.17209691759E+03 0.  0.
        -24    2    3    3    0    0  0.25725012756E+02  0.93375384876E+01 -0.15073198302E+03  0.17421160471E+03  0.82949301409E+02 0.  0.
          6    2    1    2  501    0  0.56634644689E+02  0.46741061658E+02 -0.55724563602E+02  0.19568341845E+03  0.17261101774E+03 0.  0.
         24    2    5    5    0    0  0.69888210455E+02  0.41503463850E+02  0.19561317507E+02  0.11891660706E+03  0.84567220722E+02 0.  0.
          5    1    5    5  501    0 -0.13253565767E+02  0.52375978074E+01 -0.75285881109E+02  0.76766811388E+02  0.47000000000E+01 0. -1.
        -11    1    6    6    0    0  0.46652820996E+02  0.18060761402E+02 -0.30766819913E+02  0.58730520318E+02  0.00000000000E+00 0.  1.
         12    1    6    6    0    0  0.23235389459E+02  0.23442702448E+02  0.50328137421E+02  0.60186086745E+02  0.00000000000E+00 0. -1.
         -5    1    3    3    0  503 -0.82359657445E+02 -0.56078600145E+02 -0.16778258510E+03  0.19519479612E+03  0.47000000000E+01 0.  1.
         11    1    4    4    0    0 -0.11059837881E+02  0.23928278942E+01 -0.13175790964E+03  0.13224292946E+03  0.00000000000E+00 0. -1.
        -12    1    4    4    0    0  0.36784850638E+02  0.69447105934E+01 -0.18974073380E+02  0.41968675250E+02  0.00000000000E+00 0.  1.
</event>
<event>
12    1  0.8219652E-002  0.2037077E+03  0.7818608E-02  0.1146853E+00
         21   -1    0    0  503  502  0.00000000000E+00  0.00000000000E+00  0.13289217850E+03  0.13289217850E+03  0.00000000000E+00 0. -1.
         21   -1    0    0  501  503 -0.00000000000E+00 -0.00000000000E+00 -0.32114498685E+03  0.32114498685E+03  0.00000000000E+00 0. -1.
          6    2    1    2  501    0  0.11309593571E+01 -0.10947560938E+03 -0.53041280276E+02  0.20953971994E+03  0.17060870054E+03 0.  0.
         24    2    3    3    0    0 -0.53884960581E+02 -0.11249037894E+03 -0.40378423377E+02  0.15280984927E+03  0.78503239599E+02 0.  0.
         -6    2    1    2    0  502 -0.11309593571E+01  0.10947560938E+03 -0.13521152807E+03  0.24449744541E+03  0.17178665655E+03 0.  0.
        -24    2    5    5    0    0  0.31499894422E+02  0.12277716994E+03 -0.14403921983E+03  0.20786791806E+03  0.79970605256E+02 0.  0.
          5    1    3    3  501    0  0.55015919938E+02  0.30147695566E+01 -0.12662856899E+02  0.56729870676E+02  0.47000000000E+01 0. -1.
        -11    1    4    4    0    0 -0.40439458960E+02 -0.73650097425E+02  0.13441523689E+02  0.85090312320E+02  0.00000000000E+00 0.  1.
         12    1    4    4    0    0 -0.13445501621E+02 -0.38840281516E+02 -0.53819947066E+02  0.67719536946E+02  0.00000000000E+00 0. -1.
         -5    1    5    5    0  502 -0.32630853779E+02 -0.13301560556E+02  0.88276917577E+01  0.36629527343E+02  0.47000000000E+01 0.  1.
         11    1    6    6    0    0  0.90803668285E+01  0.35512435211E+02 -0.10211174735E+03  0.10849145157E+03  0.00000000000E+00 0. -1.
        -12    1    6    6    0    0  0.22419527594E+02  0.87264734729E+02 -0.41927472474E+02  0.99376466494E+02  0.00000000000E+00 0.  1.
</event>
<event>
12    1  0.8219652E-002  0.3568273E+03  0.7818608E-02  0.1060534E+00
         21   -1    0    0  501  502  0.00000000000E+00  0.00000000000E+00  0.90658523990E+03  0.90658523990E+03  0.00000000000E+00 0.  1.
         21   -1    0    0  502  503 -0.00000000000E+00 -0.00000000000E+00 -0.24615046590E+03  0.24615046590E+03  0.00000000000E+00 0.  1.
         -6    2    1    2    0  503 -0.30035223025E+03 -0.84815148966E+02 -0.50419552961E+02  0.36037184808E+03  0.17297591120E+03 0.  0.
        -24    2    3    3    0    0 -0.14990344556E+03 -0.46276033993E+02  0.38671281958E+02  0.18126470957E+03  0.82151765501E+02 0.  0.
          6    2    1    2  501    0  0.30035223025E+03  0.84815148966E+02  0.71085432696E+03  0.79236385771E+03  0.15849775120E+03 0.  0.
         24    2    5    5    0    0  0.19359992746E+03 -0.19313501617E+01  0.47845963897E+03  0.52227055852E+03  0.79738623923E+02 0.  0.
          5    1    5    5  501    0  0.10675230280E+03  0.86746499127E+02  0.23239468799E+03  0.27009329919E+03  0.47000000000E+01 0. -1.
        -13    1    6    6    0    0  0.11582310552E+03 -0.16428424016E+02  0.36978323172E+03  0.38784600468E+03  0.00000000000E+00 0.  1.
         14    1    6    6    0    0  0.77776821930E+02  0.14497073855E+02  0.10867640725E+03  0.13442455383E+03  0.00000000000E+00 0. -1.
         -5    1    3    3    0  503 -0.15044878469E+03 -0.38539114973E+02 -0.89090834920E+02  0.17910713851E+03  0.47000000000E+01 0.  1.
         11    1    4    4    0    0  0.39812767863E+00 -0.15392369496E+02 -0.12162616080E+02  0.19621742386E+02  0.00000000000E+00 0. -1.
        -12    1    4    4    0    0 -0.15030157324E+03 -0.30883664497E+02  0.50833898039E+02  0.16164296718E+03  0.00000000000E+00 0.  1.
</event>
<event>
12    1  0.8219652E-002  0.2015639E+03  0.7818608E-02  0.1148652E+00
         21   -1    0    0  501  502  0.00000000000E+00  0.00000000000E+00  0.35623954855E+03  0.35623954855E+03  0.00000000000E+00 0. -1.
         21   -1    0    0  502  503 -0.00000000000E+00 -0.00000000000E+00 -0.11365426720E+03  0.11365426720E+03  0.00000000000E+00 0. -1.
         -6    2    1    2    0  503  0.10033323593E+03  0.30023849985E+02  0.13187721938E+03  0.24087255436E+03  0.17222019816E+03 0.  0.
        -24    2    3    3    0    0 -0.49324044799E+01  0.40127219823E+02  0.91030366017E+02  0.12741115757E+03  0.79451577406E+02 0.  0.
          6    2    1    2  501    0 -0.10033323593E+03 -0.30023849985E+02  0.11070806198E+03  0.22902126138E+03  0.17095693428E+03 0.  0.
         24    2    5    5    0    0 -0.19073925039E+02  0.20424581327E+02  0.36311217079E+01  0.85370013685E+02  0.80584589426E+02 0.  0.
          5    1    5    5  501    0 -0.81259310887E+02 -0.50448431312E+02  0.10707694027E+03  0.14365124770E+03  0.47000000000E+01 0. -1.
        -11    1    6    6    0    0 -0.31795795516E+02 -0.17833969015E+01 -0.29564488939E+02  0.43453562837E+02  0.00000000000E+00 0.  1.
         12    1    6    6    0    0  0.12721870478E+02  0.22207978229E+02  0.33195610647E+02  0.41916450848E+02  0.00000000000E+00 0. -1.
         -5    1    3    3    0  503  0.10526564041E+03 -0.10103369838E+02  0.40846853364E+02  0.11346139679E+03  0.47000000000E+01 0.  1.
         11    1    4    4    0    0  0.26342907604E+02  0.41339648869E+02  0.26577975180E+02  0.55761134442E+02  0.00000000000E+00 0. -1.
        -12    1    4    4    0    0 -0.31275312084E+02 -0.12124290455E+01  0.64452390837E+02  0.71650023131E+02  0.00000000000E+00 0.  1.
</event>
<event>
12    1  0.8219652E-002  0.1779846E+03  0.7818608E-02  0.1170262E+00
         21   -1    0    0  503  502  0.00000000000E+00  0.00000000000E+00  0.64421389469E+02  0.64421389469E+02  0.00000000000E+00 0. -1.
         21   -1    0    0  501  503 -0.00000000000E+00 -0.00000000000E+00 -0.50612358511E+03  0.50612358511E+03  0.00000000000E+00 0. -1.
          6    2    1    2  501    0 -0.36653487207E+02 -0.17447676705E+02 -0.16549775066E+03  0.24303910457E+03  0.17329339667E+03 0.  0.
         24    2    3    3    0    0 -0.16379942380E+02 -0.49983357372E+02 -0.17717802963E+03  0.20268930837E+03  0.83212156659E+02 0.  0.
         -6    2    1    2    0  502  0.36653487207E+02  0.17447676705E+02 -0.27620444497E+03  0.32750587001E+03  0.17124047395E+03 0.  0.
        -24    2    5    5    0    0  0.76686726540E+02  0.45005274445E+02 -0.15135556261E+03  0.19344836417E+03  0.81286127417E+02 0.  0.
          5    1    3    3  501    0 -0.20273544827E+02  0.32535680668E+02  0.11680278972E+02  0.40349796198E+02  0.47000000000E+01 0. -1.
        -11    1    4    4    0    0  0.13611414446E+01  0.11312134783E+02 -0.10790649608E+03  0.10850635463E+03  0.00000000000E+00 0.  1.
         12    1    4    4    0    0 -0.17741083825E+02 -0.61295492155E+02 -0.69271533556E+02  0.94182953739E+02  0.00000000000E+00 0. -1.
         -5    1    5    5    0  502 -0.40033239333E+02 -0.27557597740E+02 -0.12484888236E+03  0.13405750584E+03  0.47000000000E+01 0.  1.
         13    1    6    6    0    0  0.26273153602E+02  0.56279456287E+02 -0.50181108673E+02  0.79848603418E+02  0.00000000000E+00 0. -1.
        -14    1    6    6    0    0  0.50413572939E+02 -0.11274181842E+02 -0.10117445394E+03  0.11359976075E+03  0.00000000000E+00 0.  1.
</event>
<event>
12    1  0.8219652E-002  0.2111589E+03  0.7818608E-02  0.1140746E+00
         21   -1    0    0  503  502  0.00000000000E+00  0.00000000000E+00  0.70497110302E+03  0.70497110302E+03  0.00000000000E+00 0.  1.
         21   -1    0    0  501  503 -0.00000000000E+00 -0.00000000000E+00 -0.94790870369E+02  0.94790870369E+02  0.00000000000E+00 0.  1.
          6    2    1    2  501    0  0.27473467443E+02 -0.11892932968E+03  0.53605765681E+03  0.57597138025E+03  0.17171558630E+03 0.  0.
         24    2    3    3    0    0 -0.46038109976E+02 -0.34554393437E+02  0.26427239577E+03  0.28201151905E+03  0.79856646785E+02 0.  0.
         -6    2    1    2    0  502 -0.27473467443E+02  0.11892932968E+03  0.74122575848E+02  0.22379059314E+03  0.17230524210E+03 0.  0.
        -24    2    5    5    0    0 -0.85957527559E+02  0.10386501291E+03  0.34841202167E+02  0.15159339620E+03  0.59916700108E+02 0.  0.
          5    1    3    3  501    0  0.73511577418E+02 -0.84374936247E+02  0.27178526103E+03  0.29395986120E+03  0.47000000000E+01 0. -1.
        -13    1    4    4    0    0 -0.73546220634E+00 -0.12875266156E+02  0.20013637775E+03  0.20055144747E+03  0.00000000000E+00 0.  1.
         14    1    4    4    0    0 -0.45302647769E+02 -0.21679127281E+02  0.64136018019E+02  0.81460071581E+02  0.00000000000E+00 0. -1.
         -5    1    5    5    0  502  0.58484060117E+02  0.15064316772E+02  0.39281373681E+02  0.72197196939E+02  0.47000000000E+01 0.  1.
         11    1    6    6    0    0  0.73115179607E+01  0.21679078489E+02  0.17164360041E+01  0.22943122969E+02  0.00000000000E+00 0. -1.
        -12    1    6    6    0    0 -0.93269045520E+02  0.82185934423E+02  0.33124766163E+02  0.12865027323E+03  0.00000000000E+00 0.  1.
</event>
<event>
12    1  0.8219652E-002  0.2116521E+03  0.7818608E-02  0.1142333E+00
         21   -1    0    0  501  502  0.00000000000E+00  0.00000000000E+00  0.83981852916E+02  0.83981852916E+02  0.00000000000E+00 0. -1.
         21   -1    0    0  502  503 -0.00000000000E+00 -0.00000000000E+00 -0.10850366105E+04  0.10850366105E+04  0.00000000000E+00 0. -1.
         -6    2    1    2    0  503 -0.12141290012E+03 -0.14718748055E+02 -0.92095896371E+03  0.94271791268E+03  0.15998098698E+03 0.  0.
        -24    2    3    3    0    0 -0.48518203650E+02 -0.57967482928E+02 -0.62999677935E+03  0.63962523285E+03  0.80686128567E+02 0.  0.
          6    2    1    2  501    0  0.12141290012E+03  0.14718748055E+02 -0.80095793841E+02  0.22630055070E+03  0.17273930994E+03 0.  0.
         24    2    5    5    0    0  0.67439275468E+02  0.76374690826E+02 -0.48966016089E+02  0.13851808947E+03  0.80052739519E+02 0.  0.
          5    1    5    5  501    0  0.53973624650E+02 -0.61655942771E+02 -0.31129777752E+02  0.87782461231E+02  0.47000000000E+01 0. -1.
        -13    1    6    6    0    0 -0.12488524601E+02  0.11597147056E+01  0.79853614382E+01  0.14868563556E+02  0.00000000000E+00 0.  1.
         14    1    6    6    0    0  0.79927800069E+02  0.75214976120E+02 -0.56951377527E+02  0.12364952591E+03  0.00000000000E+00 0. -1.
         -5    1    3    3    0  503 -0.72894696467E+02  0.43248734873E+02 -0.29096218436E+03  0.30309267984E+03  0.47000000000E+01 0.  1.
         11    1    4    4    0    0 -0.29214529313E+02  0.15156324500E+02 -0.13934832785E+03  0.14318225927E+03  0.00000000000E+00 0. -1.
        -12    1    4    4    0    0 -0.19303674337E+02 -0.73123807428E+02 -0.49064845149E+03  0.49644297357E+03  0.00000000000E+00 0.  1.
</event>
<event>
12    1  0.8219652E-002  0.1786104E+03  0.7818608E-02  0.1169335E+00
         21   -1    0    0  503  502  0.00000000000E+00  0.00000000000E+00  0.66894973068E+03  0.66894973068E+03  0.00000000000E+00 0.  1.
         21   -1    0    0  501  503 -0.00000000000E+00 -0.00000000000E+00 -0.56408064539E+02  0.56408064539E+02  0.00000000000E+00 0.  1.
          6    2    1    2  501    0  0.34390170205E+02 -0.31678741135E+02  0.16155528966E+03  0.24029039854E+03  0.17161916433E+03 0.  0.
         24    2    3    3    0    0  0.86787850961E+02 -0.16251976704E+02  0.49118434528E+02  0.11519987771E+03  0.55336546620E+02 0.  0.
         -6    2    1    2    0  502 -0.34390170205E+02  0.31678741135E+02  0.45098637648E+03  0.48506739668E+03  0.17238167277E+03 0.  0.
        -24    2    5    5    0    0 -0.82013405312E+02  0.18103576177E+02  0.22415090988E+03  0.25284191029E+03  0.81433795657E+02 0.  0.
          5    1    3    3  501    0 -0.52397680756E+02 -0.15426764432E+02  0.11243685513E+03  0.12509052083E+03  0.47000000000E+01 0. -1.
        -13    1    4    4    0    0  0.25119154731E+02 -0.46088139050E+01 -0.11443890633E+02  0.27985277072E+02  0.00000000000E+00 0.  1.
         14    1    4    4    0    0  0.61668696230E+02 -0.11643162799E+02  0.60562325161E+02  0.87214600633E+02  0.00000000000E+00 0. -1.
         -5    1    5    5    0  502  0.47623235107E+02  0.13575164958E+02  0.22683546659E+03  0.23222548639E+03  0.47000000000E+01 0.  1.
         13    1    6    6    0    0 -0.75967481140E+02  0.34909975487E+02  0.11465991991E+03  0.14190370613E+03  0.00000000000E+00 0. -1.
        -14    1    6    6    0    0 -0.60459241716E+01 -0.16806399310E+02  0.10949098997E+03  0.11093820415E+03  0.00000000000E+00 0.  1.
</event>
<event>
12    1  0.8219652E-002  0.2054872E+03  0.7818608E-02  0.1145751E+00
         21   -1    0    0  501  502  0.00000000000E+00  0.00000000000E+00  0.28972891472E+03  0.28972891472E+03  0.00000000000E+00 0. -1.
         21   -1    0    0  502  503 -0.00000000000E+00 -0.00000000000E+00 -0.16761870219E+03  0.16761870219E+03  0.00000000000E+00 0.  1.
         -6    2    1    2    0  503  0.81319417185E+02  0.76169813173E+02 -0.24780403568E+02  0.20697600724E+03  0.17265662780E+03 0.  0.
        -24    2    3    3    0    0  0.58603394587E+02  0.89849546923E+02  0.42362957543E+02  0.13463325543E+03  0.69456420566E+02 0.  0.
          6    2    1    2  501    0 -0.81319417185E+02 -0.76169813173E+02  0.14689061609E+03  0.25037160966E+03  0.16939422003E+03 0.  0.
         24    2    5    5    0    0 -0.47379822287E+02 -0.10284624916E+03  0.62326061514E+02  0.15530961815E+03  0.86106567815E+02 0.  0.
          5    1    5    5  501    0 -0.33939594898E+02  0.26676435985E+02  0.84564554579E+02  0.95061991510E+02  0.47000000000E+01 0. -1.
        -11    1    6    6    0    0  0.20196588756E+00 -0.69677628421E+02 -0.66645965531E+00  0.69681108351E+02  0.00000000000E+00 0.  1.
         12    1    6    6    0    0 -0.47581788175E+02 -0.33168620737E+02  0.62992521169E+02  0.85628509801E+02  0.00000000000E+00 0. -1.
         -5    1    3    3    0  503  0.22716022598E+02 -0.13679733750E+02 -0.67143361111E+02  0.72342751810E+02  0.47000000000E+01 0.  1.
         11    1    4    4    0    0 -0.26875402553E+01 -0.68836824965E+01 -0.67700617149E+01  0.10022060315E+02  0.00000000000E+00 0. -1.
        -12    1    4    4    0    0  0.61290934843E+02  0.96733229420E+02  0.49133019258E+02  0.12461119512E+03  0.00000000000E+00 0.  1.
</event>
<event>
12    1  0.8219652E-002  0.2104022E+03  0.7818608E-02  0.1141685E+00
         21   -1    0    0  503  502  0.00000000000E+00  0.00000000000E+00  0.72578716100E+02  0.72578716100E+02  0.00000000000E+00 0. -1.
         21   -1    0    0  501  503 -0.00000000000E+00 -0.00000000000E+00 -0.12327578165E+04  0.12327578165E+04  0.00000000000E+00 0. -1.
          6    2    1    2  501    0 -0.11882009718E+03 -0.21277130455E+02 -0.10448649583E+04  0.10654064787E+04  0.16963859258E+03 0.  0.
         24    2    3    3    0    0 -0.37551419665E+02  0.38048618577E+02 -0.68482334953E+03  0.69153993505E+03  0.79916551610E+02 0.  0.
         -6    2    1    2    0  502  0.11882009718E+03  0.21277130455E+02 -0.11531414212E+03  0.23993005388E+03  0.17233150497E+03 0.  0.
        -24    2    5    5    0    0  0.13102070081E+03  0.31667552095E+02 -0.38914519182E+02  0.16172642240E+03  0.80447734609E+02 0.  0.
          5    1    3    3  501    0 -0.81268677520E+02 -0.59325749032E+02 -0.36004160876E+03  0.37386654368E+03  0.47000000000E+01 0. -1.
        -11    1    4    4    0    0 -0.26547129378E+01  0.25147780489E+02 -0.54078608118E+02  0.59698862806E+02  0.00000000000E+00 0.  1.
         12    1    4    4    0    0 -0.34896706727E+02  0.12900838089E+02 -0.63074474141E+03  0.63184107225E+03  0.00000000000E+00 0. -1.
         -5    1    5    5    0  502 -0.12200603624E+02 -0.10390421640E+02 -0.76399622942E+02  0.78203631477E+02  0.47000000000E+01 0.  1.
         13    1    6    6    0    0  0.61456054612E+02 -0.25312126452E+02 -0.23476985124E+02  0.70489142600E+02  0.00000000000E+00 0. -1.
        -14    1    6    6    0    0  0.69564646197E+02  0.56979678547E+02 -0.15437534058E+02  0.91237279801E+02  0.00000000000E+00 0.  1.
</event>
<event>
12    1  0.8219652E-002  0.1989788E+03  0.7818608E-02  0.1152206E+00
         21   -1    0    0  501  502  0.00000000000E+00  0.00000000000E+00  0.58704210569E+03  0.58704210569E+03  0.00000000000E+00 0.  1.
         21   -1    0    0  502  503 -0.00000000000E+00 -0.00000000000E+00 -0.73808317353E+02  0.73808317353E+02  0.00000000000E+00 0.  1.
         -6    2    1    2    0  503 -0.95430054827E+02  0.30095783366E+02  0.13795906984E+03  0.23608736217E+03  0.16337651632E+03 0.  0.
        -24    2    3    3    0    0 -0.53056480719E+02  0.78165083712E+02  0.81290147443E+02  0.15041569717E+03  0.84214152172E+02 0.  0.
          6    2    1    2  501    0  0.95430054827E+02 -0.30095783366E+02  0.37527471849E+03  0.42476306087E+03  0.17198805772E+03 0.  0.
         24    2    5    5    0    0  0.73537942888E+02 -0.55417769898E+02  0.17270075241E+03  0.21938835624E+03  0.99129928405E+02 0.  0.
          5    1    5    5  501    0  0.21892111939E+02  0.25321986531E+02  0.20257396608E+03  0.20537470463E+03  0.47000000000E+01 0. -1.
        -13    1    6    6    0    0 -0.10158459981E+01 -0.57001444564E+02  0.50129992000E+02  0.75915826567E+02  0.00000000000E+00 0.  1.
         14    1    6    6    0    0  0.74553788886E+02  0.15836746667E+01  0.12257076041E+03  0.14347252967E+03  0.00000000000E+00 0. -1.
         -5    1    3    3    0  503 -0.42373574108E+02 -0.48069300346E+02  0.56668922398E+02  0.85671665002E+02  0.47000000000E+01 0.  1.
         11    1    4    4    0    0 -0.34251837776E+02 -0.96595853451E+01  0.32545362870E+02  0.48225476923E+02  0.00000000000E+00 0. -1.
        -12    1    4    4    0    0 -0.18804642943E+02  0.87824669058E+02  0.48744784573E+02  0.10219022025E+03  0.00000000000E+00 0.  1.
</event>
<event>
12    1  0.8219652E-002  0.1918013E+03  0.7818608E-02  0.1157431E+00
         21   -1    0    0  503  502  0.00000000000E+00  0.00000000000E+00  0.75952883476E+03  0.75952883476E+03  0.00000000000E+00 0.  1.
         21   -1    0    0  501  503 -0.00000000000E+00 -0.00000000000E+00 -0.55905667910E+02  0.55905667910E+02  0.00000000000E+00 0. -1.
          6    2    1    2  501    0 -0.11980375222E+02 -0.77544747092E+02  0.19842475985E+03  0.27597122734E+03  0.17501718718E+03 0.  0.
         24    2    3    3    0    0 -0.40573579850E+02 -0.85772200929E+02  0.66805817288E+02  0.14094938323E+03  0.80003909747E+02 0.  0.
         -6    2    1    2    0  502  0.11980375222E+02  0.77544747092E+02  0.50519840700E+03  0.53946327533E+03  0.17215829285E+03 0.  0.
        -24    2    5    5    0    0 -0.14765768302E+02  0.91610502910E+02  0.21238438485E+03  0.24505651038E+03  0.79593053672E+02 0.  0.
          5    1    3    3  501    0  0.28593204628E+02  0.82274538374E+01  0.13161894256E+03  0.13502184411E+03  0.47000000000E+01 0. -1.
        -11    1    4    4    0    0 -0.62506012167E+01  0.68907095945E+01  0.36387685417E+02  0.37558162153E+02  0.00000000000E+00 0.  1.
         12    1    4    4    0    0 -0.34322978633E+02 -0.92662910524E+02  0.30418131871E+02  0.10339122108E+03  0.00000000000E+00 0. -1.
         -5    1    5    5    0  502  0.26746143524E+02 -0.14065755818E+02  0.29281402215E+03  0.29440676495E+03  0.47000000000E+01 0.  1.
         13    1    6    6    0    0 -0.45743566619E+02  0.41421377375E+02  0.12805350732E+03  0.14214747668E+03  0.00000000000E+00 0. -1.
        -14    1    6    6    0    0  0.30977798317E+02  0.50189125535E+02  0.84330877530E+02  0.10290903369E+03  0.00000000000E+00 0.  1.
</event>
<event>
12    1  0.8219652E-002  0.1806053E+03  0.7818608E-02  0.1167367E+00
         21   -1    0    0  503  502  0.00000000000E+00  0.00000000000E+00  0.97251979149E+02  0.97251979149E+02  0.00000000000E+00 0.  1.
         21   -1    0    0  501  503 -0.00000000000E+00 -0.00000000000E+00 -0.40079005195E+03  0.40079005195E+03  0.00000000000E+00 0.  1.
          6    2    1    2  501    0  0.41491494933E+02  0.36149013879E+02 -0.25344474592E+03  0.31121133831E+03  0.17201733199E+03 0.  0.
         24    2    3    3    0    0  0.94501728495E+02  0.28724819475E+02 -0.17351181433E+03  0.21489640138E+03  0.79488500244E+02 0.  0.
         -6    2    1    2    0  502 -0.41491494933E+02 -0.36149013879E+02 -0.50093326888E+02  0.18683069279E+03  0.17137114989E+03 0.  0.
        -24    2    5    5    0    0  0.62511878637E+01  0.21986761994E+02  0.15275172601E+02  0.87059640262E+02  0.82604812280E+02 0.  0.
          5    1    3    3  501    0 -0.53010233562E+02  0.74241944042E+01 -0.79932931588E+02  0.96314936937E+02  0.47000000000E+01 0. -1.
        -11    1    4    4    0    0  0.13398114890E+02 -0.17593626726E+02 -0.56884995629E+01  0.22834277113E+02  0.00000000000E+00 0.  1.
         12    1    4    4    0    0  0.81103613605E+02  0.46318446201E+02 -0.16782331477E+03  0.19206212427E+03  0.00000000000E+00 0. -1.
         -5    1    5    5    0  502 -0.47742682797E+02 -0.58135775873E+02 -0.65368499489E+02  0.99771052527E+02  0.47000000000E+01 0.  1.
         11    1    6    6    0    0 -0.33476589308E+02  0.29666227421E+02  0.32522279388E+01  0.44848010743E+02  0.00000000000E+00 0. -1.
        -12    1    6    6    0    0  0.39727777172E+02 -0.76794654267E+01  0.12022944663E+02  0.42211629518E+02  0.00000000000E+00 0.  1.
</event>
<event>
12    1  0.8219652E-002  0.2118509E+03  0.7818608E-02  0.1140304E+00
         21   -1    0    0  501  502  0.00000000000E+00  0.00000000000E+00  0.59316093746E+02  0.59316093746E+02  0.00000000000E+00 0.  1.
         21   -1    0    0  502  503 -0.00000000000E+00 -0.00000000000E+00 -0.16317565826E+04  0.16317565826E+04  0.00000000000E+00 0.  1.
         -6    2    1    2    0  503 -0.27056143207E+02  0.11983575452E+03 -0.14058297188E+04  0.14215547058E+04  0.17137076866E+03 0.  0.
        -24    2    3    3    0    0 -0.59624001569E+02  0.59500543809E+02 -0.51453773659E+03  0.52761707340E+03  0.80841557966E+02 0.  0.
          6    2    1    2  501    0  0.27056143207E+02 -0.11983575452E+03 -0.16661077003E+03  0.26951797053E+03  0.17259242394E+03 0.  0.
         24    2    5    5    0    0  0.62738887872E+01 -0.14827802955E+03 -0.16147552934E+03  0.23361078733E+03  0.80460659043E+02 0.  0.
          5    1    5    5  501    0  0.20782254420E+02  0.28442275036E+02 -0.51352406859E+01  0.35907183194E+02  0.47000000000E+01 0. -1.
        -13    1    6    6    0    0  0.41693184759E+02 -0.55217485447E+02 -0.63276640442E+02  0.93761535717E+02  0.00000000000E+00 0.  1.
         14    1    6    6    0    0 -0.35419295971E+02 -0.93060544106E+02 -0.98198888897E+02  0.13984925161E+03  0.00000000000E+00 0. -1.
         -5    1    3    3    0  503  0.32567858362E+02  0.60335210708E+02 -0.89129198224E+03  0.89393763242E+03  0.47000000000E+01 0.  1.
         13    1    4    4    0    0 -0.37454400664E+02 -0.10778537166E+02 -0.24946958412E+03  0.25249570767E+03  0.00000000000E+00 0. -1.
        -14    1    4    4    0    0 -0.22169600905E+02  0.70279080975E+02 -0.26506815247E+03  0.27512136573E+03  0.00000000000E+00 0.  1.
</event>
<event>
12    1  0.8219652E-002  0.2053240E+03  0.7818608E-02  0.1145395E+00
         21   -1    0    0  503  502  0.00000000000E+00  0.00000000000E+00  0.46470374659E+03  0.46470374659E+03  0.00000000000E+00 0. -1.
         21   -1    0    0  501  503 -0.00000000000E+00 -0.00000000000E+00 -0.10001098053E+03  0.10001098053E+03  0.00000000000E+00 0. -1.
          6    2    1    2  501    0 -0.99165247770E+02 -0.51940845418E+02  0.95430351490E+02  0.22609961045E+03  0.17170464196E+03 0.  0.
         24    2    3    3    0    0 -0.13502618703E+03 -0.45668355059E+02  0.98185327016E+02  0.18928886487E+03  0.76630581907E+02 0.  0.
         -6    2    1    2    0  502  0.99165247770E+02  0.51940845418E+02  0.26926241457E+03  0.33861511667E+03  0.17212307093E+03 0.  0.
        -24    2    5    5    0    0  0.69362888670E+02  0.48651731977E+02  0.28312955054E+03  0.30524767243E+03  0.76391084465E+02 0.  0.
          5    1    3    3  501    0  0.35860939263E+02 -0.62724903597E+01 -0.27549755265E+01  0.36810745582E+02  0.47000000000E+01 0. -1.
        -11    1    4    4    0    0  0.13205558069E+01  0.12059582492E+02  0.15561559873E+02  0.19731688807E+02  0.00000000000E+00 0.  1.
         12    1    4    4    0    0 -0.13634674284E+03 -0.57727937551E+02  0.82623767144E+02  0.16955717606E+03  0.00000000000E+00 0. -1.
         -5    1    5    5    0  502  0.29802359099E+02  0.32891134414E+01 -0.13867135965E+02  0.33367444238E+02  0.47000000000E+01 0.  1.
         11    1    6    6    0    0  0.29743805619E+02  0.54303162886E+02  0.98598176151E+02  0.11642649103E+03  0.00000000000E+00 0. -1.
        -12    1    6    6    0    0  0.39619083052E+02 -0.56514309089E+01  0.18453137439E+03  0.18882118140E+03  0.00000000000E+00 0.  1.
</event>
<event>
12    1  0.8219652E-002  0.2068980E+03  0.7818608E-02  0.1144237E+00
         21   -1    0    0  503  502  0.00000000000E+00  0.00000000000E+00  0.87753728385E+02  0.87753728385E+02  0.00000000000E+00 0.  1.
         21   -1    0    0  501  503 -0.00000000000E+00 -0.00000000000E+00 -0.50557566252E+03  0.50557566252E+03  0.00000000000E+00 0.  1.
          6    2    1    2  501    0  0.71258873905E+01  0.11417153529E+03 -0.26835391005E+03  0.33885188863E+03  0.17239740035E+03 0.  0.
         24    2    3    3    0    0  0.57762699083E+02  0.11041688744E+03 -0.23275820098E+03  0.27666403947E+03  0.82693362344E+02 0.  0.
         -6    2    1    2    0  502 -0.71258873905E+01 -0.11417153529E+03 -0.14946802408E+03  0.25447750227E+03  0.17126643337E+03 0.  0.
        -24    2    5    5    0    0 -0.16687840155E+02 -0.29338484585E+02 -0.14542085960E+03  0.16888225139E+03  0.78960482156E+02 0.  0.
          5    1    3    3  501    0 -0.50636811692E+02  0.37546478503E+01 -0.35595709076E+02  0.62187849162E+02  0.47000000000E+01 0. -1.
        -11    1    4    4    0    0 -0.94186659638E+01  0.71073910286E+02 -0.11038121677E+03  0.13162152182E+03  0.00000000000E+00 0.  1.
         12    1    4    4    0    0  0.67181365047E+02  0.39342977154E+02 -0.12237698421E+03  0.14504251764E+03  0.00000000000E+00 0. -1.
         -5    1    5    5    0  502  0.95619527648E+01 -0.84833050705E+02 -0.40471644814E+01  0.85595250878E+02  0.47000000000E+01 0.  1.
         11    1    6    6    0    0  0.20176526814E+02  0.15889476387E+02 -0.61729089414E+02  0.66858418872E+02  0.00000000000E+00 0. -1.
        -12    1    6    6    0    0 -0.36864366969E+02 -0.45227960972E+02 -0.83691770184E+02  0.10202383252E+03  0.00000000000E+00 0.  1.
</event>
<event>
12    1  0.8219652E-002  0.2437895E+03  0.7818608E-02  0.1117516E+00
         21   -1    0    0  503  502  0.00000000000E+00  0.00000000000E+00  0.69950748814E+02  0.69950748814E+02  0.00000000000E+00 0.  1.
         21   -1    0    0  501  503 -0.00000000000E+00 -0.00000000000E+00 -0.85084718736E+03  0.85084718736E+03  0.00000000000E+00 0. -1.
          6    2    1    2  501    0  0.57141595509E+02  0.16320683315E+03 -0.42995559241E+03  0.49426221868E+03  0.17184788927E+03 0.  0.
         24    2    3    3    0    0 -0.86903144428E+01  0.43395225051E+02 -0.85235094971E+02  0.12339435386E+03  0.77475660870E+02 0.  0.
         -6    2    1    2    0  502 -0.57141595509E+02 -0.16320683315E+03 -0.35094084613E+03  0.42653571749E+03  0.16991647503E+03 0.  0.
        -24    2    5    5    0    0 -0.95430239535E+02 -0.11838145087E+03 -0.31006697082E+03  0.35464622702E+03  0.80692759375E+02 0.  0.
          5    1    3    3  501    0  0.65831909952E+02  0.11981160809E+03 -0.34472049744E+03  0.37086786482E+03  0.47000000000E+01 0. -1.
        -11    1    4    4    0    0  0.23225580156E+02  0.45405894562E+02 -0.28912802814E+02  0.58626555426E+02  0.00000000000E+00 0.  1.
         12    1    4    4    0    0 -0.31915894599E+02 -0.20106695111E+01 -0.56322292158E+02  0.64767798433E+02  0.00000000000E+00 0. -1.
         -5    1    5    5    0  502  0.38288644026E+02 -0.44825382278E+02 -0.40873875314E+02  0.71889490476E+02  0.47000000000E+01 0.  1.
         11    1    6    6    0    0 -0.63865872029E+02 -0.95224709062E+02 -0.14423514380E+03  0.18425626592E+03  0.00000000000E+00 0. -1.
        -12    1    6    6    0    0 -0.31564367507E+02 -0.23156741806E+02 -0.16583182702E+03  0.17038996109E+03  0.00000000000E+00 0.  1.
</event>
<event>
12    1  0.8219652E-002  0.1974251E+03  0.7818608E-02  0.1152181E+00
         21   -1    0    0  501  502  0.00000000000E+00  0.00000000000E+00  0.12230553991E+03  0.12230553991E+03  0.00000000000E+00 0. -1.
         21   -1    0    0  502  503 -0.00000000000E+00 -0.00000000000E+00 -0.31957692864E+03  0.31957692864E+03  0.00000000000E+00 0. -1.
         -6    2    1    2    0  503 -0.36991472306E+02  0.86073936204E+02 -0.11950812908E+03  0.23077880472E+03  0.17378024133E+03 0.  0.
        -24    2    3    3    0    0 -0.31353838958E+02 -0.10420724510E+02 -0.12984841363E+02  0.86861108514E+02  0.79275414539E+02 0.  0.
          6    2    1    2  501    0  0.36991472306E+02 -0.86073936204E+02 -0.77763259650E+02  0.21110366383E+03  0.17245446011E+03 0.  0.
         24    2    5    5    0    0  0.14449649331E+02  0.98037562222E+01 -0.75992040600E+02  0.11248372211E+03  0.81073371107E+02 0.  0.
          5    1    5    5  501    0  0.22541822975E+02 -0.95877692426E+02 -0.17712190501E+01  0.98619941720E+02  0.47000000000E+01 0. -1.
        -13    1    6    6    0    0 -0.21924065884E+02 -0.13029308930E+02 -0.35651444228E+00  0.25505972999E+02  0.00000000000E+00 0.  1.
         14    1    6    6    0    0  0.36373715215E+02  0.22833065152E+02 -0.75635526158E+02  0.86977749108E+02  0.00000000000E+00 0. -1.
         -5    1    3    3    0  503 -0.56376333477E+01  0.96494660713E+02 -0.10652328772E+03  0.14391769621E+03  0.47000000000E+01 0.  1.
         13    1    4    4    0    0 -0.21052499401E+02 -0.30753947684E+02 -0.37857069295E+02  0.53124106814E+02  0.00000000000E+00 0. -1.
        -14    1    4    4    0    0 -0.10301339557E+02  0.20333223175E+02  0.24872227932E+02  0.33737001699E+02  0.00000000000E+00 0.  1.
</event>
<event>
12    1  0.8219652E-002  0.2022289E+03  0.7818608E-02  0.1148636E+00
         21   -1    0    0  501  502  0.00000000000E+00  0.00000000000E+00  0.86126216345E+02  0.86126216345E+02  0.00000000000E+00 0. -1.
         21   -1    0    0  502  503 -0.00000000000E+00 -0.00000000000E+00 -0.52279713503E+03  0.52279713503E+03  0.00000000000E+00 0.  1.
         -6    2    1    2    0  503  0.95720602418E+02  0.18347342165E+02 -0.32015673197E+03  0.37867775836E+03  0.17719326443E+03 0.  0.
        -24    2    3    3    0    0  0.35879045397E+02  0.77304117189E+02 -0.15838507110E+03  0.19633447351E+03  0.78728408529E+02 0.  0.
          6    2    1    2  501    0 -0.95720602418E+02 -0.18347342165E+02 -0.11651418672E+03  0.23024559302E+03  0.17302721956E+03 0.  0.
         24    2    5    5    0    0  0.15745516416E+02 -0.20975563453E+02 -0.84809927096E+02  0.11423329508E+03  0.71893159772E+02 0.  0.
          5    1    5    5  501    0 -0.11146611883E+03  0.26282212881E+01 -0.31704259627E+02  0.11601229794E+03  0.47000000000E+01 0. -1.
        -13    1    6    6    0    0  0.10470414785E+02 -0.46610768958E+02 -0.68086353639E+02  0.83174184219E+02  0.00000000000E+00 0.  1.
         14    1    6    6    0    0  0.52751016304E+01  0.25635205505E+02 -0.16723573458E+02  0.31059110864E+02  0.00000000000E+00 0. -1.
         -5    1    3    3    0  503  0.59841557021E+02 -0.58956775024E+02 -0.16177166087E+03  0.18234328484E+03  0.47000000000E+01 0.  1.
         13    1    4    4    0    0 -0.20812380349E+02  0.19602488184E+02 -0.16499157277E+02  0.33009618441E+02  0.00000000000E+00 0. -1.
        -14    1    4    4    0    0  0.56691425746E+02  0.57701629005E+02 -0.14188591382E+03  0.16332485507E+03  0.00000000000E+00 0.  1.
</event>
<event>
12    1  0.8219652E-002  0.2306630E+03  0.7818608E-02  0.1126299E+00
         21   -1    0    0  501  502  0.00000000000E+00  0.00000000000E+00  0.19472595867E+04  0.19472595867E+04  0.00000000000E+00 0. -1.
         21   -1    0    0  502  503 -0.00000000000E+00 -0.00000000000E+00 -0.42246958585E+02  0.42246958585E+02  0.00000000000E+00 0. -1.
         -6    2    1    2    0  503  0.14230067286E+03  0.58046277469E+02  0.35866964942E+03  0.42605458908E+03  0.17105479719E+03 0.  0.
        -24    2    3    3    0    0  0.12861168821E+03  0.10346129584E+03  0.27806239028E+03  0.33240880744E+03  0.77017636240E+02 0.  0.
          6    2    1    2  501    0 -0.14230067286E+03 -0.58046277469E+02  0.15463429787E+04  0.15634519562E+04  0.17200744101E+03 0.  0.
         24    2    5    5    0    0 -0.91724141676E+02 -0.14176826131E+02  0.13514487100E+04  0.13573248589E+04  0.85456751031E+02 0.  0.
          5    1    5    5  501    0 -0.50576531182E+02 -0.43869451338E+02  0.19489426876E+03  0.20612709736E+03  0.47000000000E+01 0. -1.
        -13    1    6    6    0    0 -0.11225716847E+02 -0.56445007476E+01  0.21407416342E+02  0.24822461237E+02  0.00000000000E+00 0.  1.
         14    1    6    6    0    0 -0.80498424829E+02 -0.85323253838E+01  0.13300412936E+04  0.13325023977E+04  0.00000000000E+00 0. -1.
         -5    1    3    3    0  503  0.13688984646E+02 -0.45415018371E+02  0.80607259137E+02  0.93645781645E+02  0.47000000000E+01 0.  1.
         13    1    4    4    0    0  0.64015776064E+02  0.67495824308E+02  0.86314482558E+02  0.12690112601E+03  0.00000000000E+00 0. -1.
        -14    1    4    4    0    0  0.64595912149E+02  0.35965471532E+02  0.19174790772E+03  0.20550768142E+03  0.00000000000E+00 0.  1.
</event>
<event>
12    1  0.8219652E-002  0.1747943E+03  0.7818608E-02  0.1173261E+00
         21   -1    0    0  503  502  0.00000000000E+00  0.00000000000E+00  0.40718487539E+03  0.40718487539E+03  0.00000000000E+00 0.  1.
         21   -1    0    0  501  503 -0.00000000000E+00 -0.00000000000E+00 -0.21465781948E+03  0.21465781948E+03  0.00000000000E+00 0.  1.
          6    2    1    2  501    0  0.27658786805E+02  0.17097799105E+02  0.34763540620E+03  0.38910593439E+03  0.17174314923E+03 0.  0.
         24    2    3    3    0    0  0.40520318432E+02 -0.50800604503E+02  0.24253410903E+03  0.26323304264E+03  0.79033177035E+02 0.  0.
         -6    2    1    2    0  502 -0.27658786805E+02 -0.17097799105E+02 -0.15510835030E+03  0.23273676049E+03  0.17044194357E+03 0.  0.
        -24    2    5    5    0    0 -0.16366215080E+02 -0.71563200204E+02 -0.62412499525E+02  0.12453041667E+03  0.78888275164E+02 0.  0.
          5    1    3    3  501    0 -0.12861531627E+02  0.67898403607E+02  0.10510129718E+03  0.12587289175E+03  0.47000000000E+01 0. -1.
        -11    1    4    4    0    0  0.22592204588E+02  0.89274825161E+01  0.14801774499E+03  0.14999786826E+03  0.00000000000E+00 0.  1.
         12    1    4    4    0    0  0.17928113843E+02 -0.59728087019E+02  0.94516364040E+02  0.11323517438E+03  0.00000000000E+00 0. -1.
         -5    1    5    5    0  502 -0.11292571724E+02  0.54465401100E+02 -0.92695850772E+02  0.10820634382E+03  0.47000000000E+01 0.  1.
         11    1    6    6    0    0 -0.46665750726E+02 -0.52030207567E+02 -0.51658921653E+02  0.86910752940E+02  0.00000000000E+00 0. -1.
        -12    1    6    6    0    0  0.30299535646E+02 -0.19532992637E+02 -0.10753577872E+02  0.37619663725E+02  0.00000000000E+00 0.  1.
</event>
<event>
12    1  0.8219652E-002  0.2127085E+03  0.7818608E-02  0.1141779E+00
         21   -1    0    0  503  502  0.00000000000E+00  0.00000000000E+00  0.35616642100E+03  0.35616642100E+03  0.00000000000E+00 0.  1.
         21   -1    0    0  501  503 -0.00000000000E+00 -0.00000000000E+00 -0.22224711963E+03  0.22224711963E+03  0.00000000000E+00 0.  1.
          6    2    1    2  501    0 -0.10708664595E+03  0.62436185306E+02 -0.12798331956E+03  0.24824306077E+03  0.17285560495E+03 0.  0.
         24    2    3    3    0    0 -0.51440212428E+02  0.82501518951E+02 -0.14123743553E+03  0.18744088344E+03  0.75719716763E+02 0.  0.
         -6    2    1    2    0  502  0.10708664595E+03 -0.62436185306E+02  0.26190262093E+03  0.33017047986E+03  0.15828371977E+03 0.  0.
        -24    2    5    5    0    0  0.37459203823E+02 -0.51992014087E+02  0.57651889365E+02  0.11407440689E+03  0.74718595272E+02 0.  0.
          5    1    3    3  501    0 -0.55646433519E+02 -0.20065333645E+02  0.13254115975E+02  0.60802177329E+02  0.47000000000E+01 0. -1.
        -13    1    4    4    0    0 -0.63108649194E+02  0.36883773638E+02 -0.64904091264E+02  0.97753032810E+02  0.00000000000E+00 0.  1.
         14    1    4    4    0    0  0.11668436766E+02  0.45617745313E+02 -0.76333344270E+02  0.89687850635E+02  0.00000000000E+00 0. -1.
         -5    1    5    5    0  502  0.69627442124E+02 -0.10444171219E+02  0.20425073157E+03  0.21609607297E+03  0.47000000000E+01 0.  1.
         13    1    6    6    0    0  0.38158387758E+02 -0.53244501464E+00  0.19129488488E+01  0.38210017368E+02  0.00000000000E+00 0. -1.
        -14    1    6    6    0    0 -0.69918393485E+00 -0.51459569072E+02  0.55738940516E+02  0.75864389519E+02  0.00000000000E+00 0.  1.
</event>
<event>
12    1  0.8219652E-002  0.2221605E+03  0.7818608E-02  0.1132422E+00
         21   -1    0    0  503  502  0.00000000000E+00  0.00000000000E+00  0.13458563763E+03  0.13458563763E+03  0.00000000000E+00 0. -1.
         21   -1    0    0  501  503 -0.00000000000E+00 -0.00000000000E+00 -0.40097425547E+03  0.40097425547E+03  0.00000000000E+00 0. -1.
          6    2    1    2  501    0 -0.75220257425E+02 -0.11734157541E+03 -0.21267025581E+03  0.30699712467E+03  0.17202169748E+03 0.  0.
         24    2    3    3    0    0 -0.85882863985E+02 -0.10901239099E+03 -0.23269440456E+03  0.28237755877E+03  0.79566526068E+02 0.  0.
         -6    2    1    2    0  502  0.75220257425E+02  0.11734157541E+03 -0.53718362037E+02  0.22856276843E+03  0.17299752671E+03 0.  0.
        -24    2    5    5    0    0  0.20777546064E+02  0.13626006338E+03 -0.61032674752E+02  0.17027462918E+03  0.79183020034E+02 0.  0.
          5    1    3    3  501    0  0.10662606560E+02 -0.83291844249E+01  0.20024148751E+02  0.24619565899E+02  0.47000000000E+01 0. -1.
        -13    1    4    4    0    0 -0.70752143815E+01 -0.38035296944E+02 -0.17488767389E+02  0.42457030713E+02  0.00000000000E+00 0.  1.
         14    1    4    4    0    0 -0.78807649603E+02 -0.70977094041E+02 -0.21520563717E+03  0.23992052806E+03  0.00000000000E+00 0. -1.
         -5    1    5    5    0  502  0.54442711360E+02 -0.18918487969E+02  0.73143127150E+01  0.58288139255E+02  0.47000000000E+01 0.  1.
         11    1    6    6    0    0  0.29243736885E+02  0.92229716250E+01 -0.19561438940E+02  0.36371819394E+02  0.00000000000E+00 0. -1.
        -12    1    6    6    0    0 -0.84661908208E+01  0.12703709175E+03 -0.41471235812E+02  0.13390280978E+03  0.00000000000E+00 0.  1.
</event>
<event>
12    1  0.8219652E-002  0.1914680E+03  0.7818608E-02  0.1157896E+00
         21   -1    0    0  503  502  0.00000000000E+00  0.00000000000E+00  0.12960206684E+04  0.12960206684E+04  0.00000000000E+00 0. -1.
         21   -1    0    0  501  503 -0.00000000000E+00 -0.00000000000E+00 -0.51250196364E+02  0.51250196364E+02  0.00000000000E+00 0. -1.
          6    2    1    2  501    0  0.82908162687E+02 -0.17478686588E+02  0.16964954745E+03  0.25581428704E+03  0.17169948333E+03 0.  0.
         24    2    3    3    0    0 -0.22049798014E+02  0.20901902352E+00  0.31911538923E+02  0.81679633860E+02  0.71881701354E+02 0.  0.
         -6    2    1    2    0  502 -0.82908162687E+02  0.17478686588E+02  0.10751209246E+04  0.10914565777E+04  0.16796782624E+03 0.  0.
        -24    2    5    5    0    0  0.19963945374E+02  0.24528935223E+01  0.53050125758E+03  0.53698284817E+03  0.80711951635E+02 0.  0.
          5    1    3    3  501    0  0.10495796070E+03 -0.17687705611E+02  0.13773800853E+03  0.17413465318E+03  0.47000000000E+01 0. -1.
        -13    1    4    4    0    0 -0.83841555182E+01  0.35280815330E+02  0.23183721064E+02  0.43040851716E+02  0.00000000000E+00 0.  1.
         14    1    4    4    0    0 -0.13665642496E+02 -0.35071796306E+02  0.87278178588E+01  0.38638782144E+02  0.00000000000E+00 0. -1.
         -5    1    5    5    0  502 -0.10287210806E+03  0.15025793066E+02  0.54461966699E+03  0.55447372953E+03  0.47000000000E+01 0.  1.
         13    1    6    6    0    0  0.39355117047E+01  0.31786584104E+01  0.51379387708E+03  0.51381878152E+03  0.00000000000E+00 0. -1.
        -14    1    6    6    0    0  0.16028433669E+02 -0.72576488813E+00  0.16707380499E+02  0.23164066649E+02  0.00000000000E+00 0.  1.
</event>
<event>
12    1  0.8219652E-002  0.2368732E+03  0.7818608E-02  0.1125151E+00
         21   -1    0    0  503  502  0.00000000000E+00  0.00000000000E+00  0.13239159184E+03  0.13239159184E+03  0.00000000000E+00 0. -1.
         21   -1    0    0  501  503 -0.00000000000E+00 -0.00000000000E+00 -0.78020284415E+03  0.78020284415E+03  0.00000000000E+00 0. -1.
          6    2    1    2  501    0 -0.27817117218E+02  0.13302065124E+03  0.46073522007E+01  0.21850587254E+03  0.17104181645E+03 0.  0.
         24    2    3    3    0    0  0.18045594114E+02  0.12951703095E+03  0.44707165917E+02  0.15730335048E+03  0.75135268781E+02 0.  0.
         -6    2    1    2    0  502  0.27817117218E+02 -0.13302065124E+03 -0.65241860452E+03  0.69408856345E+03  0.19401188811E+03 0.  0.
        -24    2    5    5    0    0  0.20571486847E+02  0.10280267492E+02 -0.13111895330E+03  0.15338247986E+03  0.76191438128E+02 0.  0.
          5    1    3    3  501    0 -0.45862711332E+02  0.35036202840E+01 -0.40099813716E+02  0.61202522055E+02  0.47000000000E+01 0. -1.
        -11    1    4    4    0    0  0.87413187003E+01  0.62737129744E+02 -0.17340109785E+02  0.65673720075E+02  0.00000000000E+00 0.  1.
         12    1    4    4    0    0  0.93042754135E+01  0.66779901209E+02  0.62047275702E+02  0.91629630407E+02  0.00000000000E+00 0. -1.
         -5    1    5    5    0  502  0.72456303713E+01 -0.14330091873E+03 -0.52129965122E+03  0.54070608359E+03  0.47000000000E+01 0.  1.
         13    1    6    6    0    0  0.26010182593E+02 -0.29536109401E+02 -0.62322374130E+02  0.73708816801E+02  0.00000000000E+00 0. -1.
        -14    1    6    6    0    0 -0.54386957466E+01  0.39816376893E+02 -0.68796579169E+02  0.79673663062E+02  0.00000000000E+00 0.  1.
</event>
<event>
12    1  0.8219652E-002  0.2229395E+03  0.7818608E-02  0.1131997E+00
         21   -1    0    0  503  502  0.00000000000E+00  0.00000000000E+00  0.18080134706E+02  0.18080134706E+02  0.00000000000E+00 0. -1.
         21   -1    0    0  501  503 -0.00000000000E+00 -0.00000000000E+00 -0.28164677936E+04  0.28164677936E+04  0.00000000000E+00 0. -1.
          6    2    1    2  501    0  0.64775608806E+02  0.12388643882E+03 -0.11553251268E+04  0.11766385135E+04  0.17366149104E+03 0.  0.
         24    2    3    3    0    0  0.28024700731E+02  0.90622743601E+02 -0.10766113971E+04  0.10834985977E+04  0.76676236874E+02 0.  0.
         -6    2    1    2    0  502 -0.64775608806E+02 -0.12388643882E+03 -0.16430625320E+04  0.16579094148E+04  0.17165492804E+03 0.  0.
        -24    2    5    5    0    0  0.93376726336E+01 -0.12241748917E+03 -0.10606095410E+04  0.10707394964E+04  0.80729405707E+02 0.  0.
          5    1    3    3  501    0  0.36750908075E+02  0.33263695216E+02 -0.78713729700E+02  0.93139915756E+02  0.47000000000E+01 0. -1.
        -11    1    4    4    0    0  0.20497898288E+02 -0.26731284826E+01 -0.38863065024E+03  0.38918002486E+03  0.00000000000E+00 0.  1.
         12    1    4    4    0    0  0.75268024434E+01  0.93295872084E+02 -0.68798074690E+03  0.69431857285E+03  0.00000000000E+00 0. -1.
         -5    1    5    5    0  502 -0.74113281440E+02 -0.14689496492E+01 -0.58245299102E+03  0.58716991838E+03  0.47000000000E+01 0.  1.
         13    1    6    6    0    0 -0.25808836611E+02 -0.30668744715E+02 -0.49842709659E+03  0.50003623725E+03  0.00000000000E+00 0. -1.
        -14    1    6    6    0    0  0.35146509245E+02 -0.91748744454E+02 -0.56218244441E+03  0.57070325917E+03  0.00000000000E+00 0.  1.
</event>
<event>
12    1  0.8219652E-002  0.1773631E+03  0.7818608E-02  0.1170584E+00
         21   -1    0    0  503  502  0.00000000000E+00  0.00000000000E+00  0.96650015225E+02  0.96650015225E+02  0.00000000000E+00 0.  1.
         21   -1    0    0  501  503 -0.00000000000E+00 -0.00000000000E+00 -0.34209160939E+03  0.34209160939E+03  0.00000000000E+00 0.  1.
          6    2    1    2  501    0  0.30510438833E+01  0.43682379199E+02 -0.17348702552E+03  0.24810361767E+03  0.17187262131E+03 0.  0.
         24    2    3    3    0    0 -0.56356104383E+02  0.36540853415E+02 -0.15236142967E+03  0.18447507490E+03  0.79409089761E+02 0.  0.
         -6    2    1    2    0  502 -0.30510438833E+01 -0.43682379199E+02 -0.71954568647E+02  0.19063800695E+03  0.17102026378E+03 0.  0.
        -24    2    5    5    0    0 -0.28810300722E+01  0.37072717199E+02 -0.11329050682E+02  0.89549145408E+02  0.80672271315E+02 0.  0.
          5    1    3    3  501    0  0.59407148266E+02  0.71415257838E+01 -0.21125595849E+02  0.63628542774E+02  0.47000000000E+01 0. -1.
        -13    1    4    4    0    0  0.16697356965E+02  0.98037280212E+01 -0.63435236067E+02  0.66324535337E+02  0.00000000000E+00 0.  1.
         14    1    4    4    0    0 -0.73053461347E+02  0.26737125394E+02 -0.88926193605E+02  0.11815053956E+03  0.00000000000E+00 0. -1.
         -5    1    5    5    0  502 -0.17001381113E+00 -0.80755096398E+02 -0.60625517964E+02  0.10108886154E+03  0.47000000000E+01 0.  1.
         13    1    6    6    0    0  0.25257981826E+02  0.25882180396E+02  0.23705264492E+02  0.43241097033E+02  0.00000000000E+00 0. -1.
        -14    1    6    6    0    0 -0.28139011898E+02  0.11190536803E+02 -0.35034315175E+02  0.46308048375E+02  0.00000000000E+00 0.  1.
</event>
<event>
12    1  0.8219652E-002  0.1815368E+03  0.7818608E-02  0.1166879E+00
         21   -1    0    0  501  502  0.00000000000E+00  0.00000000000E+00  0.40926353016E+02  0.40926353016E+02  0.00000000000E+00 0. -1.
         21   -1    0    0  502  503 -0.00000000000E+00 -0.00000000000E+00 -0.87939322170E+03  0.87939322170E+03  0.00000000000E+00 0. -1.
         -6    2    1    2    0  503  0.33700206559E+02 -0.37575738490E+02 -0.55932032240E+03  0.58733546802E+03  0.17197700107E+03 0.  0.
        -24    2    3    3    0    0  0.82634174493E+02 -0.26106718796E+02 -0.27248808057E+03  0.29609519508E+03  0.76893711929E+02 0.  0.
          6    2    1    2  501    0 -0.33700206559E+02  0.37575738490E+02 -0.27914654629E+03  0.33298410670E+03  0.17437884323E+03 0.  0.
         24    2    5    5    0    0  0.16768077298E+02 -0.38661769406E+02 -0.13320982633E+03  0.16070868327E+03  0.79413614817E+02 0.  0.
          5    1    5    5  501    0 -0.50468283856E+02  0.76237507896E+02 -0.14593671996E+03  0.17227542343E+03  0.47000000000E+01 0. -1.
        -11    1    6    6    0    0  0.95511576898E+01 -0.60697956567E+02 -0.11781607889E+03  0.13287623937E+03  0.00000000000E+00 0.  1.
         12    1    6    6    0    0  0.72169196077E+01  0.22036187161E+02 -0.15393747441E+02  0.27832443901E+02  0.00000000000E+00 0. -1.
         -5    1    3    3    0  503 -0.48933967935E+02 -0.11469019693E+02 -0.28683224183E+03  0.29124027294E+03  0.47000000000E+01 0.  1.
         11    1    4    4    0    0  0.80207985545E+02 -0.10612818439E+02 -0.26775801981E+03  0.27971469399E+03  0.00000000000E+00 0. -1.
        -12    1    4    4    0    0  0.24261889486E+01 -0.15493900357E+02 -0.47300607588E+01  0.16380501087E+02  0.00000000000E+00 0.  1.
</event>
<event>
12    1  0.8219652E-002  0.2289202E+03  0.7818608E-02  0.1129216E+00
         21   -1    0    0  501  502  0.00000000000E+00  0.00000000000E+00  0.40927740658E+03  0.40927740658E+03  0.00000000000E+00 0. -1.
         21   -1    0    0  502  503 -0.00000000000E+00 -0.00000000000E+00 -0.18874829742E+03  0.18874829742E+03  0.00000000000E+00 0.  1.
         -6    2    1    2    0  503  0.60874377656E+02 -0.13694477825E+03 -0.65245367917E+02  0.23803659716E+03  0.17304595173E+03 0.  0.
        -24    2    3    3    0    0  0.35053397766E+02 -0.10717631866E+03  0.22733317060E+02  0.14152119321E+03  0.82437494186E+02 0.  0.
          6    2    1    2  501    0 -0.60874377656E+02  0.13694477825E+03  0.28577447708E+03  0.35998910683E+03  0.15957926916E+03 0.  0.
         24    2    5    5    0    0 -0.51093437318E+02  0.64082210251E+02  0.25605300435E+03  0.28055311656E+03  0.80186290400E+02 0.  0.
          5    1    5    5  501    0 -0.97809403387E+01  0.72862567998E+02  0.29721472724E+02  0.79435990269E+02  0.47000000000E+01 0. -1.
        -13    1    6    6    0    0 -0.17500322210E+01  0.61982422929E+01  0.14949432462E+03  0.14963299741E+03  0.00000000000E+00 0.  1.
         14    1    6    6    0    0 -0.49343405096E+02  0.57883967958E+02  0.10655867974E+03  0.13092011916E+03  0.00000000000E+00 0. -1.
         -5    1    3    3    0  503  0.25820979890E+02 -0.29768459588E+02 -0.87978684977E+02  0.96515403947E+02  0.47000000000E+01 0.  1.
         11    1    4    4    0    0 -0.26063193393E+02 -0.41220120209E+02  0.16100533909E+02  0.51357721445E+02  0.00000000000E+00 0. -1.
        -12    1    4    4    0    0  0.61116591159E+02 -0.65956198452E+02  0.66327831508E+01  0.90163471769E+02  0.00000000000E+00 0.  1.
</event>
<event>
12    1  0.8219652E-002  0.1770140E+03  0.7818608E-02  0.1171435E+00
         21   -1    0    0  501  502  0.00000000000E+00  0.00000000000E+00  0.12933729115E+03  0.12933729115E+03  0.00000000000E+00 0. -1.
         21   -1    0    0  502  503 -0.00000000000E+00 -0.00000000000E+00 -0.24598034820E+03  0.24598034820E+03  0.00000000000E+00 0.  1.
         -6    2    1    2    0  503 -0.33579142257E+02  0.18873221160E+02 -0.91752843339E+02  0.19938041037E+03  0.17277212306E+03 0.  0.
        -24    2    3    3    0    0  0.41386575737E+02 -0.80150697704E+01 -0.20304018037E+02  0.92282960820E+02  0.79541195078E+02 0.  0.
          6    2    1    2  501    0  0.33579142257E+02 -0.18873221160E+02 -0.24890213707E+02  0.17593722897E+03  0.16985472772E+03 0.  0.
         24    2    5    5    0    0  0.12987255720E+02 -0.61516499477E+02 -0.59428823268E+02  0.11713688436E+03  0.78970349641E+02 0.  0.
          5    1    5    5  501    0  0.20591886537E+02  0.42643278318E+02  0.34538609561E+02  0.58800344618E+02  0.47000000000E+01 0. -1.
        -13    1    6    6    0    0 -0.23056584145E+01  0.10701976449E+02 -0.39050245485E+02  0.40555764487E+02  0.00000000000E+00 0.  1.
         14    1    6    6    0    0  0.15292914134E+02 -0.72218475927E+02 -0.20378577783E+02  0.76581119869E+02  0.00000000000E+00 0. -1.
         -5    1    3    3    0  503 -0.74965717994E+02  0.26888290930E+02 -0.71448825302E+02  0.10709744955E+03  0.47000000000E+01 0.  1.
         11    1    4    4    0    0  0.39094217966E+02  0.26098460532E+02 -0.31177623883E+02  0.56405068491E+02  0.00000000000E+00 0. -1.
        -12    1    4    4    0    0  0.22923577713E+01 -0.34113530302E+02  0.10873605846E+02  0.35877892328E+02  0.00000000000E+00 0.  1.
</event>
<event>
12    1  0.8219652E-002  0.1947315E+03  0.7818608E-02  0.1155739E+00
         21   -1    0    0  503  502  0.00000000000E+00  0.00000000000E+00  0.32870968320E+02  0.32870968320E+02  0.00000000000E+00 0.  1.
         21   -1    0    0  501  503 -0.00000000000E+00 -0.00000000000E+00 -0.11318726361E+04  0.11318726361E+04  0.00000000000E+00 0.  1.
          6    2    1    2  501    0  0.31089173620E+02 -0.79053033539E+02 -0.61202765772E+03  0.64027813304E+03  0.16781631329E+03 0.  0.
         24    2    3    3    0    0 -0.36608362038E+02 -0.73050504229E+02 -0.45708095214E+03  0.47101632913E+03  0.79100171678E+02 0.  0.
         -6    2    1    2    0  502 -0.31089173620E+02  0.79053033539E+02 -0.48697401008E+03  0.52446547140E+03  0.17522678269E+03 0.  0.
        -24    2    5    5    0    0  0.46146559708E+02  0.28065800774E+02 -0.31769356542E+03  0.33148097629E+03  0.77673946654E+02 0.  0.
          5    1    3    3  501    0  0.67697535659E+02 -0.60025293104E+01 -0.15494670559E+03  0.16926180391E+03  0.47000000000E+01 0. -1.
        -13    1    4    4    0    0  0.83464835693E+01 -0.67902547075E+02 -0.28272874073E+03  0.29088822686E+03  0.00000000000E+00 0.  1.
         14    1    4    4    0    0 -0.44954845608E+02 -0.51479571538E+01 -0.17435221140E+03  0.18012810227E+03  0.00000000000E+00 0. -1.
         -5    1    5    5    0  502 -0.77235733329E+02  0.50987232766E+02 -0.16928044466E+03  0.19298449511E+03  0.47000000000E+01 0.  1.
         13    1    6    6    0    0  0.17766863621E+02  0.29844584850E+02 -0.28901644235E+03  0.29109597152E+03  0.00000000000E+00 0. -1.
        -14    1    6    6    0    0  0.28379696087E+02 -0.17787840767E+01 -0.28677123071E+02  0.40385004772E+02  0.00000000000E+00 0.  1.
</event>
<event>
12    1  0.8219652E-002  0.2402964E+03  0.7818608E-02  0.1119714E+00
         21   -1    0    0  501  502  0.00000000000E+00  0.00000000000E+00  0.10095070518E+03  0.10095070518E+03  0.00000000000E+00 0. -1.
         21   -1    0    0  502  503 -0.00000000000E+00 -0.00000000000E+00 -0.11655024868E+04  0.11655024868E+04  0.00000000000E+00 0. -1.
         -6    2    1    2    0  503  0.15452195146E+03 -0.64778275760E+02 -0.98518409677E+03  0.10140660988E+04  0.17224717608E+03 0.  0.
        -24    2    3    3    0    0  0.18311529072E+03 -0.67751629016E+02 -0.83247798037E+03  0.85860656107E+03  0.77872626609E+02 0.  0.
          6    2    1    2  501    0 -0.15452195146E+03  0.64778275760E+02 -0.79367684862E+02  0.25238709322E+03  0.17125056767E+03 0.  0.
         24    2    5    5    0    0 -0.68380094274E+02 -0.95095011430E+01 -0.97014306556E+02  0.13718038068E+03  0.68120578841E+02 0.  0.
          5    1    5    5  501    0 -0.86141857187E+02  0.74287776903E+02  0.17646621694E+02  0.11520671254E+03  0.47000000000E+01 0. -1.
        -13    1    6    6    0    0 -0.59702951647E+02  0.18183594552E+02 -0.85734241045E+02  0.10604454552E+03  0.00000000000E+00 0.  1.
         14    1    6    6    0    0 -0.86771426270E+01 -0.27693095695E+02 -0.11280065511E+02  0.31135835162E+02  0.00000000000E+00 0. -1.
         -5    1    3    3    0  503 -0.28593339257E+02  0.29733532566E+01 -0.15270611640E+03  0.15545953771E+03  0.47000000000E+01 0.  1.
         13    1    4    4    0    0  0.78794819192E+02 -0.36864795412E+02 -0.53141807204E+03  0.53849122923E+03  0.00000000000E+00 0. -1.
        -14    1    4    4    0    0  0.10432047153E+03 -0.30886833604E+02 -0.30105990833E+03  0.32011533183E+03  0.00000000000E+00 0.  1.
</event>
<event>
12    1  0.8219652E-002  0.2798564E+03  0.7818608E-02  0.1095887E+00
         21   -1    0    0  503  502  0.00000000000E+00  0.00000000000E+00  0.82409334803E+02  0.82409334803E+02  0.00000000000E+00 0.  1.
         21   -1    0    0  501  503 -0.00000000000E+00 -0.00000000000E+00 -0.19935082533E+04  0.19935082533E+04  0.00000000000E+00 0. -1.
          6    2    1    2  501    0  0.43406285471E+02 -0.21599047033E+03 -0.17067359347E+04  0.17293864297E+04  0.17115456072E+03 0.  0.
         24    2    3    3    0    0  0.29541853874E+02 -0.15418338941E+03 -0.15533487477E+04  0.15633681872E+04  0.81132718979E+02 0.  0.
         -6    2    1    2    0  502 -0.43406285471E+02  0.21599047033E+03 -0.20436298379E+03  0.34653115837E+03  0.17257933156E+03 0.  0.
        -24    2    5    5    0    0  0.32531950483E+02  0.14619856552E+03 -0.16698588447E+03  0.23672832047E+03  0.75654898953E+02 0.  0.
          5    1    3    3  501    0  0.13864431597E+02 -0.61807080921E+02 -0.15338718700E+03  0.16601824252E+03  0.47000000000E+01 0. -1.
        -11    1    4    4    0    0  0.73145384122E+01 -0.11626682064E+02 -0.27763792313E+02  0.30975964418E+02  0.00000000000E+00 0.  1.
         12    1    4    4    0    0  0.22227315462E+02 -0.14255670735E+03 -0.15255849554E+04  0.15323922228E+04  0.00000000000E+00 0. -1.
         -5    1    5    5    0  502 -0.75938235954E+02  0.69791904812E+02 -0.37377099323E+02  0.10980283790E+03  0.47000000000E+01 0.  1.
         11    1    6    6    0    0 -0.40002632553E+01 -0.78996544240E+01 -0.49135647841E+01  0.10126685786E+02  0.00000000000E+00 0. -1.
        -12    1    6    6    0    0  0.36532213738E+02  0.15409821995E+03 -0.16207231969E+03  0.22660163468E+03  0.00000000000E+00 0.  1.
</event>
<event>
12    1  0.8219652E-002  0.2057979E+03  0.7818608E-02  0.1145085E+00
         21   -1    0    0  503  502  0.00000000000E+00  0.00000000000E+00  0.65969353472E+03  0.65969353472E+03  0.00000000000E+00 0.  1.
         21   -1    0    0  501  503 -0.00000000000E+00 -0.00000000000E+00 -0.70968858381E+02  0.70968858381E+02  0.00000000000E+00 0. -1.
          6    2    1    2  501    0 -0.10352071000E+03 -0.42765017788E+02  0.18014271109E+03  0.27350349064E+03  0.17264813607E+03 0.  0.
         24    2    3    3    0    0 -0.39401070661E+02 -0.89379340631E+02  0.11526280532E+03  0.17095732827E+03  0.79998643116E+02 0.  0.
         -6    2    1    2    0  502  0.10352071000E+03  0.42765017788E+02  0.40858196525E+03  0.45715890246E+03  0.17178374669E+03 0.  0.
        -24    2    5    5    0    0  0.11747204871E+03  0.78373267607E+02  0.29014169688E+03  0.33260861350E+03  0.80648832636E+02 0.  0.
          5    1    3    3  501    0 -0.64119639339E+02  0.46614322843E+02  0.64879905777E+02  0.10254616237E+03  0.47000000000E+01 0. -1.
        -13    1    4    4    0    0  0.19804272143E+02 -0.37931868305E+01  0.85542290416E+01  0.21903705073E+02  0.00000000000E+00 0.  1.
         14    1    4    4    0    0 -0.59205342803E+02 -0.85586153801E+02  0.10670857627E+03  0.14905362320E+03  0.00000000000E+00 0. -1.
         -5    1    5    5    0  502 -0.13951338714E+02 -0.35608249819E+02  0.11844026837E+03  0.12455028896E+03  0.47000000000E+01 0.  1.
         13    1    6    6    0    0  0.31787575228E+01  0.41301966413E+02  0.58826506060E+02  0.71948000279E+02  0.00000000000E+00 0. -1.
        -14    1    6    6    0    0  0.11429329119E+03  0.37071301194E+02  0.23131519082E+03  0.26066061322E+03  0.00000000000E+00 0.  1.
</event>
<event>
12    1  0.8219652E-002  0.1980124E+03  0.7818608E-02  0.1151721E+00
         21   -1    0    0  503  502  0.00000000000E+00  0.00000000000E+00  0.14872636085E+04  0.14872636085E+04  0.00000000000E+00 0.  1.
         21   -1    0    0  501  503 -0.00000000000E+00 -0.00000000000E+00 -0.27171872659E+02  0.27171872659E+02  0.00000000000E+00 0. -1.
          6    2    1    2  501    0 -0.78717401959E+01 -0.92655671480E+02  0.58789284418E+03  0.62034418002E+03  0.17481952893E+03 0.  0.
         24    2    3    3    0    0 -0.36327379259E+02 -0.86301737936E+02  0.57645710299E+03  0.58867460404E+03  0.73941391651E+02 0.  0.
         -6    2    1    2    0  502  0.78717401959E+01  0.92655671480E+02  0.87219889169E+03  0.89409130117E+03  0.17326658769E+03 0.  0.
        -24    2    5    5    0    0 -0.53519317776E+00  0.12804398672E+03  0.55623080602E+03  0.57600180032E+03  0.77393897982E+02 0.  0.
          5    1    3    3  501    0  0.28455639063E+02 -0.63539335446E+01  0.11435741186E+02  0.31669575975E+02  0.47000000000E+01 0. -1.
        -11    1    4    4    0    0 -0.18205275613E+02 -0.47963580860E+00  0.24925564716E+03  0.24992006673E+03  0.00000000000E+00 0.  1.
         12    1    4    4    0    0 -0.18122103646E+02 -0.85822102127E+02  0.32720145583E+03  0.33875453731E+03  0.00000000000E+00 0. -1.
         -5    1    5    5    0  502  0.84069333736E+01 -0.35388315245E+02  0.31596808568E+03  0.31808950085E+03  0.47000000000E+01 0.  1.
         13    1    6    6    0    0 -0.19391085754E+02  0.93325237273E+02  0.25576048461E+03  0.27294512197E+03  0.00000000000E+00 0. -1.
        -14    1    6    6    0    0  0.18855892577E+02  0.34718749452E+02  0.30047032141E+03  0.30305667836E+03  0.00000000000E+00 0.  1.
</event>
<event>
12    1  0.8219652E-002  0.3082203E+03  0.7818608E-02  0.1081444E+00
         21   -1    0    0  501  502  0.00000000000E+00  0.00000000000E+00  0.11596230348E+03  0.11596230348E+03  0.00000000000E+00 0. -1.
         21   -1    0    0  502  503 -0.00000000000E+00 -0.00000000000E+00 -0.81398511657E+03  0.81398511657E+03  0.00000000000E+00 0.  1.
         -6    2    1    2    0  503 -0.83374029735E+02 -0.24102824368E+03 -0.34625073127E+03  0.46356155391E+03  0.17307195692E+03 0.  0.
        -24    2    3    3    0    0 -0.77921826659E+02 -0.63240744796E+02 -0.16627679498E+03  0.21047890136E+03  0.81130712415E+02 0.  0.
          6    2    1    2  501    0  0.83374029735E+02  0.24102824368E+03 -0.35177208182E+03  0.46638586614E+03  0.16948845242E+03 0.  0.
         24    2    5    5    0    0  0.21853014697E+02  0.13622323589E+03 -0.10415953533E+03  0.19051816573E+03  0.80085194798E+02 0.  0.
          5    1    5    5  501    0  0.61521015038E+02  0.10480500779E+03 -0.24761254649E+03  0.27586770041E+03  0.47000000000E+01 0. -1.
        -11    1    6    6    0    0 -0.20713599494E+02  0.36428422669E+02 -0.27277437968E+01  0.41994330193E+02  0.00000000000E+00 0.  1.
         12    1    6    6    0    0  0.42566614191E+02  0.99794813221E+02 -0.10143179153E+03  0.14852383554E+03  0.00000000000E+00 0. -1.
         -5    1    3    3    0  503 -0.54522030767E+01 -0.17778749888E+03 -0.17997393628E+03  0.25308265254E+03  0.47000000000E+01 0.  1.
         13    1    4    4    0    0 -0.57222102407E+02 -0.50280576986E+02 -0.48742635856E+02  0.90434230113E+02  0.00000000000E+00 0. -1.
        -14    1    4    4    0    0 -0.20699724252E+02 -0.12960167810E+02 -0.11753415913E+03  0.12004467125E+03  0.00000000000E+00 0.  1.
</event>
<event>
12    1  0.8219652E-002  0.2095948E+03  0.7818608E-02  0.1142193E+00
         21   -1    0    0  503  502  0.00000000000E+00  0.00000000000E+00  0.33250992714E+03  0.33250992714E+03  0.00000000000E+00 0. -1.
         21   -1    0    0  501  503 -0.00000000000E+00 -0.00000000000E+00 -0.17475791673E+03  0.17475791673E+03  0.00000000000E+00 0.  1.
          6    2    1    2  501    0  0.99513421818E+02  0.68086220655E+02 -0.48036673579E+02  0.21353503355E+03  0.16956129859E+03 0.  0.
         24    2    3    3    0    0  0.11786008077E+02 -0.10526508108E+02 -0.51224716559E+02  0.95601518961E+02  0.79157826409E+02 0.  0.
         -6    2    1    2    0  502 -0.99513421818E+02 -0.68086220655E+02  0.20578868399E+03  0.29373281031E+03  0.17143898866E+03 0.  0.
        -24    2    5    5    0    0 -0.11500987710E+03 -0.71691401662E+02  0.99227318135E+02  0.18588777265E+03  0.79632119478E+02 0.  0.
          5    1    3    3  501    0  0.87727413741E+02  0.78612728763E+02  0.31880429799E+01  0.11793351459E+03  0.47000000000E+01 0. -1.
        -13    1    4    4    0    0  0.22457626117E+02 -0.37158204891E+02 -0.50909811264E+02  0.66909536275E+02  0.00000000000E+00 0.  1.
         14    1    4    4    0    0 -0.10671618040E+02  0.26631696783E+02 -0.31490529546E+00  0.28691982687E+02  0.00000000000E+00 0. -1.
         -5    1    5    5    0  502  0.15496455282E+02  0.36051810071E+01  0.10656136586E+03  0.10784503767E+03  0.47000000000E+01 0.  1.
         13    1    6    6    0    0 -0.10907283028E+03 -0.57566680903E+02  0.11149598329E+03  0.16625931356E+03  0.00000000000E+00 0. -1.
        -14    1    6    6    0    0 -0.59370468243E+01 -0.14124720759E+02 -0.12268665156E+02  0.19628459090E+02  0.00000000000E+00 0.  1.
</event>
<event>
12    1  0.8219652E-002  0.1987592E+03  0.7818608E-02  0.1151209E+00
         21   -1    0    0  503  502  0.00000000000E+00  0.00000000000E+00  0.50280603430E+02  0.50280603430E+02  0.00000000000E+00 0.  1.
         21   -1    0    0  501  503 -0.00000000000E+00 -0.00000000000E+00 -0.78609734254E+03  0.78609734254E+03  0.00000000000E+00 0.  1.
          6    2    1    2  501    0 -0.88963193023E+02  0.45128882796E+02 -0.40864109227E+03  0.45356062018E+03  0.16964264826E+03 0.  0.
         24    2    3    3    0    0 -0.51076557115E+02  0.94816942274E+02 -0.25752239685E+03  0.28996584477E+03  0.78506936162E+02 0.  0.
         -6    2    1    2    0  502  0.88963193023E+02 -0.45128882796E+02 -0.32717564684E+03  0.38281732579E+03  0.17191316199E+03 0.  0.
        -24    2    5    5    0    0  0.12276907877E+03 -0.62546263820E+02 -0.24168013356E+03  0.28912754052E+03  0.78747481931E+02 0.  0.
          5    1    3    3  501    0 -0.37886635908E+02 -0.49688059478E+02 -0.15111869542E+03  0.16359477541E+03  0.47000000000E+01 0. -1.
        -13    1    4    4    0    0 -0.85586585629E+01 -0.96089704324E+01 -0.69876278586E+02  0.71051229814E+02  0.00000000000E+00 0.  1.
         14    1    4    4    0    0 -0.42517898552E+02  0.10442591271E+03 -0.18764611826E+03  0.21891461495E+03  0.00000000000E+00 0. -1.
         -5    1    5    5    0  502 -0.33805885748E+02  0.17417381024E+02 -0.85495513274E+02  0.93689785264E+02  0.47000000000E+01 0.  1.
         13    1    6    6    0    0  0.74358938019E+02 -0.52525392206E+02 -0.83972080501E+02  0.12385264952E+03  0.00000000000E+00 0. -1.
        -14    1    6    6    0    0  0.48410140752E+02 -0.10020871613E+02 -0.15770805306E+03  0.16527489100E+03  0.00000000000E+00 0.  1.
</event>
<event>
12    1  0.8219652E-002  0.2257142E+03  0.7818608E-02  0.1129786E+00
         21   -1    0    0  501  502  0.00000000000E+00  0.00000000000E+00  0.18065144442E+03  0.18065144442E+03  0.00000000000E+00 0.  1.
         21   -1    0    0  502  503 -0.00000000000E+00 -0.00000000000E+00 -0.63386770628E+03  0.63386770628E+03  0.00000000000E+00 0.  1.
         -6    2    1    2    0  503 -0.28196811518E+02  0.14006272089E+03  0.76977538847E+02  0.23847943347E+03  0.17474058698E+03 0.  0.
        -24    2    3    3    0    0 -0.78096238278E+01  0.16694598543E+03  0.83619202569E+02  0.20377281981E+03  0.81235698918E+02 0.  0.
          6    2    1    2  501    0  0.28196811518E+02 -0.14006272089E+03 -0.53019380070E+03  0.57603971723E+03  0.17407947486E+03 0.  0.
         24    2    5    5    0    0 -0.35668188029E+02 -0.11900458748E+03 -0.43595774397E+03  0.46017467704E+03  0.79166074726E+02 0.  0.
          5    1    5    5  501    0  0.63864999547E+02 -0.21058133410E+02 -0.94236056728E+02  0.11586504019E+03  0.47000000000E+01 0. -1.
        -11    1    6    6    0    0 -0.74216895268E+01 -0.10108330272E+03 -0.39225787308E+03  0.40514090704E+03  0.00000000000E+00 0.  1.
         12    1    6    6    0    0 -0.28246498502E+02 -0.17921284760E+02 -0.43699870888E+02  0.55033770003E+02  0.00000000000E+00 0. -1.
         -5    1    3    3    0  503 -0.20387187691E+02 -0.26883264545E+02 -0.66416637222E+01  0.34706613657E+02  0.47000000000E+01 0.  1.
         11    1    4    4    0    0  0.32163773289E+02  0.53374777418E+02  0.46587581769E+02  0.77806027734E+02  0.00000000000E+00 0. -1.
        -12    1    4    4    0    0 -0.39973397117E+02  0.11357120802E+03  0.37031620801E+02  0.12596679208E+03  0.00000000000E+00 0.  1.
</event>
<event>
12    1  0.8219652E-002  0.2104457E+03  0.7818608E-02  0.1141606E+00
         21   -1    0    0  501  502  0.00000000000E+00  0.00000000000E+00  0.66276135131E+02  0.66276135131E+02  0.00000000000E+00 0. -1.
         21   -1    0    0  502  503 -0.00000000000E+00 -0.00000000000E+00 -0.66349689651E+03  0.66349689651E+03  0.00000000000E+00 0. -1.
         -6    2    1    2    0  503 -0.11809920909E+03  0.28430827840E+02 -0.31757455513E+03  0.38097374998E+03  0.17184779589E+03 0.  0.
        -24    2    3    3    0    0 -0.54444418916E+02  0.53400804975E+02 -0.10108054729E+03  0.15388967414E+03  0.87458070205E+02 0.  0.
          6    2    1    2  501    0  0.11809920909E+03 -0.28430827840E+02 -0.27964620624E+03  0.34879928166E+03  0.16942019673E+03 0.  0.
         24    2    5    5    0    0  0.77474166373E+02 -0.50344265520E+02 -0.84940585014E+02  0.14864193909E+03  0.79641267861E+02 0.  0.
          5    1    5    5  501    0  0.40625042712E+02  0.21913437680E+02 -0.19470562123E+03  0.20015734257E+03  0.47000000000E+01 0. -1.
        -13    1    6    6    0    0 -0.43588507360E+01 -0.95154508893E+01  0.11625859911E+02  0.15643017741E+02  0.00000000000E+00 0.  1.
         14    1    6    6    0    0  0.81833017109E+02 -0.40828814631E+02 -0.96566444925E+02  0.13299892134E+03  0.00000000000E+00 0. -1.
         -5    1    3    3    0  503 -0.63654790170E+02 -0.24969977135E+02 -0.21649400784E+03  0.22708407584E+03  0.47000000000E+01 0.  1.
         11    1    4    4    0    0 -0.26590339346E+02  0.63140142936E+02 -0.10367648267E+03  0.12426800415E+03  0.00000000000E+00 0. -1.
        -12    1    4    4    0    0 -0.27854079570E+02 -0.97393379609E+01  0.25959353799E+01  0.29621669992E+02  0.00000000000E+00 0.  1.
</event>
<event>
12    1  0.8219652E-002  0.2096809E+03  0.7818608E-02  0.1141843E+00
         21   -1    0    0  503  502  0.00000000000E+00  0.00000000000E+00  0.38546867106E+03  0.38546867106E+03  0.00000000000E+00 0.  1.
         21   -1    0    0  501  503 -0.00000000000E+00 -0.00000000000E+00 -0.19001194564E+03  0.19001194564E+03  0.00000000000E+00 0.  1.
          6    2    1    2  501    0  0.37133111339E+02 -0.11779038044E+03 -0.84256109395E+02  0.22597608045E+03  0.16944809024E+03 0.  0.
         24    2    3    3    0    0  0.40661399432E+02 -0.10057037735E+03  0.39471676583E+01  0.13591562628E+03  0.81790752105E+02 0.  0.
         -6    2    1    2    0  502 -0.37133111339E+02  0.11779038044E+03  0.27971283481E+03  0.34950453624E+03  0.16929474066E+03 0.  0.
        -24    2    5    5    0    0  0.35688580627E+02  0.23163673840E+02  0.13161943586E+03  0.15921276755E+03  0.78833995714E+02 0.  0.
          5    1    3    3  501    0 -0.35282880931E+01 -0.17220003086E+02 -0.88203277053E+02  0.90060454174E+02  0.47000000000E+01 0. -1.
        -11    1    4    4    0    0  0.14078840784E+02 -0.73182729725E+02 -0.34160882568E+02  0.81981044063E+02  0.00000000000E+00 0.  1.
         12    1    4    4    0    0  0.26582558648E+02 -0.27387647625E+02  0.38108050226E+02  0.53934582215E+02  0.00000000000E+00 0. -1.
         -5    1    5    5    0  502 -0.72821691966E+02  0.94626706596E+02  0.14809339895E+03  0.19029176870E+03  0.47000000000E+01 0.  1.
         11    1    6    6    0    0  0.33844455764E+02 -0.22895139229E+02  0.81176446684E+02  0.90880416386E+02  0.00000000000E+00 0. -1.
        -12    1    6    6    0    0  0.18441248628E+01  0.46058813069E+02  0.50442989177E+02  0.68332351160E+02  0.00000000000E+00 0.  1.
</event>
<event>
12    1  0.8219652E-002  0.2091760E+03  0.7818608E-02  0.1142530E+00
         21   -1    0    0  503  502  0.00000000000E+00  0.00000000000E+00  0.72279520833E+03  0.72279520833E+03  0.00000000000E+00 0.  1.
         21   -1    0    0  501  503 -0.00000000000E+00 -0.00000000000E+00 -0.17137414482E+03  0.17137414482E+03  0.00000000000E+00 0.  1.
          6    2    1    2  501    0 -0.82198075360E+02  0.85536604168E+02 -0.84207949732E+02  0.22548960855E+03  0.17228334371E+03 0.  0.
         24    2    3    3    0    0 -0.12505290639E+03  0.66480950428E+02 -0.68438443211E+02  0.17578627045E+03  0.78479591006E+02 0.  0.
         -6    2    1    2    0  502  0.82198075360E+02 -0.85536604168E+02  0.63562901324E+03  0.66867974460E+03  0.17039754730E+03 0.  0.
        -24    2    5    5    0    0 -0.15135922428E+02 -0.13860123920E+02  0.17451039082E+03  0.19195770936E+03  0.77283157903E+02 0.  0.
          5    1    3    3  501    0  0.42854831028E+02  0.19055653740E+02 -0.15769506521E+02  0.49703338095E+02  0.47000000000E+01 0. -1.
        -11    1    4    4    0    0  0.10389146519E+01 -0.78669298060E+01 -0.20137143442E+02  0.21644224962E+02  0.00000000000E+00 0.  1.
         12    1    4    4    0    0 -0.12609182104E+03  0.74347880234E+02 -0.48301299769E+02  0.15414204549E+03  0.00000000000E+00 0. -1.
         -5    1    5    5    0  502  0.97333997788E+02 -0.71676480248E+02  0.46111862241E+03  0.47672203524E+03  0.47000000000E+01 0.  1.
         11    1    6    6    0    0  0.21134171869E+02  0.13253953579E+02  0.11214089379E+03  0.11488211596E+03  0.00000000000E+00 0. -1.
        -12    1    6    6    0    0 -0.36270094297E+02 -0.27114077499E+02  0.62369497030E+02  0.77075593405E+02  0.00000000000E+00 0.  1.
</event>
<event>
12    1  0.8219652E-002  0.3394681E+03  0.7818608E-02  0.1067056E+00
         21   -1    0    0  503  502  0.00000000000E+00  0.00000000000E+00  0.54107761348E+03  0.54107761348E+03  0.00000000000E+00 0.  1.
         21   -1    0    0  501  503 -0.00000000000E+00 -0.00000000000E+00 -0.27927341867E+03  0.27927341867E+03  0.00000000000E+00 0. -1.
          6    2    1    2  501    0 -0.29192941905E+03  0.16706867125E+02 -0.69191899650E+02  0.34644781350E+03  0.17244321786E+03 0.  0.
         24    2    3    3    0    0 -0.18465959615E+03  0.27898441692E+02  0.22896730004E+02  0.20455182357E+03  0.80247733814E+02 0.  0.
         -6    2    1    2    0  502  0.29192941905E+03 -0.16706867125E+02  0.33099609446E+03  0.47390321865E+03  0.17182532112E+03 0.  0.
        -24    2    5    5    0    0  0.12473545359E+03  0.68231245602E+00  0.72674385838E+02  0.16566889091E+03  0.81272480730E+02 0.  0.
          5    1    3    3  501    0 -0.10726982290E+03 -0.11191574567E+02 -0.92088629654E+02  0.14189598993E+03  0.47000000000E+01 0. -1.
        -11    1    4    4    0    0 -0.32656203067E+02 -0.25165759499E+02  0.13080944384E+02  0.43253371613E+02  0.00000000000E+00 0.  1.
         12    1    4    4    0    0 -0.15200339308E+03  0.53064201191E+02  0.98157856198E+01  0.16129845196E+03  0.00000000000E+00 0. -1.
         -5    1    5    5    0  502  0.16719396546E+03 -0.17389179581E+02  0.25832170862E+03  0.30823432774E+03  0.47000000000E+01 0.  1.
         11    1    6    6    0    0  0.34893701079E+02 -0.28701112003E+02  0.52043038218E+02  0.68918807536E+02  0.00000000000E+00 0. -1.
        -12    1    6    6    0    0  0.89841752514E+02  0.29383424459E+02  0.20631347620E+02  0.96750083371E+02  0.00000000000E+00 0.  1.
</event>
<event>
12    1  0.8219652E-002  0.3022842E+03  0.7818608E-02  0.1085903E+00
         21   -1    0    0  503  502  0.00000000000E+00  0.00000000000E+00  0.27269341062E+03  0.27269341062E+03  0.00000000000E+00 0. -1.
         21   -1    0    0  501  503 -0.00000000000E+00 -0.00000000000E+00 -0.32938049356E+03  0.32938049356E+03  0.00000000000E+00 0.  1.
          6    2    1    2  501    0 -0.41673902963E+01  0.23287982229E+03 -0.80942486853E+02  0.31293353115E+03  0.19267934495E+03 0.  0.
         24    2    3    3    0    0 -0.61300476447E+02  0.54109660424E+02 -0.37896809726E+02  0.12032517041E+03  0.79726875544E+02 0.  0.
         -6    2    1    2    0  502  0.41673902963E+01 -0.23287982229E+03  0.24255403913E+02  0.28914037303E+03  0.16959791250E+03 0.  0.
        -24    2    5    5    0    0  0.61392256042E+02 -0.10517799533E+03  0.19475215620E+02  0.14904261406E+03  0.83683911109E+02 0.  0.
          5    1    3    3  501    0  0.57133086150E+02  0.17877016187E+03 -0.43045677126E+02  0.19260836074E+03  0.47000000000E+01 0. -1.
        -13    1    4    4    0    0 -0.32952929885E+02  0.56882132819E+02 -0.56184853858E+02  0.86476646703E+02  0.00000000000E+00 0.  1.
         14    1    4    4    0    0 -0.28347546562E+02 -0.27724723944E+01  0.18288044132E+02  0.33848523711E+02  0.00000000000E+00 0. -1.
         -5    1    5    5    0  502 -0.57224865746E+02 -0.12770182697E+03  0.47801882931E+01  0.14009775898E+03  0.47000000000E+01 0.  1.
         13    1    6    6    0    0 -0.15762649643E+02 -0.47680866117E+02  0.16189522844E+02  0.52763877486E+02  0.00000000000E+00 0. -1.
        -14    1    6    6    0    0  0.77154905685E+02 -0.57497129209E+02  0.32856927757E+01  0.96278736570E+02  0.00000000000E+00 0.  1.
</event>
<event>
12    1  0.8219652E-002  0.2064018E+03  0.7818608E-02  0.1145179E+00
         21   -1    0    0  501  502  0.00000000000E+00  0.00000000000E+00  0.20980591771E+03  0.20980591771E+03  0.00000000000E+00 0.  1.
         21   -1    0    0  502  503 -0.00000000000E+00 -0.00000000000E+00 -0.24301834372E+03  0.24301834372E+03  0.00000000000E+00 0.  1.
         -6    2    1    2    0  503  0.12726631900E+02 -0.10938115088E+03  0.79030534912E+02  0.22101473128E+03  0.17457228493E+03 0.  0.
        -24    2    3    3    0    0 -0.56203305276E+02 -0.61007942449E+02  0.13279306050E+02  0.11407260848E+03  0.77171493891E+02 0.  0.
          6    2    1    2  501    0 -0.12726631900E+02  0.10938115088E+03 -0.11224296091E+03  0.23180953015E+03  0.17032607747E+03 0.  0.
         24    2    5    5    0    0 -0.49278830764E+02  0.20620132097E+02 -0.21314426387E+02  0.99504314501E+02  0.81198588799E+02 0.  0.
          5    1    5    5  501    0  0.36552198864E+02  0.88761018781E+02 -0.90928534528E+02  0.13230521565E+03  0.47000000000E+01 0. -1.
        -13    1    6    6    0    0 -0.15041144536E+02 -0.15246160593E+02 -0.40919070126E+02  0.46184973117E+02  0.00000000000E+00 0.  1.
         14    1    6    6    0    0 -0.34237686228E+02  0.35866292689E+02  0.19604643740E+02  0.53319341385E+02  0.00000000000E+00 0. -1.
         -5    1    3    3    0  503  0.68929937176E+02 -0.48373208428E+02  0.65751228862E+02  0.10694212280E+03  0.47000000000E+01 0.  1.
         11    1    4    4    0    0 -0.11898402494E+02 -0.24953053529E+02  0.41887459387E+02  0.50187509564E+02  0.00000000000E+00 0. -1.
        -12    1    4    4    0    0 -0.44304902782E+02 -0.36054888920E+02 -0.28608153337E+02  0.63885098912E+02  0.00000000000E+00 0.  1.
</event>
<event>
12    1  0.8219652E-002  0.2271403E+03  0.7818608E-02  0.1128782E+00
         21   -1    0    0  503  502  0.00000000000E+00  0.00000000000E+00  0.26823791094E+03  0.26823791094E+03  0.00000000000E+00 0. -1.
         21   -1    0    0  501  503 -0.00000000000E+00 -0.00000000000E+00 -0.21163795214E+03  0.21163795214E+03  0.00000000000E+00 0. -1.
          6    2    1    2  501    0 -0.18307793852E+02 -0.14566581178E+03 -0.45116541086E+02  0.23157770599E+03  0.17331770710E+03 0.  0.
         24    2    3    3    0    0  0.17873940065E+01 -0.10514667986E+01 -0.27284149804E+01  0.79472582524E+02  0.79398657199E+02 0.  0.
         -6    2    1    2    0  502  0.18307793852E+02  0.14566581178E+03  0.10171649989E+03  0.24829815709E+03  0.17248775152E+03 0.  0.
        -24    2    5    5    0    0  0.58959504792E+02  0.15380804937E+03  0.94889653409E+02  0.20601868845E+03  0.79413565650E+02 0.  0.
          5    1    3    3  501    0 -0.20095187859E+02 -0.14461434498E+03 -0.42388126106E+02  0.15210512347E+03  0.47000000000E+01 0. -1.
        -11    1    4    4    0    0  0.17023512966E+02 -0.10710424174E+02  0.33458558112E+02  0.39038292619E+02  0.00000000000E+00 0.  1.
         12    1    4    4    0    0 -0.15236118959E+02  0.96589573758E+01 -0.36186973092E+02  0.40434289905E+02  0.00000000000E+00 0. -1.
         -5    1    5    5    0  502 -0.40651710940E+02 -0.81422375931E+01  0.68268464818E+01  0.42279468637E+02  0.47000000000E+01 0.  1.
         11    1    6    6    0    0  0.20326858124E+02  0.15054796636E+02  0.48502460831E+02  0.54702072809E+02  0.00000000000E+00 0. -1.
        -12    1    6    6    0    0  0.38632646669E+02  0.13875325274E+03  0.46387192579E+02  0.15131661564E+03  0.00000000000E+00 0.  1.
</event>
<event>
12    1  0.8219652E-002  0.4111562E+03  0.7818608E-02  0.1040029E+00
         21   -1    0    0  501  502  0.00000000000E+00  0.00000000000E+00  0.13430029198E+04  0.13430029198E+04  0.00000000000E+00 0.  1.
         21   -1    0    0  502  503 -0.00000000000E+00 -0.00000000000E+00 -0.13212863150E+03  0.13212863150E+03  0.00000000000E+00 0. -1.
         -6    2    1    2    0  503 -0.22475371556E+03 -0.29824683221E+03  0.44325240612E+03  0.60458423837E+03  0.17200000052E+03 0.  0.
        -24    2    3    3    0    0 -0.23149193253E+03 -0.23196710816E+03  0.40754558176E+03  0.52885133473E+03  0.78696117690E+02 0.  0.
          6    2    1    2  501    0  0.22475371556E+03  0.29824683221E+03  0.76762188222E+03  0.87054731298E+03  0.17071574176E+03 0.  0.
         24    2    5    5    0    0  0.39729195529E+02  0.12376793012E+03  0.23090977816E+03  0.27661218779E+03  0.79360363407E+02 0.  0.
          5    1    5    5  501    0  0.18502452003E+03  0.17447890209E+03  0.53671210406E+03  0.59393512519E+03  0.47000000000E+01 0. -1.
        -11    1    6    6    0    0  0.17921119040E+02  0.12864062107E+03  0.19396523999E+03  0.23343540910E+03  0.00000000000E+00 0.  1.
         12    1    6    6    0    0  0.21808076489E+02 -0.48726909540E+01  0.36944538173E+02  0.43176778690E+02  0.00000000000E+00 0. -1.
         -5    1    3    3    0  503  0.67382169755E+01 -0.66279724046E+02  0.35706824354E+02  0.75732903636E+02  0.47000000000E+01 0.  1.
         13    1    4    4    0    0 -0.14902426903E+03 -0.19662754534E+03  0.28467607082E+03  0.37671088336E+03  0.00000000000E+00 0. -1.
        -14    1    4    4    0    0 -0.82467663505E+02 -0.35339562820E+02  0.12286951094E+03  0.15214045137E+03  0.00000000000E+00 0.  1.
</event>
<event>
12    1  0.8219652E-002  0.2077776E+03  0.7818608E-02  0.1143342E+00
         21   -1    0    0  501  502  0.00000000000E+00  0.00000000000E+00  0.38461552405E+03  0.38461552405E+03  0.00000000000E+00 0. -1.
         21   -1    0    0  502  503 -0.00000000000E+00 -0.00000000000E+00 -0.39689329019E+03  0.39689329019E+03  0.00000000000E+00 0. -1.
         -6    2    1    2    0  503  0.41655143630E+02 -0.10900043288E+03 -0.33706232705E+03  0.39594877293E+03  0.17189582051E+03 0.  0.
        -24    2    3    3    0    0  0.29297905593E+02 -0.70592852603E+02 -0.33730734235E+03  0.35532865984E+03  0.81489233617E+02 0.  0.
          6    2    1    2  501    0 -0.41655143630E+02  0.10900043288E+03  0.32478456091E+03  0.38556004131E+03  0.17191651780E+03 0.  0.
         24    2    5    5    0    0 -0.54176660348E+02 -0.12435300623E+01  0.15157499503E+03  0.17980736585E+03  0.80118991523E+02 0.  0.
          5    1    5    5  501    0  0.12521516718E+02  0.11024396294E+03  0.17320956588E+03  0.20575267546E+03  0.47000000000E+01 0. -1.
        -13    1    6    6    0    0 -0.56943236952E+02  0.29089546524E+02  0.83020579434E+02  0.10479098511E+03  0.00000000000E+00 0.  1.
         14    1    6    6    0    0  0.27665766032E+01 -0.30333076587E+02  0.68554415595E+02  0.75016380737E+02  0.00000000000E+00 0. -1.
         -5    1    3    3    0  503  0.12357238037E+02 -0.38407580278E+02  0.24501529533E+00  0.40620113088E+02  0.47000000000E+01 0.  1.
         13    1    4    4    0    0 -0.21704762354E+02 -0.42959102187E+02 -0.99235535804E+02  0.11029176187E+03  0.00000000000E+00 0. -1.
        -14    1    4    4    0    0  0.51002667947E+02 -0.27633750416E+02 -0.23807180654E+03  0.24503689798E+03  0.00000000000E+00 0.  1.
</event>
<event>
12    1  0.8219652E-002  0.1893636E+03  0.7818608E-02  0.1159207E+00
         21   -1    0    0  503  502  0.00000000000E+00  0.00000000000E+00  0.13341028906E+03  0.13341028906E+03  0.00000000000E+00 0. -1.
         21   -1    0    0  501  503 -0.00000000000E+00 -0.00000000000E+00 -0.48423071418E+03  0.48423071418E+03  0.00000000000E+00 0. -1.
          6    2    1    2  501    0  0.70122917785E+02  0.34884905993E+02 -0.38171784100E+03  0.42577324224E+03  0.17158136089E+03 0.  0.
         24    2    3    3    0    0  0.92656916781E+02  0.27019529477E+02 -0.20427494494E+03  0.24667071121E+03  0.99009229056E+02 0.  0.
         -6    2    1    2    0  502 -0.70122917785E+02 -0.34884905993E+02  0.30897415880E+02  0.19186776100E+03  0.17240767715E+03 0.  0.
        -24    2    5    5    0    0 -0.31866065225E+01  0.20216161499E+02  0.57079921279E+02  0.10118032531E+03  0.80996871356E+02 0.  0.
          5    1    3    3  501    0 -0.22533998996E+02  0.78653765160E+01 -0.17744289607E+03  0.17910253104E+03  0.47000000000E+01 0. -1.
        -11    1    4    4    0    0  0.12520693531E+02 -0.34810270280E+02 -0.57898912109E+02  0.68708126934E+02  0.00000000000E+00 0.  1.
         12    1    4    4    0    0  0.80136223250E+02  0.61829799757E+02 -0.14637603283E+03  0.17796258427E+03  0.00000000000E+00 0. -1.
         -5    1    5    5    0  502 -0.66936311263E+02 -0.55101067491E+02 -0.26182505399E+02  0.90687435696E+02  0.47000000000E+01 0.  1.
         11    1    6    6    0    0 -0.91459334022E+00  0.49564886623E+02  0.50998499356E+02  0.71122158316E+02  0.00000000000E+00 0. -1.
        -12    1    6    6    0    0 -0.22720131823E+01 -0.29348725125E+02  0.60814219231E+01  0.30058166992E+02  0.00000000000E+00 0.  1.
</event>
<event>
12    1  0.8219652E-002  0.2437802E+03  0.7818608E-02  0.1117462E+00
         21   -1    0    0  501  502  0.00000000000E+00  0.00000000000E+00  0.72698358462E+03  0.72698358462E+03  0.00000000000E+00 0. -1.
         21   -1    0    0  502  503 -0.00000000000E+00 -0.00000000000E+00 -0.82050499999E+02  0.82050499999E+02  0.00000000000E+00 0. -1.
         -6    2    1    2    0  503  0.74367412024E+02  0.15629262744E+03  0.28623321491E+03  0.37533561237E+03  0.17026294733E+03 0.  0.
        -24    2    3    3    0    0  0.84830157984E+02  0.99985716738E+02  0.10735223600E+03  0.18745152081E+03  0.80126592496E+02 0.  0.
          6    2    1    2  501    0 -0.74367412024E+02 -0.15629262744E+03  0.35869986971E+03  0.43369847225E+03  0.17167082145E+03 0.  0.
         24    2    5    5    0    0 -0.64849168703E+02 -0.16979146839E+02  0.17506624784E+03  0.20295567190E+03  0.77776008602E+02 0.  0.
          5    1    5    5  501    0 -0.95182433209E+01 -0.13931348060E+03  0.18363362187E+03  0.23074280035E+03  0.47000000000E+01 0. -1.
        -13    1    6    6    0    0  0.16230521519E+02 -0.14385567940E+01  0.12180875861E+02  0.20343869130E+02  0.00000000000E+00 0.  1.
         14    1    6    6    0    0 -0.81079690223E+02 -0.15540590045E+02  0.16288537198E+03  0.18261180277E+03  0.00000000000E+00 0. -1.
         -5    1    3    3    0  503 -0.10462745960E+02  0.56306910697E+02  0.17888097891E+03  0.18788409156E+03  0.47000000000E+01 0.  1.
         13    1    4    4    0    0  0.63813848584E+02  0.16120083083E+02  0.34068513132E+02  0.74112940414E+02  0.00000000000E+00 0. -1.
        -14    1    4    4    0    0  0.21016309400E+02  0.83865633655E+02  0.73283722868E+02  0.11333858040E+03  0.00000000000E+00 0.  1.
</event>
<event>
12    1  0.8219652E-002  0.1868497E+03  0.7818608E-02  0.1161352E+00
         21   -1    0    0  501  502  0.00000000000E+00  0.00000000000E+00  0.27647427675E+02  0.27647427675E+02  0.00000000000E+00 0.  1.
         21   -1    0    0  502  503 -0.00000000000E+00 -0.00000000000E+00 -0.12683920454E+04  0.12683920454E+04  0.00000000000E+00 0.  1.
         -6    2    1    2    0  503 -0.33538453741E+02 -0.63711499040E+02 -0.66534292310E+03  0.69106020511E+03  0.17233403255E+03 0.  0.
        -24    2    3    3    0    0 -0.26185413080E+01 -0.74104120647E+02 -0.64205988054E+03  0.65070877837E+03  0.75383994306E+02 0.  0.
          6    2    1    2  501    0  0.33538453741E+02  0.63711499040E+02 -0.57540169462E+03  0.60497926797E+03  0.17242047878E+03 0.  0.
         24    2    5    5    0    0  0.46099009736E+02  0.14779530839E+02 -0.52510640948E+03  0.53353830782E+03  0.81134649839E+02 0.  0.
          5    1    5    5  501    0 -0.12560555995E+02  0.48931968201E+02 -0.50295285146E+02  0.71440960148E+02  0.47000000000E+01 0. -1.
        -13    1    6    6    0    0  0.77296483024E+01 -0.25818620742E+02 -0.31439820724E+03  0.31555123412E+03  0.00000000000E+00 0.  1.
         14    1    6    6    0    0  0.38369361434E+02  0.40598151581E+02 -0.21070820224E+03  0.21798707370E+03  0.00000000000E+00 0. -1.
         -5    1    3    3    0  503 -0.30919912433E+02  0.10392621607E+02 -0.23283042560E+02  0.40351426735E+02  0.47000000000E+01 0.  1.
         11    1    4    4    0    0  0.18369498914E+02  0.68403422562E+01 -0.75125843344E+02  0.77640975719E+02  0.00000000000E+00 0. -1.
        -12    1    4    4    0    0 -0.20988040222E+02 -0.80944462903E+02 -0.56693403719E+03  0.57306780265E+03  0.00000000000E+00 0.  1.
</event>
<event>
12    1  0.8219652E-002  0.2345231E+03  0.7818608E-02  0.1123507E+00
         21   -1    0    0  501  502  0.00000000000E+00  0.00000000000E+00  0.60340688819E+02  0.60340688819E+02  0.00000000000E+00 0. -1.
         21   -1    0    0  502  503 -0.00000000000E+00 -0.00000000000E+00 -0.12837624121E+04  0.12837624121E+04  0.00000000000E+00 0.  1.
         -6    2    1    2    0  503 -0.13598037722E+03 -0.83338598053E+02 -0.97366387975E+03  0.10014953465E+04  0.17185922572E+03 0.  0.
        -24    2    3    3    0    0 -0.14293720753E+03 -0.87469038827E+02 -0.97457317361E+03  0.99209455697E+03  0.79855251439E+02 0.  0.
          6    2    1    2  501    0  0.13598037722E+03  0.83338598053E+02 -0.24975784358E+03  0.34260775444E+03  0.17194507280E+03 0.  0.
         24    2    5    5    0    0  0.93567026007E+02  0.30216314707E+02 -0.24426527963E+03  0.27424747644E+03  0.76670316771E+02 0.  0.
          5    1    5    5  501    0  0.42413351213E+02  0.53122283346E+02 -0.54925639490E+01  0.68360277996E+02  0.47000000000E+01 0. -1.
        -11    1    6    6    0    0  0.89388545169E+02 -0.43291443403E+01 -0.18532429987E+03  0.20580123814E+03  0.00000000000E+00 0.  1.
         12    1    6    6    0    0  0.41784808376E+01  0.34545459048E+02 -0.58940979756E+02  0.68446238301E+02  0.00000000000E+00 0. -1.
         -5    1    3    3    0  503  0.69568303113E+01  0.41304407734E+01  0.90929386590E+00  0.94007895572E+01  0.47000000000E+01 0.  1.
         13    1    4    4    0    0 -0.89120756827E+02 -0.45884141175E+02 -0.35757566176E+03  0.37135995690E+03  0.00000000000E+00 0. -1.
        -14    1    4    4    0    0 -0.53816450704E+02 -0.41584897651E+02 -0.61699751185E+03  0.62073460006E+03  0.00000000000E+00 0.  1.
</event>
<event>
12    1  0.8219652E-002  0.1789736E+03  0.7818608E-02  0.1168888E+00
         21   -1    0    0  501  502  0.00000000000E+00  0.00000000000E+00  0.51114704726E+03  0.51114704726E+03  0.00000000000E+00 0.  1.
         21   -1    0    0  502  503 -0.00000000000E+00 -0.00000000000E+00 -0.62767876967E+02  0.62767876967E+02  0.00000000000E+00 0.  1.
         -6    2    1    2    0  503 -0.48925069628E+02 -0.78247992354E+01  0.20665672279E+03  0.27314709845E+03  0.17160258273E+03 0.  0.
        -24    2    3    3    0    0 -0.19413153179E+02  0.26683768873E+02  0.20975994059E+03  0.22739215942E+03  0.81357651442E+02 0.  0.
          6    2    1    2  501    0  0.48925069628E+02  0.78247992354E+01  0.24172244751E+03  0.30076782578E+03  0.17197864249E+03 0.  0.
         24    2    5    5    0    0  0.98905431505E+02  0.94103465720E+01  0.18463386976E+03  0.22473003094E+03  0.80889319083E+02 0.  0.
          5    1    5    5  501    0 -0.49980361876E+02 -0.15855473366E+01  0.57088577752E+02  0.76037794835E+02  0.47000000000E+01 0. -1.
        -11    1    6    6    0    0  0.24880022544E+02  0.14010029998E+02  0.32125289421E+01  0.28733548415E+02  0.00000000000E+00 0.  1.
         12    1    6    6    0    0  0.74025408961E+02 -0.45996834256E+01  0.18142134082E+03  0.19599648253E+03  0.00000000000E+00 0. -1.
         -5    1    3    3    0  503 -0.29511916449E+02 -0.34508568109E+02 -0.31032178085E+01  0.45754939036E+02  0.47000000000E+01 0.  1.
         13    1    4    4    0    0  0.74802342762E+01  0.42021344874E+02  0.55277731807E+02  0.69838205616E+02  0.00000000000E+00 0. -1.
        -14    1    4    4    0    0 -0.26893387456E+02 -0.15337576001E+02  0.15448220879E+03  0.15755395380E+03  0.00000000000E+00 0.  1.
</event>
<event>
12    1  0.8219652E-002  0.1950393E+03  0.7818608E-02  0.1154174E+00
         21   -1    0    0  503  502  0.00000000000E+00  0.00000000000E+00  0.95140847949E+03  0.95140847949E+03  0.00000000000E+00 0.  1.
         21   -1    0    0  501  503 -0.00000000000E+00 -0.00000000000E+00 -0.31752341129E+03  0.31752341129E+03  0.00000000000E+00 0. -1.
          6    2    1    2  501    0  0.90886295488E+02 -0.34241355019E+01 -0.27649837481E+03  0.33789035723E+03  0.17159982176E+03 0.  0.
         24    2    3    3    0    0  0.51801808061E+01 -0.31904977073E+02 -0.63014003227E+02  0.10604048481E+03  0.78924381416E+02 0.  0.
         -6    2    1    2    0  502 -0.90886295488E+02  0.34241355019E+01  0.91038344300E+03  0.93104153355E+03  0.17253486748E+03 0.  0.
        -24    2    5    5    0    0 -0.20847549071E+02  0.54660536271E+02  0.33698178904E+03  0.35109141369E+03  0.79284677550E+02 0.  0.
          5    1    3    3  501    0  0.85706114682E+02  0.28480841571E+02 -0.21348437158E+03  0.23184987242E+03  0.47000000000E+01 0. -1.
        -11    1    4    4    0    0  0.26478241517E+02 -0.29232481333E+02 -0.72530097450E+02  0.82560585480E+02  0.00000000000E+00 0.  1.
         12    1    4    4    0    0 -0.21298060711E+02 -0.26724957393E+01  0.95160942228E+01  0.23479899335E+02  0.00000000000E+00 0. -1.
         -5    1    5    5    0  502 -0.70038746417E+02 -0.51236400769E+02  0.57340165396E+03  0.57995011986E+03  0.47000000000E+01 0.  1.
         11    1    6    6    0    0  0.29587622889E+02  0.18339504586E+02  0.15245391251E+03  0.15637762083E+03  0.00000000000E+00 0. -1.
        -12    1    6    6    0    0 -0.50435171960E+02  0.36321031685E+02  0.18452787653E+03  0.19471379286E+03  0.00000000000E+00 0.  1.
</event>
<event>
12    1  0.8219652E-002  0.2129443E+03  0.7818608E-02  0.1139264E+00
         21   -1    0    0  501  502  0.00000000000E+00  0.00000000000E+00  0.94607163087E+02  0.94607163087E+02  0.00000000000E+00 0.  1.
         21   -1    0    0  502  503 -0.00000000000E+00 -0.00000000000E+00 -0.48684475841E+03  0.48684475841E+03  0.00000000000E+00 0. -1.
         -6    2    1    2    0  503 -0.42433720834E+02 -0.11800411961E+03 -0.15971877887E+03  0.26618666953E+03  0.17210363680E+03 0.  0.
        -24    2    3    3    0    0 -0.20828714173E+02 -0.64219541247E+01 -0.12024516158E+03  0.14578063799E+03  0.79485965436E+02 0.  0.
          6    2    1    2  501    0  0.42433720834E+02  0.11800411961E+03 -0.23251881644E+03  0.31526525196E+03  0.17205111504E+03 0.  0.
         24    2    5    5    0    0  0.15808693624E+02  0.52025637362E+02 -0.30459798222E+02  0.10099442091E+03  0.79470069905E+02 0.  0.
          5    1    5    5  501    0  0.26625027210E+02  0.65978482252E+02 -0.20205901822E+03  0.21427083105E+03  0.47000000000E+01 0. -1.
        -13    1    6    6    0    0 -0.20274487401E+02  0.51066143909E+02 -0.34179436391E+02  0.64707339345E+02  0.00000000000E+00 0.  1.
         14    1    6    6    0    0  0.36083181026E+02  0.95949345314E+00  0.37196381682E+01  0.36287081568E+02  0.00000000000E+00 0. -1.
         -5    1    3    3    0  503 -0.21605006661E+02 -0.11158216549E+03 -0.39473617294E+02  0.12040603154E+03  0.47000000000E+01 0.  1.
         13    1    4    4    0    0  0.92264871964E+01 -0.25245051565E+02 -0.10280626036E+03  0.10626178930E+03  0.00000000000E+00 0. -1.
        -14    1    4    4    0    0 -0.30055201370E+02  0.18823097440E+02 -0.17438901215E+02  0.39518848695E+02  0.00000000000E+00 0.  1.
</event>
<event>
12    1  0.8219652E-002  0.1883117E+03  0.7818608E-02  0.1160124E+00
         21   -1    0    0  503  502  0.00000000000E+00  0.00000000000E+00  0.19011256582E+03  0.19011256582E+03  0.00000000000E+00 0.  1.
         21   -1    0    0  501  503 -0.00000000000E+00 -0.00000000000E+00 -0.42361552205E+03  0.42361552205E+03  0.00000000000E+00 0. -1.
          6    2    1    2  501    0 -0.41306100143E+02 -0.62503212765E+02 -0.34667294782E+03  0.39451671525E+03  0.17276706962E+03 0.  0.
         24    2    3    3    0    0 -0.18643117062E+02 -0.99874704857E+02 -0.17993896004E+03  0.22208541907E+03  0.81371871901E+02 0.  0.
         -6    2    1    2    0  502  0.41306100143E+02  0.62503212765E+02  0.11316999158E+03  0.21921137262E+03  0.17214335125E+03 0.  0.
        -24    2    5    5    0    0  0.85451324018E+02  0.62102606714E+01  0.54812934569E+02  0.12677040038E+03  0.75668887283E+02 0.  0.
          5    1    3    3  501    0 -0.22662983081E+02  0.37371492092E+02 -0.16673398778E+03  0.17243129618E+03  0.47000000000E+01 0. -1.
        -11    1    4    4    0    0 -0.16427238494E+02 -0.10304115552E+03 -0.18693997107E+03  0.21408850197E+03  0.00000000000E+00 0.  1.
         12    1    4    4    0    0 -0.22158785682E+01  0.31664506613E+01  0.70010110244E+01  0.79969170924E+01  0.00000000000E+00 0. -1.
         -5    1    5    5    0  502 -0.44145223875E+02  0.56292952094E+02  0.58357057011E+02  0.92440972243E+02  0.47000000000E+01 0.  1.
         11    1    6    6    0    0 -0.87973337548E+01  0.17218400232E+02  0.74942690790E+01  0.20737175718E+02  0.00000000000E+00 0. -1.
        -12    1    6    6    0    0  0.94248657773E+02 -0.11008139561E+02  0.47318665490E+02  0.10603322466E+03  0.00000000000E+00 0.  1.
</event>
<event>
12    1  0.8219652E-002  0.2765995E+03  0.7818608E-02  0.1098493E+00
         21   -1    0    0  503  502  0.00000000000E+00  0.00000000000E+00  0.36321189249E+02  0.36321189249E+02  0.00000000000E+00 0.  1.
         21   -1    0    0  501  503 -0.00000000000E+00 -0.00000000000E+00 -0.34690209537E+04  0.34690209537E+04  0.00000000000E+00 0.  1.
          6    2    1    2  501    0  0.13184764640E+02  0.20707541565E+03 -0.28471780025E+04  0.28605820868E+04  0.18290224622E+03 0.  0.
         24    2    3    3    0    0 -0.90636557739E+00  0.19531333639E+03 -0.28172437671E+04  0.28251553327E+04  0.80573504790E+02 0.  0.
         -6    2    1    2    0  502 -0.13184764640E+02 -0.20707541565E+03 -0.58552176196E+03  0.64476005615E+03  0.17270127531E+03 0.  0.
        -24    2    5    5    0    0 -0.42086059596E+02 -0.38266502638E+02 -0.19155782102E+03  0.21515394501E+03  0.79757505139E+02 0.  0.
          5    1    3    3  501    0  0.14091130217E+02  0.11762079254E+02 -0.29934235447E+02  0.35426754169E+02  0.47000000000E+01 0. -1.
        -13    1    4    4    0    0  0.37138313912E+02  0.12034064309E+03 -0.15346085349E+04  0.15397676709E+04  0.00000000000E+00 0.  1.
         14    1    4    4    0    0 -0.38044679489E+02  0.74972693307E+02 -0.12826352322E+04  0.12853876618E+04  0.00000000000E+00 0. -1.
         -5    1    5    5    0  502  0.28901294956E+02 -0.16880891301E+03 -0.39396394094E+03  0.42960611113E+03  0.47000000000E+01 0.  1.
         13    1    6    6    0    0 -0.54758251336E+02 -0.27886706215E+02 -0.72783114973E+02  0.95255006682E+02  0.00000000000E+00 0. -1.
        -14    1    6    6    0    0  0.12672191740E+02 -0.10379796424E+02 -0.11877470604E+03  0.11989893833E+03  0.00000000000E+00 0.  1.
</event>
<event>
12    1  0.8219652E-002  0.1822901E+03  0.7818608E-02  0.1165606E+00
         21   -1    0    0  503  502  0.00000000000E+00  0.00000000000E+00  0.42800454050E+02  0.42800454050E+02  0.00000000000E+00 0. -1.
         21   -1    0    0  501  503 -0.00000000000E+00 -0.00000000000E+00 -0.77647071944E+03  0.77647071944E+03  0.00000000000E+00 0. -1.
          6    2    1    2  501    0  0.60746532204E+02  0.42071359437E+02 -0.36212808259E+03  0.40542128760E+03  0.16664192682E+03 0.  0.
         24    2    3    3    0    0 -0.82033736972E+00 -0.29309933751E+02 -0.14060844096E+03  0.16463339323E+03  0.80459153152E+02 0.  0.
         -6    2    1    2    0  502 -0.60746532204E+02 -0.42071359437E+02 -0.37154218280E+03  0.41384988589E+03  0.16663731274E+03 0.  0.
        -24    2    5    5    0    0 -0.72427653422E+02 -0.68050718007E+02 -0.36116976850E+03  0.38317330455E+03  0.80631969091E+02 0.  0.
          5    1    3    3  501    0  0.61566869574E+02  0.71381293188E+02 -0.22151964163E+03  0.24078789437E+03  0.47000000000E+01 0. -1.
        -11    1    4    4    0    0 -0.35693798377E+02 -0.33942425029E+02 -0.68154153821E+02  0.84089976469E+02  0.00000000000E+00 0.  1.
         12    1    4    4    0    0  0.34873461008E+02  0.46324912782E+01 -0.72454287139E+02  0.80543416757E+02  0.00000000000E+00 0. -1.
         -5    1    5    5    0  502  0.11681121217E+02  0.25979358570E+02 -0.10372414298E+02  0.30676581344E+02  0.47000000000E+01 0.  1.
         11    1    6    6    0    0 -0.40605914369E+02 -0.59915931590E+02 -0.12273819116E+03  0.14249007934E+03  0.00000000000E+00 0. -1.
        -12    1    6    6    0    0 -0.31821739053E+02 -0.81347864170E+01 -0.23843157734E+03  0.24068322521E+03  0.00000000000E+00 0.  1.
</event>
<event>
12    1  0.8219652E-002  0.1735565E+03  0.7818608E-02  0.1174322E+00
         21   -1    0    0  501  502  0.00000000000E+00  0.00000000000E+00  0.18412585707E+03  0.18412585707E+03  0.00000000000E+00 0. -1.
         21   -1    0    0  502  503 -0.00000000000E+00 -0.00000000000E+00 -0.18316137371E+03  0.18316137371E+03  0.00000000000E+00 0. -1.
         -6    2    1    2    0  503 -0.34472861370E+00 -0.20417841951E+02  0.61259170952E+02  0.18405041762E+03  0.17235098808E+03 0.  0.
        -24    2    3    3    0    0  0.31823658903E+02  0.36042410644E+02 -0.42682036432E+01  0.91646456122E+02  0.77904138057E+02 0.  0.
          6    2    1    2  501    0  0.34472861370E+00  0.20417841951E+02 -0.60294687591E+02  0.18323681317E+03  0.17182337804E+03 0.  0.
         24    2    5    5    0    0  0.41496873242E+02  0.31412244081E+02  0.23717500988E+02  0.88926083582E+02  0.68092649537E+02 0.  0.
          5    1    5    5  501    0 -0.41152144628E+02 -0.10994402130E+02 -0.84012188580E+02  0.94310729589E+02  0.47000000000E+01 0. -1.
        -11    1    6    6    0    0  0.37453827679E+02  0.81834827199E+01 -0.16950480412E+02  0.41917506885E+02  0.00000000000E+00 0.  1.
         12    1    6    6    0    0  0.40430455627E+01  0.23228761361E+02  0.40667981401E+02  0.47008576696E+02  0.00000000000E+00 0. -1.
         -5    1    3    3    0  503 -0.32168387517E+02 -0.56460252595E+02  0.65527374596E+02  0.92403961495E+02  0.47000000000E+01 0.  1.
         13    1    4    4    0    0  0.39424687882E+02  0.45941855290E+01  0.25912542544E+02  0.47401185812E+02  0.00000000000E+00 0. -1.
        -14    1    4    4    0    0 -0.76010289785E+01  0.31448225115E+02 -0.30180746187E+02  0.44245270310E+02  0.00000000000E+00 0.  1.
</event>
<event>
12    1  0.8219652E-002  0.2037279E+03  0.7818608E-02  0.1147772E+00
         21   -1    0    0  501  502  0.00000000000E+00  0.00000000000E+00  0.53263462322E+02  0.53263462322E+02  0.00000000000E+00 0.  1.
         21   -1    0    0  502  503 -0.00000000000E+00 -0.00000000000E+00 -0.80698575109E+03  0.80698575109E+03  0.00000000000E+00 0.  1.
         -6    2    1    2    0  503 -0.88606311412E+02  0.45875749489E+02 -0.27625451913E+03  0.34325155343E+03  0.17762152679E+03 0.  0.
        -24    2    3    3    0    0 -0.82865366439E+01 -0.79450477846E+00 -0.40211846132E+02  0.89543823298E+02  0.79572644760E+02 0.  0.
          6    2    1    2  501    0  0.88606311412E+02 -0.45875749489E+02 -0.47746776964E+03  0.51699765998E+03  0.17133431230E+03 0.  0.
         24    2    5    5    0    0 -0.16161268113E+02 -0.41913918017E+02 -0.18745158730E+03  0.20857681463E+03  0.79675761125E+02 0.  0.
          5    1    5    5  501    0  0.10476757953E+03 -0.39618314719E+01 -0.29001618234E+03  0.30842084535E+03  0.47000000000E+01 0. -1.
        -13    1    6    6    0    0  0.77305849035E+01  0.15223760807E+02 -0.82255458008E+01  0.18952161876E+02  0.00000000000E+00 0.  1.
         14    1    6    6    0    0 -0.23891853016E+02 -0.57137678824E+02 -0.17922604150E+03  0.18962465275E+03  0.00000000000E+00 0. -1.
         -5    1    3    3    0  503 -0.80319774768E+02  0.46670254268E+02 -0.23604267300E+03  0.25370773013E+03  0.47000000000E+01 0.  1.
         11    1    4    4    0    0  0.34846149658E+02 -0.81886626487E+01 -0.22831665295E+02  0.42456957994E+02  0.00000000000E+00 0. -1.
        -12    1    4    4    0    0 -0.43132686302E+02  0.73941578702E+01 -0.17380180837E+02  0.47086865304E+02  0.00000000000E+00 0.  1.
</event>
<event>
12    1  0.8219652E-002  0.1856144E+03  0.7818608E-02  0.1162966E+00
         21   -1    0    0  501  502  0.00000000000E+00  0.00000000000E+00  0.61334149872E+03  0.61334149872E+03  0.00000000000E+00 0.  1.
         21   -1    0    0  502  503 -0.00000000000E+00 -0.00000000000E+00 -0.12741515727E+03  0.12741515727E+03  0.00000000000E+00 0.  1.
         -6    2    1    2    0  503 -0.64039515028E+02  0.10852732359E+02 -0.35809279117E+02  0.18698707066E+03  0.17164795029E+03 0.  0.
        -24    2    3    3    0    0 -0.20506454839E+02 -0.76732819605E+01 -0.85705557431E+02  0.11806632541E+03  0.78197318851E+02 0.  0.
          6    2    1    2  501    0  0.64039515028E+02 -0.10852732359E+02  0.52173562057E+03  0.55376958533E+03  0.17387885031E+03 0.  0.
         24    2    5    5    0    0  0.78858418084E+02  0.47312883296E+01  0.17997789488E+03  0.21130368242E+03  0.77563963068E+02 0.  0.
          5    1    5    5  501    0 -0.14818903056E+02 -0.15584020689E+02  0.34175772570E+03  0.34246590292E+03  0.47000000000E+01 0. -1.
        -13    1    6    6    0    0  0.35713246893E+02 -0.24550557929E+02  0.13712593194E+03  0.14381128992E+03  0.00000000000E+00 0.  1.
         14    1    6    6    0    0  0.43145171191E+02  0.29281846259E+02  0.42851962939E+02  0.67492392498E+02  0.00000000000E+00 0. -1.
         -5    1    3    3    0  503 -0.43533060189E+02  0.18526014320E+02  0.49896278314E+02  0.68920745249E+02  0.47000000000E+01 0.  1.
         11    1    4    4    0    0  0.24306798937E+02 -0.19566670262E+02 -0.18049867581E+02  0.36048200778E+02  0.00000000000E+00 0. -1.
        -12    1    4    4    0    0 -0.44813253775E+02  0.11893388301E+02 -0.67655689850E+02  0.82018124633E+02  0.00000000000E+00 0.  1.
</event>
<event>
12    1  0.8219652E-002  0.1893091E+03  0.7818608E-02  0.1161665E+00
         21   -1    0    0  503  502  0.00000000000E+00  0.00000000000E+00  0.14126586064E+03  0.14126586064E+03  0.00000000000E+00 0.  1.
         21   -1    0    0  501  503 -0.00000000000E+00 -0.00000000000E+00 -0.30849374645E+03  0.30849374645E+03  0.00000000000E+00 0.  1.
          6    2    1    2  501    0  0.82596945013E+01 -0.45337972881E+02 -0.18826301826E+03  0.25928547569E+03  0.17222729029E+03 0.  0.
         24    2    3    3    0    0  0.22410439606E+00 -0.72107784075E+02 -0.20223864938E+03  0.22768481486E+03  0.75764905259E+02 0.  0.
         -6    2    1    2    0  502 -0.82596945013E+01  0.45337972881E+02  0.21035132448E+02  0.19047413140E+03  0.18361417047E+03 0.  0.
        -24    2    5    5    0    0  0.83541623937E+01  0.88185052686E+02 -0.28246779346E+02  0.12292644958E+03  0.80415396022E+02 0.  0.
          5    1    3    3  501    0  0.80355901053E+01  0.26769811195E+02  0.13975631118E+02  0.31600660830E+02  0.47000000000E+01 0. -1.
        -11    1    4    4    0    0 -0.18515447897E+01 -0.25503653082E+02 -0.16770493891E+03  0.16964318752E+03  0.00000000000E+00 0.  1.
         12    1    4    4    0    0  0.20756491858E+01 -0.46604130993E+02 -0.34533710468E+02  0.58041627337E+02  0.00000000000E+00 0. -1.
         -5    1    5    5    0  502 -0.16613856895E+02 -0.42847079805E+02  0.49281911794E+02  0.67547681817E+02  0.47000000000E+01 0.  1.
         11    1    6    6    0    0  0.29405341147E+02  0.71533143233E+01  0.85912751793E+01  0.31458766711E+02  0.00000000000E+00 0. -1.
        -12    1    6    6    0    0 -0.21051178753E+02  0.81031738363E+02 -0.36838054525E+02  0.91467682873E+02  0.00000000000E+00 0.  1.
</event>
<event>
12    1  0.8219652E-002  0.2076334E+03  0.7818608E-02  0.1144711E+00
         21   -1    0    0  501  502  0.00000000000E+00  0.00000000000E+00  0.42386830493E+03  0.42386830493E+03  0.00000000000E+00 0.  1.
         21   -1    0    0  502  503 -0.00000000000E+00 -0.00000000000E+00 -0.11967452314E+03  0.11967452314E+03  0.00000000000E+00 0.  1.
         -6    2    1    2    0  503  0.91002194018E+02  0.58568377611E+02  0.26770227012E+03  0.33878627217E+03  0.17720039111E+03 0.  0.
        -24    2    3    3    0    0  0.60321084853E+02 -0.19596243795E+02  0.69639121253E+02  0.12360695290E+03  0.80040149602E+02 0.  0.
          6    2    1    2  501    0 -0.91002194018E+02 -0.58568377611E+02  0.36491511667E+02  0.20475655590E+03  0.16994694050E+03 0.  0.
         24    2    5    5    0    0 -0.55028261305E+02 -0.30706207584E+02  0.87426073278E+02  0.13629602771E+03  0.83440446747E+02 0.  0.
          5    1    5    5  501    0 -0.35973932713E+02 -0.27862170028E+02 -0.50934561611E+02  0.68460528190E+02  0.47000000000E+01 0. -1.
        -13    1    6    6    0    0 -0.32802095695E+02 -0.51135394134E+02  0.22661208545E+02  0.64840854313E+02  0.00000000000E+00 0.  1.
         14    1    6    6    0    0 -0.22226165610E+02  0.20429186551E+02  0.64764864733E+02  0.71455173394E+02  0.00000000000E+00 0. -1.
         -5    1    3    3    0  503  0.30681109165E+02  0.78164621407E+02  0.19806314887E+03  0.21517931927E+03  0.47000000000E+01 0.  1.
         11    1    4    4    0    0  0.50251990706E+01 -0.40821189248E+02  0.40011204087E+02  0.57380472025E+02  0.00000000000E+00 0. -1.
        -12    1    4    4    0    0  0.55295885782E+02  0.21224945452E+02  0.29627917166E+02  0.66226480878E+02  0.00000000000E+00 0.  1.
</event>
<event>
12    1  0.8219652E-002  0.1797951E+03  0.7818608E-02  0.1168315E+00
         21   -1    0    0  503  502  0.00000000000E+00  0.00000000000E+00  0.22118280076E+02  0.22118280076E+02  0.00000000000E+00 0. -1.
         21   -1    0    0  501  503 -0.00000000000E+00 -0.00000000000E+00 -0.14562557823E+04  0.14562557823E+04  0.00000000000E+00 0. -1.
          6    2    1    2  501    0 -0.24469887894E+02  0.42244991123E+02 -0.75871137737E+03  0.77942720297E+03  0.17169856113E+03 0.  0.
         24    2    3    3    0    0  0.51424200320E+02  0.20813436367E+02 -0.34916341716E+03  0.36232907797E+03  0.79307133035E+02 0.  0.
         -6    2    1    2    0  502  0.24469887894E+02 -0.42244991123E+02 -0.67542612487E+03  0.69894685942E+03  0.17304001690E+03 0.  0.
        -24    2    5    5    0    0 -0.59248726219E+01  0.25719045091E+02 -0.52410559038E+03  0.53023720989E+03  0.75949032192E+02 0.  0.
          5    1    3    3  501    0 -0.75894088214E+02  0.21431554756E+02 -0.40954796021E+03  0.41709812500E+03  0.47000000000E+01 0. -1.
        -13    1    4    4    0    0  0.28088896696E+00  0.24975947797E+02 -0.24441309048E+03  0.24568605102E+03  0.00000000000E+00 0.  1.
         14    1    4    4    0    0  0.51143311353E+02 -0.41625114297E+01 -0.10475032667E+03  0.11664302695E+03  0.00000000000E+00 0. -1.
         -5    1    5    5    0  502  0.30394760516E+02 -0.67964036214E+02 -0.15132053449E+03  0.16870964953E+03  0.47000000000E+01 0.  1.
         13    1    6    6    0    0 -0.21876990502E+02  0.27350793782E+02 -0.10234572516E+03  0.10817262174E+03  0.00000000000E+00 0. -1.
        -14    1    6    6    0    0  0.15952117880E+02 -0.16317486906E+01 -0.42175986521E+03  0.42206458815E+03  0.00000000000E+00 0.  1.
</event>
<event>
12    1  0.8219652E-002  0.1812281E+03  0.7818608E-02  0.1166744E+00
         21   -1    0    0  503  502  0.00000000000E+00  0.00000000000E+00  0.25843335223E+03  0.25843335223E+03  0.00000000000E+00 0. -1.
         21   -1    0    0  501  503 -0.00000000000E+00 -0.00000000000E+00 -0.21492327935E+03  0.21492327935E+03  0.00000000000E+00 0. -1.
          6    2    1    2  501    0 -0.85373640034E+01  0.62366922937E+02 -0.12987877456E+03  0.22254334625E+03  0.16939458438E+03 0.  0.
         24    2    3    3    0    0 -0.21776954284E+01  0.34276240958E+02 -0.15933121760E+03  0.18108169892E+03  0.78895764970E+02 0.  0.
         -6    2    1    2    0  502  0.85373640034E+01 -0.62366922937E+02  0.17338884744E+03  0.25081328533E+03  0.16994437921E+03 0.  0.
        -24    2    5    5    0    0  0.11660840897E+02 -0.84718974127E+02  0.18940691061E+03  0.22274125926E+03  0.80158661437E+02 0.  0.
          5    1    3    3  501    0 -0.63596685749E+01  0.28090681978E+02  0.29452443041E+02  0.41461647332E+02  0.47000000000E+01 0. -1.
        -11    1    4    4    0    0  0.10224622207E+02 -0.24197829194E+02 -0.47933298033E+02  0.54659664263E+02  0.00000000000E+00 0.  1.
         12    1    4    4    0    0 -0.12402317636E+02  0.58474070153E+02 -0.11139791957E+03  0.12642203466E+03  0.00000000000E+00 0. -1.
         -5    1    5    5    0  502 -0.31234768934E+01  0.22352051190E+02 -0.16018063168E+02  0.28072026075E+02  0.47000000000E+01 0.  1.
         11    1    6    6    0    0  0.18869871905E+02 -0.99066816048E+02  0.16859481479E+03  0.19645487441E+03  0.00000000000E+00 0. -1.
        -12    1    6    6    0    0 -0.72090310082E+01  0.14347841921E+02  0.20812095819E+02  0.26286384846E+02  0.00000000000E+00 0.  1.
</event>
<event>
12    1  0.8219652E-002  0.1836096E+03  0.7818608E-02  0.1165465E+00
         21   -1    0    0  501  502  0.00000000000E+00  0.00000000000E+00  0.14828448913E+04  0.14828448913E+04  0.00000000000E+00 0.  1.
         21   -1    0    0  502  503 -0.00000000000E+00 -0.00000000000E+00 -0.29563068268E+02  0.29563068268E+02  0.00000000000E+00 0.  1.
         -6    2    1    2    0  503  0.47768279097E+02 -0.34811686658E+01  0.34135900193E+03  0.38542754142E+03  0.17243692895E+03 0.  0.
        -24    2    3    3    0    0  0.50993352899E+02  0.48169322347E+02  0.12553110498E+03  0.16343216889E+03  0.77662152018E+02 0.  0.
          6    2    1    2  501    0 -0.47768279097E+02  0.34811686658E+01  0.11119228211E+04  0.11269804182E+04  0.17725285831E+03 0.  0.
         24    2    5    5    0    0 -0.27589291736E+02  0.72780649174E+02  0.67060475395E+03  0.67977427338E+03  0.79524428991E+02 0.  0.
          5    1    5    5  501    0 -0.20178987361E+02 -0.69299480508E+02  0.44131806719E+03  0.44720614482E+03  0.47000000000E+01 0. -1.
        -13    1    6    6    0    0 -0.41121929847E+02  0.52724585970E+02  0.62093945480E+03  0.62452918395E+03  0.00000000000E+00 0.  1.
         14    1    6    6    0    0  0.13532638111E+02  0.20056063205E+02  0.49665299154E+02  0.55245089425E+02  0.00000000000E+00 0. -1.
         -5    1    3    3    0  503 -0.32250738014E+01 -0.51650491013E+02  0.21582789695E+03  0.22199537253E+03  0.47000000000E+01 0.  1.
         11    1    4    4    0    0 -0.15021101038E+02  0.29983063271E+02  0.25138777388E+02  0.41911522140E+02  0.00000000000E+00 0. -1.
        -12    1    4    4    0    0  0.66014453937E+02  0.18186259076E+02  0.10039232759E+03  0.12152064675E+03  0.00000000000E+00 0.  1.
</event>
<event>
12    1  0.8219652E-002  0.2214856E+03  0.7818608E-02  0.1133087E+00
         21   -1    0    0  503  502  0.00000000000E+00  0.00000000000E+00  0.11599284659E+04  0.11599284659E+04  0.00000000000E+00 0. -1.
         21   -1    0    0  501  503 -0.00000000000E+00 -0.00000000000E+00 -0.43096808592E+02  0.43096808592E+02  0.00000000000E+00 0.  1.
          6    2    1    2  501    0  0.13549450211E+03  0.34780379825E+02  0.65332958260E+03  0.68932298482E+03  0.16958242530E+03 0.  0.
         24    2    3    3    0    0  0.13976350636E+02 -0.20507229704E+02  0.21690458406E+03  0.23291061617E+03  0.81141060440E+02 0.  0.
         -6    2    1    2    0  502 -0.13549450211E+03 -0.34780379825E+02  0.46350207474E+03  0.51370228971E+03  0.17171905614E+03 0.  0.
        -24    2    5    5    0    0 -0.12019114187E+02 -0.27341832760E+02  0.11404073836E+03  0.14296408150E+03  0.80878944529E+02 0.  0.
          5    1    3    3  501    0  0.12151815147E+03  0.55287609530E+02  0.43642499855E+03  0.45641236865E+03  0.47000000000E+01 0. -1.
        -11    1    4    4    0    0  0.25578969595E+01  0.24474205907E+02  0.23535877926E+02  0.34050949199E+02  0.00000000000E+00 0.  1.
         12    1    4    4    0    0  0.11418453676E+02 -0.44981435612E+02  0.19336870613E+03  0.19885966697E+03  0.00000000000E+00 0. -1.
         -5    1    5    5    0  502 -0.12347538792E+03 -0.74385470658E+01  0.34946133638E+03  0.37073820821E+03  0.47000000000E+01 0.  1.
         13    1    6    6    0    0 -0.94409502748E+01  0.11882587924E+02  0.10011873182E+03  0.10126247034E+03  0.00000000000E+00 0. -1.
        -14    1    6    6    0    0 -0.25781639125E+01 -0.39224420684E+02  0.13922006541E+02  0.41701611159E+02  0.00000000000E+00 0.  1.
</event>
<event>
12    1  0.8219652E-002  0.1849156E+03  0.7818608E-02  0.1163764E+00
         21   -1    0    0  503  502  0.00000000000E+00  0.00000000000E+00  0.10309187919E+04  0.10309187919E+04  0.00000000000E+00 0. -1.
         21   -1    0    0  501  503 -0.00000000000E+00 -0.00000000000E+00 -0.78463834706E+02  0.78463834706E+02  0.00000000000E+00 0. -1.
          6    2    1    2  501    0  0.52951279319E+02  0.39171883167E+02  0.51090518949E+02  0.18924587415E+03  0.16989845597E+03 0.  0.
         24    2    3    3    0    0  0.55686494138E+02 -0.35382219117E+02  0.63095103892E+02  0.11353593010E+03  0.67502060930E+02 0.  0.
         -6    2    1    2    0  502 -0.52951279319E+02 -0.39171883167E+02  0.90136443822E+03  0.92013675243E+03  0.17278749458E+03 0.  0.
        -24    2    5    5    0    0 -0.52726078700E+02  0.23797104217E+02  0.30099407570E+03  0.31645487738E+03  0.78739534304E+02 0.  0.
          5    1    3    3  501    0 -0.27352148194E+01  0.74554102284E+02 -0.12004584943E+02  0.75709944044E+02  0.47000000000E+01 0. -1.
        -11    1    4    4    0    0  0.32481180469E+01 -0.43032974980E+01  0.51133542167E+02  0.51416998889E+02  0.00000000000E+00 0.  1.
         12    1    4    4    0    0  0.52438376091E+02 -0.31078921619E+02  0.11961561725E+02  0.62118931212E+02  0.00000000000E+00 0. -1.
         -5    1    5    5    0  502 -0.22520061829E+00 -0.62968987384E+02  0.60037036251E+03  0.60368187506E+03  0.47000000000E+01 0.  1.
         13    1    6    6    0    0 -0.72460017892E+02  0.21047510814E+02  0.26223020550E+03  0.27287017532E+03  0.00000000000E+00 0. -1.
        -14    1    6    6    0    0  0.19733939192E+02  0.27495934028E+01  0.38763870207E+02  0.43584702057E+02  0.00000000000E+00 0.  1.
</event>
<event>
12    1  0.8219652E-002  0.2120402E+03  0.7818608E-02  0.1140032E+00
         21   -1    0    0  501  502  0.00000000000E+00  0.00000000000E+00  0.79017412482E+02  0.79017412482E+02  0.00000000000E+00 0.  1.
         21   -1    0    0  502  503 -0.00000000000E+00 -0.00000000000E+00 -0.62592487581E+03  0.62592487581E+03  0.00000000000E+00 0.  1.
         -6    2    1    2    0  503  0.11029091758E+03  0.54600014753E+02 -0.38086922786E+03  0.43591558964E+03  0.17267247741E+03 0.  0.
        -24    2    3    3    0    0  0.62427930792E+02  0.39980127474E+02 -0.36894542989E+03  0.38425444790E+03  0.77685863323E+02 0.  0.
          6    2    1    2  501    0 -0.11029091758E+03 -0.54600014753E+02 -0.16603823547E+03  0.26902669865E+03  0.17222491352E+03 0.  0.
         24    2    5    5    0    0 -0.10799781548E+03 -0.81668948750E+02 -0.17927587473E+03  0.23844385055E+03  0.79889206187E+02 0.  0.
          5    1    5    5  501    0 -0.22931021014E+01  0.27068933997E+02  0.13237639259E+02  0.30582848104E+02  0.47000000000E+01 0. -1.
        -13    1    6    6    0    0 -0.11387605200E+03 -0.56386456456E+02 -0.12483633634E+03  0.17813281158E+03  0.00000000000E+00 0.  1.
         14    1    6    6    0    0  0.58782365206E+01 -0.25282492294E+02 -0.54439538389E+02  0.60311038966E+02  0.00000000000E+00 0. -1.
         -5    1    3    3    0  503  0.47862986787E+02  0.14619887278E+02 -0.11923797970E+02  0.51661141744E+02  0.47000000000E+01 0.  1.
         11    1    4    4    0    0  0.14964846437E+01  0.42104342526E+02 -0.10052082463E+03  0.10899289568E+03  0.00000000000E+00 0. -1.
        -12    1    4    4    0    0  0.60931446148E+02 -0.21242150511E+01 -0.26842460526E+03  0.27526155222E+03  0.00000000000E+00 0.  1.
</event>
<event>
12    1  0.8219652E-002  0.1822196E+03  0.7818608E-02  0.1165860E+00
         21   -1    0    0  501  502  0.00000000000E+00  0.00000000000E+00  0.24321870246E+03  0.24321870246E+03  0.00000000000E+00 0. -1.
         21   -1    0    0  502  503 -0.00000000000E+00 -0.00000000000E+00 -0.23195832187E+03  0.23195832187E+03  0.00000000000E+00 0. -1.
         -6    2    1    2    0  503  0.54918089577E+02  0.17644510315E+02 -0.14723179536E+03  0.23426731965E+03  0.17284863374E+03 0.  0.
        -24    2    3    3    0    0 -0.12776279980E+01  0.28943718169E+02 -0.15500029004E+03  0.17623224163E+03  0.78697788537E+02 0.  0.
          6    2    1    2  501    0 -0.54918089577E+02 -0.17644510315E+02  0.15849217595E+03  0.24090970468E+03  0.17201857651E+03 0.  0.
         24    2    5    5    0    0 -0.58841487633E+02 -0.48411956947E+02  0.40285571418E+02  0.11861121663E+03  0.81484079445E+02 0.  0.
          5    1    5    5  501    0  0.39233980556E+01  0.30767446633E+02  0.11820660454E+03  0.12229848805E+03  0.47000000000E+01 0. -1.
        -13    1    6    6    0    0 -0.17927821028E+02  0.10855938057E+02 -0.16680938507E+02  0.26786411992E+02  0.00000000000E+00 0.  1.
         14    1    6    6    0    0 -0.40913666605E+02 -0.59267895004E+02  0.56966509925E+02  0.91824804635E+02  0.00000000000E+00 0. -1.
         -5    1    3    3    0  503  0.56195717575E+02 -0.11299207855E+02  0.77684946808E+01  0.58035078027E+02  0.47000000000E+01 0.  1.
         11    1    4    4    0    0 -0.28212751807E+02  0.13001692232E+02 -0.18427747039E+02  0.36119042434E+02  0.00000000000E+00 0. -1.
        -12    1    4    4    0    0  0.26935123808E+02  0.15942025937E+02 -0.13657254300E+03  0.14011319919E+03  0.00000000000E+00 0.  1.
</event>
<event>
12    1  0.8219652E-002  0.1859252E+03  0.7818608E-02  0.1162429E+00
         21   -1    0    0  501  502  0.00000000000E+00  0.00000000000E+00  0.42175019155E+02  0.42175019155E+02  0.00000000000E+00 0. -1.
         21   -1    0    0  502  503 -0.00000000000E+00 -0.00000000000E+00 -0.81582482412E+03  0.81582482412E+03  0.00000000000E+00 0. -1.
         -6    2    1    2    0  503 -0.60692466667E+02  0.34418243406E+02 -0.37285284694E+03  0.41617819907E+03  0.17122166020E+03 0.  0.
        -24    2    3    3    0    0 -0.21597208470E+02  0.69292496661E+02 -0.32956732810E+03  0.34805787248E+03  0.85216015728E+02 0.  0.
          6    2    1    2  501    0  0.60692466667E+02 -0.34418243406E+02 -0.40079695803E+03  0.44182164421E+03  0.17233680029E+03 0.  0.
         24    2    5    5    0    0  0.16925737502E+02 -0.54367586354E+02 -0.11049013785E+03  0.14751968583E+03  0.79446032676E+02 0.  0.
          5    1    5    5  501    0  0.43766729164E+02  0.19949342948E+02 -0.29030682017E+03  0.29430195838E+03  0.47000000000E+01 0. -1.
        -11    1    6    6    0    0 -0.15719148128E+02  0.10472413619E+02 -0.51311987794E+01  0.19572742929E+02  0.00000000000E+00 0.  1.
         12    1    6    6    0    0  0.32644885630E+02 -0.64839999973E+02 -0.10535893908E+03  0.12794694290E+03  0.00000000000E+00 0. -1.
         -5    1    3    3    0  503 -0.39095258197E+02 -0.34874253255E+02 -0.43285518836E+02  0.68120326588E+02  0.47000000000E+01 0.  1.
         13    1    4    4    0    0  0.21926717065E+01  0.59182967115E+02 -0.94165179950E+02  0.11124078623E+03  0.00000000000E+00 0. -1.
        -14    1    4    4    0    0 -0.23789880176E+02  0.10109529546E+02 -0.23540214816E+03  0.23681708626E+03  0.00000000000E+00 0.  1.
</event>
<event>
12    1  0.8219652E-002  0.1923545E+03  0.7818608E-02  0.1156590E+00
         21   -1    0    0  503  502  0.00000000000E+00  0.00000000000E+00  0.60223784869E+02  0.60223784869E+02  0.00000000000E+00 0.  1.
         21   -1    0    0  501  503 -0.00000000000E+00 -0.00000000000E+00 -0.88803463447E+03  0.88803463447E+03  0.00000000000E+00 0.  1.
          6    2    1    2  501    0  0.48560942763E+02  0.69756826164E+02 -0.67950414435E+03  0.70620544691E+03  0.17255744289E+03 0.  0.
         24    2    3    3    0    0 -0.31631045717E+02  0.75481306161E+01 -0.24317516156E+03  0.25820349597E+03  0.80482226640E+02 0.  0.
         -6    2    1    2    0  502 -0.48560942763E+02 -0.69756826164E+02 -0.14830670525E+03  0.24205297243E+03  0.17137847788E+03 0.  0.
        -24    2    5    5    0    0  0.20610962530E+02 -0.34690429877E+01 -0.11324837721E+03  0.13992560565E+03  0.79480400980E+02 0.  0.
          5    1    3    3  501    0  0.80191988480E+02  0.62208695548E+02 -0.43632898279E+03  0.44800195093E+03  0.47000000000E+01 0. -1.
        -11    1    4    4    0    0 -0.94499903227E+01  0.34227180917E+02 -0.19843470275E+03  0.20158654094E+03  0.00000000000E+00 0.  1.
         12    1    4    4    0    0 -0.22181055394E+02 -0.26679050301E+02 -0.44740458805E+02  0.56616955035E+02  0.00000000000E+00 0. -1.
         -5    1    5    5    0  502 -0.69171905293E+02 -0.66287783176E+02 -0.35058328039E+02  0.10212736678E+03  0.47000000000E+01 0.  1.
         13    1    6    6    0    0 -0.12978264587E+02 -0.64668813668E+01 -0.10393338569E+03  0.10494000461E+03  0.00000000000E+00 0. -1.
        -14    1    6    6    0    0  0.33589227117E+02  0.29978383791E+01 -0.93149915235E+01  0.34985601043E+02  0.00000000000E+00 0.  1.
</event>
<event>
12    1  0.8219652E-002  0.8213410E+03  0.7818608E-02  0.9530895E-01
         21   -1    0    0  501  502  0.00000000000E+00  0.00000000000E+00  0.14926940442E+04  0.14926940442E+04  0.00000000000E+00 0.  1.
         21   -1    0    0  502  503 -0.00000000000E+00 -0.00000000000E+00 -0.45311734837E+03  0.45311734837E+03  0.00000000000E+00 0. -1.
         -6    2    1    2    0  503 -0.13977297344E+02 -0.79950592520E+03  0.43738307025E+03  0.92736249191E+03  0.17114950187E+03 0.  0.
        -24    2    3    3    0    0  0.40901030659E+02 -0.57710029796E+03  0.35695655122E+03  0.68453249196E+03  0.80306319030E+02 0.  0.
          6    2    1    2  501    0  0.13977297344E+02  0.79950592520E+03  0.60219362558E+03  0.10184489007E+04  0.18760573367E+03 0.  0.
         24    2    5    5    0    0  0.59127594879E+02  0.26445149506E+03  0.17363623194E+03  0.33142246579E+03  0.79124231869E+02 0.  0.
          5    1    5    5  501    0 -0.45150297535E+02  0.53505443013E+03  0.42855739364E+03  0.68702643488E+03  0.47000000000E+01 0. -1.
        -11    1    6    6    0    0  0.10383972103E+02  0.18257416509E+03  0.14023578287E+03  0.23045005409E+03  0.00000000000E+00 0.  1.
         12    1    6    6    0    0  0.48743622776E+02  0.81877329978E+02  0.33400449067E+02  0.10097241169E+03  0.00000000000E+00 0. -1.
         -5    1    3    3    0  503 -0.54878328004E+02 -0.22240562724E+03  0.80426519033E+02  0.24282999995E+03  0.47000000000E+01 0.  1.
         13    1    4    4    0    0  0.51760955399E+01 -0.16353039380E+03  0.14413855441E+03  0.21804794089E+03  0.00000000000E+00 0. -1.
        -14    1    4    4    0    0  0.35724935119E+02 -0.41356990416E+03  0.21281799681E+03  0.46648455106E+03  0.00000000000E+00 0.  1.
</event>
<event>
12    1  0.8219652E-002  0.2198306E+03  0.7818608E-02  0.1134142E+00
         21   -1    0    0  501  502  0.00000000000E+00  0.00000000000E+00  0.55894391053E+03  0.55894391053E+03  0.00000000000E+00 0. -1.
         21   -1    0    0  502  503 -0.00000000000E+00 -0.00000000000E+00 -0.90375757387E+02  0.90375757387E+02  0.00000000000E+00 0. -1.
         -6    2    1    2    0  503 -0.12544026356E+03  0.57255507029E+02  0.16397104555E+03  0.27368038642E+03  0.17029679188E+03 0.  0.
        -24    2    3    3    0    0 -0.54757582549E+02  0.95593772122E+02  0.83378367730E+02  0.15973683161E+03  0.80170699457E+02 0.  0.
          6    2    1    2  501    0  0.12544026356E+03 -0.57255507029E+02  0.30459710760E+03  0.37563928150E+03  0.17120753209E+03 0.  0.
         24    2    5    5    0    0  0.99485191892E+02 -0.49787739224E+02  0.10210806040E+03  0.17130294715E+03  0.80885853653E+02 0.  0.
          5    1    5    5  501    0  0.25955071666E+02 -0.74677678040E+01  0.20248904720E+03  0.20433633435E+03  0.47000000000E+01 0. -1.
        -11    1    6    6    0    0  0.29073106361E+01  0.12739301346E+02 -0.51160738693E+01  0.14032692748E+02  0.00000000000E+00 0.  1.
         12    1    6    6    0    0  0.96577881255E+02 -0.62527040570E+02  0.10722413427E+03  0.15727025440E+03  0.00000000000E+00 0. -1.
         -5    1    3    3    0  503 -0.70682681009E+02 -0.38338265093E+02  0.80592677820E+02  0.11394355481E+03  0.47000000000E+01 0.  1.
         11    1    4    4    0    0 -0.28780255389E+02  0.98140112727E+01 -0.83065919120E+01  0.31521697078E+02  0.00000000000E+00 0. -1.
        -12    1    4    4    0    0 -0.25977327160E+02  0.85779760849E+02  0.91684959642E+02  0.12821513453E+03  0.00000000000E+00 0.  1.
</event>
<event>
12    1  0.8219652E-002  0.2058317E+03  0.7818608E-02  0.1145227E+00
         21   -1    0    0  501  502  0.00000000000E+00  0.00000000000E+00  0.11585009584E+03  0.11585009584E+03  0.00000000000E+00 0. -1.
         21   -1    0    0  502  503 -0.00000000000E+00 -0.00000000000E+00 -0.37344112080E+03  0.37344112080E+03  0.00000000000E+00 0. -1.
         -6    2    1    2    0  503 -0.10768442161E+03 -0.29016915214E+02 -0.16933378415E+03  0.26533578185E+03  0.17114681023E+03 0.  0.
        -24    2    3    3    0    0 -0.14018091353E+03 -0.33709970124E+02 -0.16238777612E+03  0.23144797019E+03  0.80070734158E+02 0.  0.
          6    2    1    2  501    0  0.10768442161E+03  0.29016915214E+02 -0.88257240803E+02  0.22395543479E+03  0.17299936472E+03 0.  0.
         24    2    5    5    0    0  0.51561360275E+02  0.58867339080E+02 -0.11088760075E+03  0.15631617837E+03  0.77554820203E+02 0.  0.
          5    1    5    5  501    0  0.56123061331E+02 -0.29850423865E+02  0.22630359943E+02  0.67639256422E+02  0.47000000000E+01 0. -1.
        -11    1    6    6    0    0  0.30334702427E+02  0.41114706298E+02 -0.11727042455E+03  0.12791780845E+03  0.00000000000E+00 0.  1.
         12    1    6    6    0    0  0.21226657848E+02  0.17752632782E+02  0.63828238047E+01  0.28398369915E+02  0.00000000000E+00 0. -1.
         -5    1    3    3    0  503  0.32496491925E+02  0.46930549096E+01 -0.69460080364E+01  0.33887811665E+02  0.47000000000E+01 0.  1.
         13    1    4    4    0    0 -0.98003078238E+02 -0.11772882406E+02 -0.15437712103E+03  0.18323618530E+03  0.00000000000E+00 0. -1.
        -14    1    4    4    0    0 -0.42177835292E+02 -0.21937087718E+02 -0.80106550835E+01  0.48211784891E+02  0.00000000000E+00 0.  1.
</event>
<event>
12    1  0.8219652E-002  0.3487922E+03  0.7818608E-02  0.1063195E+00
         21   -1    0    0  503  502  0.00000000000E+00  0.00000000000E+00  0.96503468954E+02  0.96503468954E+02  0.00000000000E+00 0. -1.
         21   -1    0    0  501  503 -0.00000000000E+00 -0.00000000000E+00 -0.12984105014E+04  0.12984105014E+04  0.00000000000E+00 0.  1.
          6    2    1    2  501    0 -0.14682409651E+03 -0.26437719454E+03 -0.72510550919E+03  0.80463281599E+03  0.17379111832E+03 0.  0.
         24    2    3    3    0    0 -0.16082953734E+03 -0.15999328228E+03 -0.54480879170E+03  0.59577604725E+03  0.81660813801E+02 0.  0.
         -6    2    1    2    0  502  0.14682409651E+03  0.26437719454E+03 -0.47680152326E+03  0.59028115436E+03  0.17216135544E+03 0.  0.
        -24    2    5    5    0    0  0.97405731985E+02  0.18245801222E+03 -0.20413684289E+03  0.30128107632E+03  0.79496122421E+02 0.  0.
          5    1    3    3  501    0  0.14005440829E+02 -0.10438391226E+03 -0.18029671748E+03  0.20885676874E+03  0.47000000000E+01 0. -1.
        -13    1    4    4    0    0 -0.39555121059E+02 -0.67238481407E+02 -0.27404520941E+03  0.28493226876E+03  0.00000000000E+00 0.  1.
         14    1    4    4    0    0 -0.12127441628E+03 -0.92754800871E+02 -0.27076358230E+03  0.31084377849E+03  0.00000000000E+00 0. -1.
         -5    1    5    5    0  502  0.49418364525E+02  0.81919182317E+02 -0.27266468037E+03  0.28900007804E+03  0.47000000000E+01 0.  1.
         11    1    6    6    0    0  0.88525255402E+02  0.19020142930E+03 -0.19278548200E+03  0.28492024607E+03  0.00000000000E+00 0. -1.
        -12    1    6    6    0    0  0.88804765833E+01 -0.77434170830E+01 -0.11351360887E+02  0.16360830250E+02  0.00000000000E+00 0.  1.
</event>
<event>
12    1  0.8219652E-002  0.3224601E+03  0.7818608E-02  0.1074651E+00
         21   -1    0    0  501  502  0.00000000000E+00  0.00000000000E+00  0.20262590421E+03  0.20262590421E+03  0.00000000000E+00 0. -1.
         21   -1    0    0  502  503 -0.00000000000E+00 -0.00000000000E+00 -0.18503444736E+04  0.18503444736E+04  0.00000000000E+00 0. -1.
         -6    2    1    2    0  503  0.27107131331E+03  0.33594245353E+02 -0.16974550504E+04  0.17278119569E+04  0.17138342994E+03 0.  0.
        -24    2    3    3    0    0  0.74983815148E+02 -0.34407665755E+02 -0.56352336210E+03  0.57503369089E+03  0.79364387677E+02 0.  0.
          6    2    1    2  501    0 -0.27107131331E+03 -0.33594245353E+02  0.49736480986E+02  0.32515842094E+03  0.16925144296E+03 0.  0.
         24    2    5    5    0    0 -0.10341073588E+03  0.54162101879E+01  0.74442476055E+02  0.15119186938E+03  0.81204578066E+02 0.  0.
          5    1    5    5  501    0 -0.16766057744E+03 -0.39010455541E+02 -0.24705995070E+02  0.17396655156E+03  0.47000000000E+01 0. -1.
        -11    1    6    6    0    0  0.11684202074E+02 -0.58827653773E+01 -0.98739657738E+00  0.13118782664E+02  0.00000000000E+00 0.  1.
         12    1    6    6    0    0 -0.11509493795E+03  0.11298975565E+02  0.75429872633E+02  0.13807308672E+03  0.00000000000E+00 0. -1.
         -5    1    3    3    0  503  0.19608749817E+03  0.68001911108E+02 -0.11339316883E+04  0.11527782660E+04  0.47000000000E+01 0.  1.
         11    1    4    4    0    0  0.73366078786E+02  0.73897793145E+00 -0.45694859747E+03  0.46280141349E+03  0.00000000000E+00 0. -1.
        -12    1    4    4    0    0  0.16177363621E+01 -0.35146643686E+02 -0.10657476463E+03  0.11223227739E+03  0.00000000000E+00 0.  1.
</event>
<event>
12    1  0.8219652E-002  0.2430886E+03  0.7818608E-02  0.1117777E+00
         21   -1    0    0  501  502  0.00000000000E+00  0.00000000000E+00  0.58414088990E+03  0.58414088990E+03  0.00000000000E+00 0.  1.
         21   -1    0    0  502  503 -0.00000000000E+00 -0.00000000000E+00 -0.23210492408E+03  0.23210492408E+03  0.00000000000E+00 0.  1.
         -6    2    1    2    0  503 -0.13104035781E+03 -0.10871979817E+03 -0.13062198599E+03  0.27582857997E+03  0.17328511885E+03 0.  0.
        -24    2    3    3    0    0 -0.13076632286E+03 -0.41496403230E+02 -0.41401097841E+02  0.16401839794E+03  0.79788478406E+02 0.  0.
          6    2    1    2  501    0  0.13104035781E+03  0.10871979817E+03  0.48265795181E+03  0.54041723401E+03  0.17349500996E+03 0.  0.
         24    2    5    5    0    0  0.13954767854E+03  0.80248596880E+02  0.47720288389E+03  0.50984221847E+03  0.79392086841E+02 0.  0.
          5    1    5    5  501    0 -0.85073207391E+01  0.28471201292E+02  0.54550679189E+01  0.30575015538E+02  0.47000000000E+01 0. -1.
        -13    1    6    6    0    0  0.57142396693E+02  0.78460746713E+02  0.25901629761E+03  0.27660582912E+03  0.00000000000E+00 0.  1.
         14    1    6    6    0    0  0.82405281852E+02  0.17878501669E+01  0.21818658628E+03  0.23323638935E+03  0.00000000000E+00 0. -1.
         -5    1    3    3    0  503 -0.27403494444E+00 -0.67223394943E+02 -0.89220888146E+02  0.11181018202E+03  0.47000000000E+01 0.  1.
         11    1    4    4    0    0 -0.19937548401E+02 -0.44216858543E+01  0.22857424755E+02  0.30651574323E+02  0.00000000000E+00 0. -1.
        -12    1    4    4    0    0 -0.11082877446E+03 -0.37074717375E+02 -0.64258522596E+02  0.13336682362E+03  0.00000000000E+00 0.  1.
</event>
<event>
12    1  0.8219652E-002  0.2251151E+03  0.7818608E-02  0.1130155E+00
         21   -1    0    0  503  502  0.00000000000E+00  0.00000000000E+00  0.48277758692E+02  0.48277758692E+02  0.00000000000E+00 0. -1.
         21   -1    0    0  501  503 -0.00000000000E+00 -0.00000000000E+00 -0.15667300059E+04  0.15667300059E+04  0.00000000000E+00 0.  1.
          6    2    1    2  501    0  0.14640051207E+03 -0.87459239653E+01 -0.12236291249E+04  0.12441643966E+04  0.17078410177E+03 0.  0.
         24    2    3    3    0    0  0.15671225366E+03  0.24723476747E+02 -0.81329396621E+03  0.83231058124E+03  0.78255015246E+02 0.  0.
         -6    2    1    2    0  502 -0.14640051207E+03  0.87459239653E+01 -0.29482312227E+03  0.37084336793E+03  0.17057118452E+03 0.  0.
        -24    2    5    5    0    0 -0.16526995715E+03  0.37601486473E+02 -0.22321068983E+03  0.29122471480E+03  0.79125166252E+02 0.  0.
          5    1    3    3  501    0 -0.10311741588E+02 -0.33469400712E+02 -0.41033515870E+03  0.41185381541E+03  0.47000000000E+01 0. -1.
        -13    1    4    4    0    0  0.88376222541E+02 -0.21168731836E+02 -0.34124550871E+03  0.35313873921E+03  0.00000000000E+00 0.  1.
         14    1    4    4    0    0  0.68336031116E+02  0.45892208583E+02 -0.47204845751E+03  0.47917184203E+03  0.00000000000E+00 0. -1.
         -5    1    5    5    0  502  0.18869445085E+02 -0.28855562507E+02 -0.71612432443E+02  0.79618653127E+02  0.47000000000E+01 0.  1.
         11    1    6    6    0    0 -0.87194471034E+02  0.34687849589E+02 -0.17730440423E+03  0.20060651646E+03  0.00000000000E+00 0. -1.
        -12    1    6    6    0    0 -0.78075486119E+02  0.29136368834E+01 -0.45906285602E+02  0.90618198340E+02  0.00000000000E+00 0.  1.
</event>
<event>
12    1  0.8219652E-002  0.2425208E+03  0.7818608E-02  0.1118714E+00
         21   -1    0    0  501  502  0.00000000000E+00  0.00000000000E+00  0.61256082755E+03  0.61256082755E+03  0.00000000000E+00 0. -1.
         21   -1    0    0  502  503 -0.00000000000E+00 -0.00000000000E+00 -0.11761573717E+03  0.11761573717E+03  0.00000000000E+00 0. -1.
         -6    2    1    2    0  503  0.17014935614E+03  0.22139160043E+02  0.87493407161E+02  0.25782053361E+03  0.17139248949E+03 0.  0.
        -24    2    3    3    0    0  0.17842879398E+03  0.29350317761E+02  0.31415252099E+02  0.20048468652E+03  0.80677851917E+02 0.  0.
          6    2    1    2  501    0 -0.17014935614E+03 -0.22139160043E+02  0.40745168322E+03  0.47235603111E+03  0.16632017365E+03 0.  0.
         24    2    5    5    0    0 -0.97483431875E+02  0.14217867440E+02  0.12177999803E+03  0.17531635073E+03  0.78741905423E+02 0.  0.
          5    1    5    5  501    0 -0.72665924260E+02 -0.36357027483E+02  0.28567168519E+03  0.29703968037E+03  0.47000000000E+01 0. -1.
        -11    1    6    6    0    0 -0.86461442824E+02 -0.16463296002E+02  0.10947979131E+03  0.14047222471E+03  0.00000000000E+00 0.  1.
         12    1    6    6    0    0 -0.11021989051E+02  0.30681163442E+02  0.12300206719E+02  0.34844126020E+02  0.00000000000E+00 0. -1.
         -5    1    3    3    0  503 -0.82794378468E+01 -0.72111577187E+01  0.56078155062E+02  0.57335847093E+02  0.47000000000E+01 0.  1.
         11    1    4    4    0    0  0.10257853702E+03  0.48516855775E+01  0.56130770739E+02  0.11703229697E+03  0.00000000000E+00 0. -1.
        -12    1    4    4    0    0  0.75850256962E+02  0.24498632184E+02 -0.24715518640E+02  0.83452389550E+02  0.00000000000E+00 0.  1.
</event>
<event>
12    1  0.8219652E-002  0.1856732E+03  0.7818608E-02  0.1162532E+00
         21   -1    0    0  501  502  0.00000000000E+00  0.00000000000E+00  0.21820511331E+02  0.21820511331E+02  0.00000000000E+00 0.  1.
         21   -1    0    0  502  503 -0.00000000000E+00 -0.00000000000E+00 -0.19422933366E+04  0.19422933366E+04  0.00000000000E+00 0.  1.
         -6    2    1    2    0  503 -0.38928149889E+02  0.57904512234E+02 -0.13877563788E+04  0.14001222490E+04  0.17206455700E+03 0.  0.
        -24    2    3    3    0    0 -0.68772105580E+02  0.80233841249E+02 -0.12615224338E+04  0.12684166701E+04  0.79214432538E+02 0.  0.
          6    2    1    2  501    0  0.38928149889E+02 -0.57904512234E+02 -0.53271644642E+03  0.56399159891E+03  0.17155575760E+03 0.  0.
         24    2    5    5    0    0  0.88088911508E+02 -0.24260726064E+02 -0.40369135440E+03  0.42180070890E+03  0.81245856833E+02 0.  0.
          5    1    5    5  501    0 -0.49160761618E+02 -0.33643786171E+02 -0.12902509202E+03  0.14219089001E+03  0.47000000000E+01 0. -1.
        -11    1    6    6    0    0  0.22751990803E+02 -0.18592597088E+02 -0.28231249209E+03  0.28383741991E+03  0.00000000000E+00 0.  1.
         12    1    6    6    0    0  0.65336920705E+02 -0.56681289759E+01 -0.12137886231E+03  0.13796328899E+03  0.00000000000E+00 0. -1.
         -5    1    3    3    0  503  0.29843955691E+02 -0.22329329015E+02 -0.12623394504E+03  0.13170557887E+03  0.47000000000E+01 0.  1.
         11    1    4    4    0    0 -0.11200356654E+02  0.34901524432E+02 -0.82286110643E+03  0.82367709988E+03  0.00000000000E+00 0. -1.
        -12    1    4    4    0    0 -0.57571748926E+02  0.45332316817E+02 -0.43866132734E+03  0.44473957023E+03  0.00000000000E+00 0.  1.
</event>
<event>
12    1  0.8219652E-002  0.1778979E+03  0.7818608E-02  0.1170664E+00
         21   -1    0    0  503  502  0.00000000000E+00  0.00000000000E+00  0.42755384163E+03  0.42755384163E+03  0.00000000000E+00 0.  1.
         21   -1    0    0  501  503 -0.00000000000E+00 -0.00000000000E+00 -0.82505038150E+02  0.82505038150E+02  0.00000000000E+00 0.  1.
          6    2    1    2  501    0 -0.29553110624E+02 -0.13855291526E+02  0.83052094549E+02  0.19337303740E+03  0.17155210793E+03 0.  0.
         24    2    3    3    0    0 -0.27580038487E+02 -0.66586414626E+02  0.91555857648E+02  0.13971795056E+03  0.77098777577E+02 0.  0.
         -6    2    1    2    0  502  0.29553110624E+02  0.13855291526E+02  0.26199670893E+03  0.31668584238E+03  0.17487793406E+03 0.  0.
        -24    2    5    5    0    0 -0.26087961476E+02  0.29609094933E+01  0.24339490657E+03  0.25682990269E+03  0.77660605549E+02 0.  0.
          5    1    3    3  501    0 -0.19730721368E+01  0.52731123100E+02 -0.85037630990E+01  0.53655086841E+02  0.47000000000E+01 0. -1.
        -13    1    4    4    0    0 -0.49118854283E+02 -0.24307307938E+02  0.66123331926E+02  0.85882490010E+02  0.00000000000E+00 0.  1.
         14    1    4    4    0    0  0.21538815796E+02 -0.42279106689E+02  0.25432525722E+02  0.53835460552E+02  0.00000000000E+00 0. -1.
         -5    1    5    5    0  502  0.55641072099E+02  0.10894382033E+02  0.18601802358E+02  0.59855939682E+02  0.47000000000E+01 0.  1.
         13    1    6    6    0    0 -0.32933544004E+01  0.38742698241E+02  0.10010246493E+03  0.10738876261E+03  0.00000000000E+00 0. -1.
        -14    1    6    6    0    0 -0.22794607075E+02 -0.35781788748E+02  0.14329244164E+03  0.14944114009E+03  0.00000000000E+00 0.  1.
</event>
<event>
12    1  0.8219652E-002  0.1763466E+03  0.7818608E-02  0.1172060E+00
         21   -1    0    0  501  502  0.00000000000E+00  0.00000000000E+00  0.26724255794E+03  0.26724255794E+03  0.00000000000E+00 0.  1.
         21   -1    0    0  502  503 -0.00000000000E+00 -0.00000000000E+00 -0.12622962056E+03  0.12622962056E+03  0.00000000000E+00 0.  1.
         -6    2    1    2    0  503 -0.96276038713E+01 -0.74813716320E+01  0.13071212263E+03  0.21950802824E+03  0.17592456845E+03 0.  0.
        -24    2    3    3    0    0 -0.13588547551E+01  0.64853853524E+02  0.76659530863E+02  0.12870863570E+03  0.80506896773E+02 0.  0.
          6    2    1    2  501    0  0.96276038713E+01  0.74813716320E+01  0.10300814755E+02  0.17396415026E+03  0.17323035852E+03 0.  0.
         24    2    5    5    0    0  0.28415766910E+02 -0.13063729153E+02  0.68123667169E+02  0.10961612388E+03  0.79979645901E+02 0.  0.
          5    1    5    5  501    0 -0.18788163039E+02  0.20545100785E+02 -0.57822852413E+02  0.64348026371E+02  0.47000000000E+01 0. -1.
        -13    1    6    6    0    0 -0.67728194906E+01  0.16333970526E+02 -0.90382921665E+01  0.19858509568E+02  0.00000000000E+00 0.  1.
         14    1    6    6    0    0  0.35188586401E+02 -0.29397699679E+02  0.77161959335E+02  0.89757614316E+02  0.00000000000E+00 0. -1.
         -5    1    3    3    0  503 -0.82687491162E+01 -0.72335225156E+02  0.54052591765E+02  0.90799392546E+02  0.47000000000E+01 0.  1.
         11    1    4    4    0    0  0.18583200600E+01  0.79235076733E+01  0.70935539022E+02  0.71400882513E+02  0.00000000000E+00 0. -1.
        -12    1    4    4    0    0 -0.32171748151E+01  0.56930345851E+02  0.57239918401E+01  0.57307753184E+02  0.00000000000E+00 0.  1.
</event>
<event>
12    1  0.8219652E-002  0.1910778E+03  0.7818608E-02  0.1160742E+00
         21   -1    0    0  503  502  0.00000000000E+00  0.00000000000E+00  0.84502135757E+03  0.84502135757E+03  0.00000000000E+00 0.  1.
         21   -1    0    0  501  503 -0.00000000000E+00 -0.00000000000E+00 -0.13555374254E+03  0.13555374254E+03  0.00000000000E+00 0.  1.
          6    2    1    2  501    0 -0.18696987798E+02 -0.35336020310E+02 -0.60551300037E+02  0.18720265178E+03  0.17256929395E+03 0.  0.
         24    2    3    3    0    0  0.12088458559E+02 -0.27952838520E+02 -0.10368168010E+03  0.13349441437E+03  0.78379690409E+02 0.  0.
         -6    2    1    2    0  502  0.18696987798E+02  0.35336020310E+02  0.77001891507E+03  0.79337244833E+03  0.18684887079E+03 0.  0.
        -24    2    5    5    0    0 -0.60848773032E+02  0.43372338860E+02  0.47729011550E+03  0.48988546248E+03  0.81229176016E+02 0.  0.
          5    1    3    3  501    0 -0.30785446357E+02 -0.73831817892E+01  0.43130380064E+02  0.53708237406E+02  0.47000000000E+01 0. -1.
        -13    1    4    4    0    0  0.14319411995E+02  0.15044391200E+02 -0.83315716320E+02  0.85865521907E+02  0.00000000000E+00 0.  1.
         14    1    4    4    0    0 -0.22309534363E+01 -0.42997229720E+02 -0.20365963781E+02  0.47628892466E+02  0.00000000000E+00 0. -1.
         -5    1    5    5    0  502  0.79545760830E+02 -0.80363185502E+01  0.29272879957E+03  0.30348698585E+03  0.47000000000E+01 0.  1.
         11    1    6    6    0    0 -0.54253153844E+02 -0.10674157211E+02  0.21430978090E+03  0.22132786658E+03  0.00000000000E+00 0. -1.
        -12    1    6    6    0    0 -0.65956191878E+01  0.54046496071E+02  0.26298033460E+03  0.26855759591E+03  0.00000000000E+00 0.  1.
</event>
<event>
12    1  0.8219652E-002  0.2000479E+03  0.7818608E-02  0.1149763E+00
         21   -1    0    0  503  502  0.00000000000E+00  0.00000000000E+00  0.27319985593E+03  0.27319985593E+03  0.00000000000E+00 0.  1.
         21   -1    0    0  501  503 -0.00000000000E+00 -0.00000000000E+00 -0.18529146204E+03  0.18529146204E+03  0.00000000000E+00 0.  1.
          6    2    1    2  501    0  0.86699962700E+02  0.50983662229E+02 -0.61233629822E+02  0.20920978540E+03  0.17292472218E+03 0.  0.
         24    2    3    3    0    0  0.12001480058E+03  0.43065277325E+02 -0.79235701276E+02  0.17023872153E+03  0.80279234442E+02 0.  0.
         -6    2    1    2    0  502 -0.86699962700E+02 -0.50983662229E+02  0.14914202371E+03  0.24928153257E+03  0.17257381580E+03 0.  0.
        -24    2    5    5    0    0 -0.10766293191E+03 -0.19871101230E+01  0.80379723968E+02  0.16215833209E+03  0.90769869047E+02 0.  0.
          5    1    3    3  501    0 -0.33314837882E+02  0.79183849037E+01  0.18002071454E+02  0.38971063871E+02  0.47000000000E+01 0. -1.
        -13    1    4    4    0    0 -0.46364940052E+00  0.23873428839E+02  0.15337004450E+01  0.23927135481E+02  0.00000000000E+00 0.  1.
         14    1    4    4    0    0  0.12047844998E+03  0.19191848486E+02 -0.80769401721E+02  0.14631158605E+03  0.00000000000E+00 0. -1.
         -5    1    5    5    0  502  0.20962969213E+02 -0.48996552106E+02  0.68762299742E+02  0.87123200482E+02  0.47000000000E+01 0.  1.
         11    1    6    6    0    0 -0.59238351999E+01  0.11798545641E+02  0.54776769365E+02  0.56345292303E+02  0.00000000000E+00 0. -1.
        -12    1    6    6    0    0 -0.10173909671E+03 -0.13785655764E+02  0.25602954604E+02  0.10581303979E+03  0.00000000000E+00 0.  1.
</event>
<event>
12    1  0.8219652E-002  0.2147992E+03  0.7818608E-02  0.1138006E+00
         21   -1    0    0  501  502  0.00000000000E+00  0.00000000000E+00  0.88158229544E+02  0.88158229544E+02  0.00000000000E+00 0.  1.
         21   -1    0    0  502  503 -0.00000000000E+00 -0.00000000000E+00 -0.54866804157E+03  0.54866804157E+03  0.00000000000E+00 0. -1.
         -6    2    1    2    0  503  0.11302116012E+03 -0.62877906875E+02 -0.30222241090E+03  0.37077900864E+03  0.17149715388E+03 0.  0.
        -24    2    3    3    0    0  0.76994258775E+02 -0.10895544765E+03 -0.20730051158E+03  0.25918450002E+03  0.80023105971E+02 0.  0.
          6    2    1    2  501    0 -0.11302116012E+03  0.62877906875E+02 -0.15828740113E+03  0.26604726248E+03  0.17029043046E+03 0.  0.
         24    2    5    5    0    0 -0.87668440531E+02  0.10906787672E+03 -0.11761441981E+03  0.19931904420E+03  0.79456733101E+02 0.  0.
          5    1    5    5  501    0 -0.25352719592E+02 -0.46189969848E+02 -0.40672981316E+02  0.66728218277E+02  0.47000000000E+01 0. -1.
        -13    1    6    6    0    0  0.34965711855E+01  0.26618636968E+02  0.31145617470E+01  0.27027362783E+02  0.00000000000E+00 0.  1.
         14    1    6    6    0    0 -0.91165011716E+02  0.82449239755E+02 -0.12072898156E+03  0.17229168142E+03  0.00000000000E+00 0. -1.
         -5    1    3    3    0  503  0.36026901347E+02  0.46077540776E+02 -0.94921899315E+02  0.11159450862E+03  0.47000000000E+01 0.  1.
         13    1    4    4    0    0  0.46063156601E+02 -0.15970301082E+02 -0.11352004118E+03  0.12354620457E+03  0.00000000000E+00 0. -1.
        -14    1    4    4    0    0  0.30931102174E+02 -0.92985146569E+02 -0.93780470401E+02  0.13563829545E+03  0.00000000000E+00 0.  1.
</event>
<event>
12    1  0.8219652E-002  0.2380858E+03  0.7818608E-02  0.1123197E+00
         21   -1    0    0  503  502  0.00000000000E+00  0.00000000000E+00  0.33637080192E+03  0.33637080192E+03  0.00000000000E+00 0.  1.
         21   -1    0    0  501  503 -0.00000000000E+00 -0.00000000000E+00 -0.16093207846E+03  0.16093207846E+03  0.00000000000E+00 0.  1.
          6    2    1    2  501    0 -0.14852335232E+03  0.40439208395E+01  0.10940300058E+03  0.26201881425E+03  0.18603575733E+03 0.  0.
         24    2    3    3    0    0 -0.14258030884E+03  0.39367638962E+02  0.13666399228E+03  0.21676026261E+03  0.80181102476E+02 0.  0.
         -6    2    1    2    0  502  0.14852335232E+03 -0.40439208395E+01  0.66035722886E+02  0.23528406613E+03  0.17006568025E+03 0.  0.
        -24    2    5    5    0    0  0.56128006444E+02 -0.67473995956E+02  0.16441413574E+02  0.11263839811E+03  0.68658542150E+02 0.  0.
          5    1    3    3  501    0 -0.59430434842E+01 -0.35323718123E+02 -0.27260991704E+02  0.45258551640E+02  0.47000000000E+01 0. -1.
        -11    1    4    4    0    0 -0.66867980339E+02  0.20484697451E+02  0.11696887044E+03  0.13628156983E+03  0.00000000000E+00 0.  1.
         12    1    4    4    0    0 -0.75712328500E+02  0.18882941512E+02  0.19695121845E+02  0.80478692780E+02  0.00000000000E+00 0. -1.
         -5    1    5    5    0  502  0.92395345879E+02  0.63430075117E+02  0.49594309312E+02  0.12264566803E+03  0.47000000000E+01 0.  1.
         11    1    6    6    0    0  0.42781692229E+02 -0.56581109097E+01  0.23273772230E+02  0.49030152792E+02  0.00000000000E+00 0. -1.
        -12    1    6    6    0    0  0.13346314215E+02 -0.61815885047E+02 -0.68323586553E+01  0.63608245315E+02  0.00000000000E+00 0.  1.
</event>
<event>
12    1  0.8219652E-002  0.1875415E+03  0.7818608E-02  0.1161098E+00
         21   -1    0    0  501  502  0.00000000000E+00  0.00000000000E+00  0.18660733940E+03  0.18660733940E+03  0.00000000000E+00 0. -1.
         21   -1    0    0  502  503 -0.00000000000E+00 -0.00000000000E+00 -0.20631013493E+03  0.20631013493E+03  0.00000000000E+00 0. -1.
         -6    2    1    2    0  503 -0.36797933955E+02 -0.58990777690E+02 -0.70318775010E+02  0.19866555239E+03  0.17230575089E+03 0.  0.
        -24    2    3    3    0    0 -0.81105159780E+02 -0.72727925750E+02 -0.67178063278E+02  0.15193447528E+03  0.81876702832E+02 0.  0.
          6    2    1    2  501    0  0.36797933955E+02  0.58990777690E+02  0.50615979485E+02  0.19425192194E+03  0.17417758755E+03 0.  0.
         24    2    5    5    0    0 -0.18132126921E+01 -0.29097153929E+02 -0.23309219767E+01  0.84362119338E+02  0.79130284183E+02 0.  0.
          5    1    5    5  501    0  0.38611146647E+02  0.88087931618E+02  0.52946901462E+02  0.10988980261E+03  0.47000000000E+01 0. -1.
        -13    1    6    6    0    0  0.38664492307E+02 -0.14005212698E+02 -0.57844667398E+00  0.41126920000E+02  0.00000000000E+00 0.  1.
         14    1    6    6    0    0 -0.40477704999E+02 -0.15091941231E+02 -0.17524753027E+01  0.43235199338E+02  0.00000000000E+00 0. -1.
         -5    1    3    3    0  503  0.44307225825E+02  0.13737148060E+02 -0.31407117324E+01  0.46731077104E+02  0.47000000000E+01 0.  1.
         11    1    4    4    0    0 -0.52901363259E+02  0.37768530957E+01 -0.38356517169E+02  0.65452587904E+02  0.00000000000E+00 0. -1.
        -12    1    4    4    0    0 -0.28203796521E+02 -0.76504778845E+02 -0.28821546109E+02  0.86481887378E+02  0.00000000000E+00 0.  1.
</event>
<event>
12    1  0.8219652E-002  0.2004000E+03  0.7818608E-02  0.1152301E+00
         21   -1    0    0  501  502  0.00000000000E+00  0.00000000000E+00  0.18163663223E+04  0.18163663223E+04  0.00000000000E+00 0. -1.
         21   -1    0    0  502  503 -0.00000000000E+00 -0.00000000000E+00 -0.33482222826E+02  0.33482222826E+02  0.00000000000E+00 0. -1.
         -6    2    1    2    0  503  0.11004202002E+03 -0.25213903309E+01  0.33833739253E+03  0.39323319300E+03  0.16746506894E+03 0.  0.
        -24    2    3    3    0    0  0.64918101487E+02 -0.61134271492E+02  0.15900082118E+03  0.19918337031E+03  0.80255808647E+02 0.  0.
          6    2    1    2  501    0 -0.11004202002E+03  0.25213903309E+01  0.14445467070E+04  0.14566153521E+04  0.15131917237E+03 0.  0.
         24    2    5    5    0    0 -0.73517249010E+02  0.52537518519E+02  0.77260381324E+03  0.78180796155E+03  0.78371294208E+02 0.  0.
          5    1    5    5  501    0 -0.36524771010E+02 -0.50016128188E+02  0.67194289373E+03  0.67480739060E+03  0.47000000000E+01 0. -1.
        -13    1    6    6    0    0 -0.59153768726E+02 -0.45606734485E+01  0.32799406053E+03  0.33331677402E+03  0.00000000000E+00 0.  1.
         14    1    6    6    0    0 -0.14363480284E+02  0.57098191967E+02  0.44460975271E+03  0.44849118753E+03  0.00000000000E+00 0. -1.
         -5    1    3    3    0  503  0.45123918532E+02  0.58612881161E+02  0.17933657136E+03  0.19404982269E+03  0.47000000000E+01 0.  1.
         13    1    4    4    0    0  0.27720698124E+02 -0.62877749952E+02  0.52849260037E+02  0.86689635078E+02  0.00000000000E+00 0. -1.
        -14    1    4    4    0    0  0.37197403363E+02  0.17434784601E+01  0.10615156114E+03  0.11249373523E+03  0.00000000000E+00 0.  1.
</event>
<event>
12    1  0.8219652E-002  0.2194378E+03  0.7818608E-02  0.1134329E+00
         21   -1    0    0  503  502  0.00000000000E+00  0.00000000000E+00  0.74425314620E+02  0.74425314620E+02  0.00000000000E+00 0. -1.
         21   -1    0    0  501  503 -0.00000000000E+00 -0.00000000000E+00 -0.68250575294E+03  0.68250575294E+03  0.00000000000E+00 0.  1.
          6    2    1    2  501    0 -0.12825176289E+03 -0.44562180011E+02 -0.39094814738E+03  0.44832285463E+03  0.17239090890E+03 0.  0.
         24    2    3    3    0    0 -0.16820586151E+01  0.81546277129E+01 -0.18113567781E+03  0.19763916102E+03  0.78624276896E+02 0.  0.
         -6    2    1    2    0  502  0.12825176289E+03  0.44562180011E+02 -0.21713229094E+03  0.30860821293E+03  0.17221583768E+03 0.  0.
        -24    2    5    5    0    0  0.79159805276E+02  0.75999742867E+02 -0.76105861813E+02  0.15593573875E+03  0.80508488555E+02 0.  0.
          5    1    3    3  501    0 -0.12656970427E+03 -0.52716807724E+02 -0.20981246957E+03  0.25068369361E+03  0.47000000000E+01 0. -1.
        -11    1    4    4    0    0 -0.11788502795E+02 -0.30535660895E+02 -0.12154135226E+03  0.12587174304E+03  0.00000000000E+00 0.  1.
         12    1    4    4    0    0  0.10106444180E+02  0.38690288608E+02 -0.59594325544E+02  0.71767417981E+02  0.00000000000E+00 0. -1.
         -5    1    5    5    0  502  0.49091957612E+02 -0.31437562856E+02 -0.14102642912E+03  0.15267247418E+03  0.47000000000E+01 0.  1.
         11    1    6    6    0    0  0.41320713057E+02  0.82215997092E+02 -0.31836082735E+02  0.97367385039E+02  0.00000000000E+00 0. -1.
        -12    1    6    6    0    0  0.37839092220E+02 -0.62162542252E+01 -0.44269779079E+02  0.58568353710E+02  0.00000000000E+00 0.  1.
</event>
<event>
12    1  0.8219652E-002  0.1771370E+03  0.7818608E-02  0.1170870E+00
         21   -1    0    0  503  502  0.00000000000E+00  0.00000000000E+00  0.83379682450E+02  0.83379682450E+02  0.00000000000E+00 0.  1.
         21   -1    0    0  501  503 -0.00000000000E+00 -0.00000000000E+00 -0.68630460866E+03  0.68630460866E+03  0.00000000000E+00 0.  1.
          6    2    1    2  501    0 -0.13700898179E+02 -0.37365555340E+02 -0.56055069290E+03  0.58754948224E+03  0.17150339775E+03 0.  0.
         24    2    3    3    0    0  0.52942271177E+02 -0.41638989887E+02 -0.29570343051E+03  0.31437236633E+03  0.82781497572E+02 0.  0.
         -6    2    1    2    0  502  0.13700898179E+02  0.37365555340E+02 -0.42374233317E+02  0.18213480887E+03  0.17260826636E+03 0.  0.
        -24    2    5    5    0    0  0.55479311036E+02  0.46296701267E+02 -0.72356656677E+02  0.12973025889E+03  0.79831796952E+02 0.  0.
          5    1    3    3  501    0 -0.66643169355E+02  0.42734345466E+01 -0.26484726238E+03  0.27317711591E+03  0.47000000000E+01 0. -1.
        -11    1    4    4    0    0  0.57292310026E+02  0.34315882436E+01 -0.20659524075E+03  0.21441963083E+03  0.00000000000E+00 0.  1.
         12    1    4    4    0    0 -0.43500388492E+01 -0.45070578131E+02 -0.89108189761E+02  0.99952735498E+02  0.00000000000E+00 0. -1.
         -5    1    5    5    0  502 -0.41778412857E+02 -0.89311459266E+01  0.29982423359E+02  0.52404549983E+02  0.47000000000E+01 0.  1.
         13    1    6    6    0    0  0.19909679509E+02 -0.22499808524E+02 -0.23699151564E+02  0.38265996741E+02  0.00000000000E+00 0. -1.
        -14    1    6    6    0    0  0.35569631527E+02  0.68796509791E+02 -0.48657505113E+02  0.91464262147E+02  0.00000000000E+00 0.  1.
</event>
<event>
12    1  0.8219652E-002  0.1946202E+03  0.7818608E-02  0.1154376E+00
         21   -1    0    0  503  502  0.00000000000E+00  0.00000000000E+00  0.32847428998E+03  0.32847428998E+03  0.00000000000E+00 0. -1.
         21   -1    0    0  501  503 -0.00000000000E+00 -0.00000000000E+00 -0.13093998582E+03  0.13093998582E+03  0.00000000000E+00 0.  1.
          6    2    1    2  501    0 -0.53743462776E+02  0.74013220441E+02  0.19271877705E+02  0.19549285901E+03  0.17169663964E+03 0.  0.
         24    2    3    3    0    0 -0.66410788030E+02  0.39545903986E+02  0.70757603971E+02  0.13207892488E+03  0.80398585745E+02 0.  0.
         -6    2    1    2    0  502  0.53743462776E+02 -0.74013220441E+02  0.17826242646E+03  0.26392141679E+03  0.17178680090E+03 0.  0.
        -24    2    5    5    0    0 -0.15271945844E+02 -0.32618205158E+02  0.15848125412E+03  0.18091503935E+03  0.79478071917E+02 0.  0.
          5    1    3    3  501    0  0.12667325254E+02  0.34467316456E+02 -0.51485726267E+02  0.63413934131E+02  0.47000000000E+01 0. -1.
        -13    1    4    4    0    0 -0.68899630614E+02  0.19982000632E+01  0.26157627107E+02  0.73724984626E+02  0.00000000000E+00 0.  1.
         14    1    4    4    0    0  0.24888425844E+01  0.37547703922E+02  0.44599976864E+02  0.58353940257E+02  0.00000000000E+00 0. -1.
         -5    1    5    5    0  502  0.69015408620E+02 -0.41395015284E+02  0.19781172335E+02  0.83006377443E+02  0.47000000000E+01 0.  1.
         13    1    6    6    0    0  0.31216892343E+02 -0.18137823998E+01  0.63208265850E+02  0.70519990399E+02  0.00000000000E+00 0. -1.
        -14    1    6    6    0    0 -0.46488838188E+02 -0.30804422758E+02  0.95272988274E+02  0.11039504895E+03  0.00000000000E+00 0.  1.
</event>
<event>
12    1  0.8219652E-002  0.1755703E+03  0.7818608E-02  0.1172362E+00
         21   -1    0    0  503  502  0.00000000000E+00  0.00000000000E+00  0.85113785717E+03  0.85113785717E+03  0.00000000000E+00 0.  1.
         21   -1    0    0  501  503 -0.00000000000E+00 -0.00000000000E+00 -0.37563366394E+02  0.37563366394E+02  0.00000000000E+00 0.  1.
          6    2    1    2  501    0  0.21672320603E+02 -0.70122852350E+01  0.49507465563E+03  0.52501580072E+03  0.17327381433E+03 0.  0.
         24    2    3    3    0    0 -0.39591172589E+02 -0.33767912434E+02  0.38002986411E+03  0.39187499841E+03  0.80222091112E+02 0.  0.
         -6    2    1    2    0  502 -0.21672320603E+02  0.70122852350E+01  0.31849983514E+03  0.36368542284E+03  0.17408641583E+03 0.  0.
        -24    2    5    5    0    0 -0.73796443348E+02 -0.24417409610E+02  0.23500678740E+03  0.26025462999E+03  0.80387544809E+02 0.  0.
          5    1    3    3  501    0  0.61263493192E+02  0.26755627199E+02  0.11504479152E+03  0.13314080231E+03  0.47000000000E+01 0. -1.
        -11    1    4    4    0    0  0.22453099497E+02  0.37326862442E+01  0.76995924497E+02  0.80289769042E+02  0.00000000000E+00 0.  1.
         12    1    4    4    0    0 -0.62044272087E+02 -0.37500598679E+02  0.30303393961E+03  0.31158522937E+03  0.00000000000E+00 0. -1.
         -5    1    5    5    0  502  0.52124122745E+02  0.31429694845E+02  0.83493047740E+02  0.10343079286E+03  0.47000000000E+01 0.  1.
         13    1    6    6    0    0 -0.13116600496E+02  0.27933625854E+02  0.80227479731E+02  0.85958019788E+02  0.00000000000E+00 0. -1.
        -14    1    6    6    0    0 -0.60679842853E+02 -0.52351035464E+02  0.15477930767E+03  0.17429661020E+03  0.00000000000E+00 0.  1.
</event>
<event>
12    1  0.8219652E-002  0.1899838E+03  0.7818608E-02  0.1162525E+00
         21   -1    0    0  503  502  0.00000000000E+00  0.00000000000E+00  0.17677309783E+02  0.17677309783E+02  0.00000000000E+00 0.  1.
         21   -1    0    0  501  503 -0.00000000000E+00 -0.00000000000E+00 -0.24640733741E+04  0.24640733741E+04  0.00000000000E+00 0.  1.
          6    2    1    2  501    0 -0.13335755975E+02 -0.16051949254E+02 -0.18793335390E+04  0.18889119600E+04  0.18883414435E+03 0.  0.
         24    2    3    3    0    0  0.18264002780E+02 -0.93687773221E+01 -0.18140620661E+04  0.18159348079E+04  0.79854236962E+02 0.  0.
         -6    2    1    2    0  502  0.13335755975E+02  0.16051949254E+02 -0.56706252529E+03  0.59283872393E+03  0.17164596571E+03 0.  0.
        -24    2    5    5    0    0  0.18650160707E+00 -0.55021458942E+02 -0.26694437103E+03  0.28410367772E+03  0.80176098327E+02 0.  0.
          5    1    3    3  501    0 -0.31599758755E+02 -0.66831719315E+01 -0.65271472913E+02  0.72977152018E+02  0.47000000000E+01 0. -1.
        -13    1    4    4    0    0  0.14551479597E+02 -0.27143495208E+02 -0.17115417616E+04  0.17118188328E+04  0.00000000000E+00 0.  1.
         14    1    4    4    0    0  0.37125231828E+01  0.17774717886E+02 -0.10252030456E+03  0.10411597510E+03  0.00000000000E+00 0. -1.
         -5    1    5    5    0  502  0.13149254368E+02  0.71073408196E+02 -0.30011815426E+03  0.30873504621E+03  0.47000000000E+01 0.  1.
         13    1    6    6    0    0  0.35400260708E+02 -0.17165070060E+02 -0.16707680307E+03  0.17164636965E+03  0.00000000000E+00 0. -1.
        -14    1    6    6    0    0 -0.35213759101E+02 -0.37856388882E+02 -0.99867567957E+02  0.11245730807E+03  0.00000000000E+00 0.  1.
</event>
<event>
12    1  0.8219652E-002  0.2268946E+03  0.7818608E-02  0.1128880E+00
         21   -1    0    0  501  502  0.00000000000E+00  0.00000000000E+00  0.10205191833E+03  0.10205191833E+03  0.00000000000E+00 0.  1.
         21   -1    0    0  502  503 -0.00000000000E+00 -0.00000000000E+00 -0.66622511463E+03  0.66622511463E+03  0.00000000000E+00 0.  1.
         -6    2    1    2    0  503 -0.61573426871E+01 -0.14722499551E+03 -0.47153755345E+03  0.52320046944E+03  0.17227290771E+03 0.  0.
        -24    2    3    3    0    0  0.42089197616E+02 -0.14397439736E+03 -0.30097457191E+03  0.34585302595E+03  0.80799102522E+02 0.  0.
          6    2    1    2  501    0  0.61573426871E+01  0.14722499551E+03 -0.92635642853E+02  0.24507656352E+03  0.17253419223E+03 0.  0.
         24    2    5    5    0    0  0.30234738543E+02  0.10361277951E+02 -0.57305138930E+02  0.10161321391E+03  0.77587826349E+02 0.  0.
          5    1    5    5  501    0 -0.24077395856E+02  0.13686371756E+03 -0.35330503923E+02  0.14346334961E+03  0.47000000000E+01 0. -1.
        -11    1    6    6    0    0  0.35741416911E+02  0.15724146424E+02  0.45235758844E+01  0.39308528366E+02  0.00000000000E+00 0.  1.
         12    1    6    6    0    0 -0.55066783680E+01 -0.53628684722E+01 -0.61828714814E+02  0.62304685542E+02  0.00000000000E+00 0. -1.
         -5    1    3    3    0  503 -0.48246540303E+02 -0.32505981450E+01 -0.17056298154E+03  0.17734744349E+03  0.47000000000E+01 0.  1.
         11    1    4    4    0    0 -0.19270934041E+02 -0.21272006683E+02 -0.26794501088E+02  0.39265919774E+02  0.00000000000E+00 0. -1.
        -12    1    4    4    0    0  0.61360131657E+02 -0.12270239068E+03 -0.27418007083E+03  0.30658710618E+03  0.00000000000E+00 0.  1.
</event>
<event>
12    1  0.8219652E-002  0.2254475E+03  0.7818608E-02  0.1131872E+00
         21   -1    0    0  503  502  0.00000000000E+00  0.00000000000E+00  0.79310851507E+02  0.79310851507E+02  0.00000000000E+00 0.  1.
         21   -1    0    0  501  503 -0.00000000000E+00 -0.00000000000E+00 -0.92045812563E+03  0.92045812563E+03  0.00000000000E+00 0. -1.
          6    2    1    2  501    0 -0.10566878334E+03 -0.10177879107E+03 -0.70368513983E+03  0.73571892541E+03  0.15679523943E+03 0.  0.
         24    2    3    3    0    0 -0.81343294655E+02 -0.10674187481E+03 -0.68871266531E+03  0.70634841992E+03  0.81193568308E+02 0.  0.
         -6    2    1    2    0  502  0.10566878334E+03  0.10177879107E+03 -0.13746213429E+03  0.26405005173E+03  0.17117761936E+03 0.  0.
        -24    2    5    5    0    0  0.40459757847E+02  0.11014372308E+03 -0.41179636150E+02  0.14736843989E+03  0.79076310632E+02 0.  0.
          5    1    3    3  501    0 -0.24325488680E+02  0.49630837447E+01 -0.14972474517E+02  0.29370505493E+02  0.47000000000E+01 0. -1.
        -13    1    4    4    0    0 -0.87969459788E+02 -0.96364150430E+02 -0.48440549928E+03  0.50167057226E+03  0.00000000000E+00 0.  1.
         14    1    4    4    0    0  0.66261651331E+01 -0.10377724382E+02 -0.20430716603E+03  0.20467784765E+03  0.00000000000E+00 0. -1.
         -5    1    5    5    0  502  0.65209025488E+02 -0.83649320093E+01 -0.96282498144E+02  0.11668161184E+03  0.47000000000E+01 0.  1.
         13    1    6    6    0    0  0.36301754635E+02  0.95419517357E+02 -0.63558247313E+02  0.12025952139E+03  0.00000000000E+00 0. -1.
        -14    1    6    6    0    0  0.41580032122E+01  0.14724205719E+02  0.22378611163E+02  0.27108918502E+02  0.00000000000E+00 0.  1.
</event>
<event>
12    1  0.8219652E-002  0.1972208E+03  0.7818608E-02  0.1155103E+00
         21   -1    0    0  503  502  0.00000000000E+00  0.00000000000E+00  0.43949500107E+03  0.43949500107E+03  0.00000000000E+00 0. -1.
         21   -1    0    0  501  503 -0.00000000000E+00 -0.00000000000E+00 -0.90838942148E+02  0.90838942148E+02  0.00000000000E+00 0. -1.
          6    2    1    2  501    0 -0.59815402932E+02 -0.27590667862E+02  0.99980014717E+02  0.22111541966E+03  0.18589485761E+03 0.  0.
         24    2    3    3    0    0  0.62556083383E+01 -0.16091352665E+02 -0.18817236966E+02  0.84614541317E+02  0.80668878318E+02 0.  0.
         -6    2    1    2    0  502  0.59815402932E+02  0.27590667862E+02  0.24867604421E+03  0.30921852356E+03  0.17157270462E+03 0.  0.
        -24    2    5    5    0    0  0.45930669208E+02  0.82493542430E+02  0.13900389373E+03  0.18569855733E+03  0.79038350235E+02 0.  0.
          5    1    3    3  501    0 -0.66071011271E+02 -0.11499315198E+02  0.11879725168E+03  0.13650087834E+03  0.47000000000E+01 0. -1.
        -11    1    4    4    0    0  0.27444872745E+02  0.24335879584E+02 -0.56779958943E+01  0.37117323617E+02  0.00000000000E+00 0.  1.
         12    1    4    4    0    0 -0.21189264406E+02 -0.40427232248E+02 -0.13139241072E+02  0.47497217701E+02  0.00000000000E+00 0. -1.
         -5    1    5    5    0  502  0.13884733724E+02 -0.54902874568E+02  0.10967215048E+03  0.12351996623E+03  0.47000000000E+01 0.  1.
         13    1    6    6    0    0  0.66281227542E+02  0.53029096304E+02  0.11352276519E+03  0.14174873684E+03  0.00000000000E+00 0. -1.
        -14    1    6    6    0    0 -0.20350558333E+02  0.29464446126E+02  0.25481128541E+02  0.43949820497E+02  0.00000000000E+00 0.  1.
</event>
<event>
12    1  0.8219652E-002  0.1789982E+03  0.7818608E-02  0.1168793E+00
         21   -1    0    0  501  502  0.00000000000E+00  0.00000000000E+00  0.21386086847E+03  0.21386086847E+03  0.00000000000E+00 0. -1.
         21   -1    0    0  502  503 -0.00000000000E+00 -0.00000000000E+00 -0.16859535554E+03  0.16859535554E+03  0.00000000000E+00 0. -1.
         -6    2    1    2    0  503  0.49943783909E+02  0.51333084288E+01  0.86549506151E+02  0.19882448616E+03  0.17181276692E+03 0.  0.
        -24    2    3    3    0    0  0.88902223845E+02  0.39024118265E+02  0.45550771521E+02  0.13272355368E+03  0.78193233114E+02 0.  0.
          6    2    1    2  501    0 -0.49943783909E+02 -0.51333084288E+01 -0.41283993218E+02  0.18363173785E+03  0.17174258250E+03 0.  0.
         24    2    5    5    0    0 -0.82193814797E+02 -0.28153587089E+02  0.99569126556E+01  0.11868777619E+03  0.80244628789E+02 0.  0.
          5    1    5    5  501    0  0.32250030888E+02  0.23020278661E+02 -0.51240905874E+02  0.64943961664E+02  0.47000000000E+01 0. -1.
        -11    1    6    6    0    0 -0.61902700645E+02  0.20722828432E+02  0.34807112581E+01  0.65371976536E+02  0.00000000000E+00 0.  1.
         12    1    6    6    0    0 -0.20291114152E+02 -0.48876415522E+02  0.64762013975E+01  0.53315799650E+02  0.00000000000E+00 0. -1.
         -5    1    3    3    0  503 -0.38958439936E+02 -0.33890809836E+02  0.40998734630E+02  0.66100932481E+02  0.47000000000E+01 0.  1.
         13    1    4    4    0    0  0.47059931766E+02  0.61222420921E+02  0.30488359530E+02  0.83020250952E+02  0.00000000000E+00 0. -1.
        -14    1    4    4    0    0  0.41842292079E+02 -0.22198302657E+02  0.15062411991E+02  0.49703302730E+02  0.00000000000E+00 0.  1.
</event>
<event>
12    1  0.8219652E-002  0.1958245E+03  0.7818608E-02  0.1153696E+00
         21   -1    0    0  503  502  0.00000000000E+00  0.00000000000E+00  0.11243475563E+03  0.11243475563E+03  0.00000000000E+00 0. -1.
         21   -1    0    0  501  503 -0.00000000000E+00 -0.00000000000E+00 -0.35636509509E+03  0.35636509509E+03  0.00000000000E+00 0. -1.
          6    2    1    2  501    0 -0.82675112747E+02 -0.39330836640E+02 -0.17466688263E+03  0.26108694591E+03  0.17110167871E+03 0.  0.
         24    2    3    3    0    0 -0.16688241233E+02 -0.78434240464E+02 -0.87522287027E+02  0.14489910685E+03  0.83097370394E+02 0.  0.
         -6    2    1    2    0  502  0.82675112747E+02  0.39330836640E+02 -0.69263456829E+02  0.20771290481E+03  0.17310440605E+03 0.  0.
        -24    2    5    5    0    0  0.47855163035E+02  0.63331090599E+02 -0.10410828526E+03  0.15271569437E+03  0.78629540130E+02 0.  0.
          5    1    3    3  501    0 -0.65986871514E+02  0.39103403824E+02 -0.87144595603E+02  0.11618783906E+03  0.47000000000E+01 0. -1.
        -11    1    4    4    0    0 -0.23757698922E+02 -0.43673598343E+02  0.79578414169E+00  0.49723683720E+02  0.00000000000E+00 0.  1.
         12    1    4    4    0    0  0.70694576888E+01 -0.34760642121E+02 -0.88318071168E+02  0.95175423128E+02  0.00000000000E+00 0. -1.
         -5    1    5    5    0  502  0.34819949712E+02 -0.24000253959E+02  0.34844828433E+02  0.54997210444E+02  0.47000000000E+01 0.  1.
         13    1    6    6    0    0  0.36136709798E+02 -0.83151834670E+01 -0.22004304651E+02  0.43118366091E+02  0.00000000000E+00 0. -1.
        -14    1    6    6    0    0  0.11718453237E+02  0.71646274066E+02 -0.82103980611E+02  0.10959732828E+03  0.00000000000E+00 0.  1.
</event>
<event>
12    1  0.8219652E-002  0.2656674E+03  0.7818608E-02  0.1103829E+00
         21   -1    0    0  503  502  0.00000000000E+00  0.00000000000E+00  0.85146190772E+03  0.85146190772E+03  0.00000000000E+00 0.  1.
         21   -1    0    0  501  503 -0.00000000000E+00 -0.00000000000E+00 -0.26579884314E+03  0.26579884314E+03  0.00000000000E+00 0.  1.
          6    2    1    2  501    0  0.39597457647E+02  0.19816046495E+03 -0.17064292877E+03  0.31575016297E+03  0.17246340991E+03 0.  0.
         24    2    3    3    0    0 -0.17899982564E+02  0.18774974982E+03 -0.14807071346E+03  0.25293349700E+03  0.80498694306E+02 0.  0.
         -6    2    1    2    0  502 -0.39597457647E+02 -0.19816046495E+03  0.75630599336E+03  0.80151058789E+03  0.17200272785E+03 0.  0.
        -24    2    5    5    0    0  0.37728874087E+02 -0.10357802691E+03  0.46882364207E+03  0.48911117773E+03  0.85336165953E+02 0.  0.
          5    1    3    3  501    0  0.57497440211E+02  0.10410715126E+02 -0.22572215313E+02  0.62816665977E+02  0.47000000000E+01 0. -1.
        -13    1    4    4    0    0  0.24084976282E+02  0.21430773969E+02 -0.13679702958E+02  0.35021399578E+02  0.00000000000E+00 0.  1.
         14    1    4    4    0    0 -0.41984958846E+02  0.16631897585E+03 -0.13439101050E+03  0.21791209742E+03  0.00000000000E+00 0. -1.
         -5    1    5    5    0  502 -0.77326331734E+02 -0.94582438042E+02  0.28748235129E+03  0.31239941016E+03  0.47000000000E+01 0.  1.
         11    1    6    6    0    0  0.10877555851E+02 -0.11344531749E+01  0.19822931983E+03  0.19853078211E+03  0.00000000000E+00 0. -1.
        -12    1    6    6    0    0  0.26851318236E+02 -0.10244357373E+03  0.27059432224E+03  0.29058039562E+03  0.00000000000E+00 0.  1.
</event>
<event>
12    1  0.8219652E-002  0.2412550E+03  0.7818608E-02  0.1118999E+00
         21   -1    0    0  501  502  0.00000000000E+00  0.00000000000E+00  0.14741242233E+04  0.14741242233E+04  0.00000000000E+00 0.  1.
         21   -1    0    0  502  503 -0.00000000000E+00 -0.00000000000E+00 -0.49440103163E+02  0.49440103163E+02  0.00000000000E+00 0. -1.
         -6    2    1    2    0  503  0.16910681305E+03  0.20721251373E+01  0.36954708471E+03  0.44119742142E+03  0.17172276764E+03 0.  0.
        -24    2    3    3    0    0  0.14825502288E+03  0.74763060166E+01  0.16501549201E+03  0.23548095456E+03  0.78649350900E+02 0.  0.
          6    2    1    2  501    0 -0.16910681305E+03 -0.20721251373E+01  0.10551370355E+04  0.10823669051E+04  0.17205390341E+03 0.  0.
         24    2    5    5    0    0 -0.54198108384E+02  0.52463524898E+02  0.40477484353E+03  0.41966695922E+03  0.81165425615E+02 0.  0.
          5    1    5    5  501    0 -0.11490870467E+03 -0.54535650036E+02  0.65036219193E+03  0.66269994585E+03  0.47000000000E+01 0. -1.
        -11    1    6    6    0    0  0.14905873663E+02 -0.95745004468E+01  0.55626472466E+02  0.58379453299E+02  0.00000000000E+00 0.  1.
         12    1    6    6    0    0 -0.69103982047E+02  0.62038025345E+02  0.34914837106E+03  0.36128750592E+03  0.00000000000E+00 0. -1.
         -5    1    3    3    0  503  0.20851790171E+02 -0.54041808793E+01  0.20453159270E+03  0.20571646686E+03  0.47000000000E+01 0.  1.
         13    1    4    4    0    0  0.15271355609E+03  0.91053870007E+01  0.16992927304E+03  0.22864884894E+03  0.00000000000E+00 0. -1.
        -14    1    4    4    0    0 -0.44585332050E+01 -0.16290809841E+01 -0.49137810322E+01  0.68321056217E+01  0.00000000000E+00 0.  1.
</event>
<event>
12    1  0.8219652E-002  0.1901000E+03  0.7818608E-02  0.1161279E+00
         21   -1    0    0  503  502  0.00000000000E+00  0.00000000000E+00  0.48382638823E+03  0.48382638823E+03  0.00000000000E+00 0. -1.
         21   -1    0    0  501  503 -0.00000000000E+00 -0.00000000000E+00 -0.16313740807E+03  0.16313740807E+03  0.00000000000E+00 0. -1.
          6    2    1    2  501    0 -0.64549042081E+02  0.49052425134E+02 -0.86493711541E+02  0.19759117369E+03  0.15807716641E+03 0.  0.
         24    2    3    3    0    0 -0.50681956288E+02 -0.23688217947E+02 -0.79035056326E+02  0.12301759418E+03  0.75874870586E+02 0.  0.
         -6    2    1    2    0  502  0.64549042081E+02 -0.49052425134E+02  0.40718269170E+03  0.44937262261E+03  0.17194560270E+03 0.  0.
        -24    2    5    5    0    0  0.44237638738E+02 -0.91904844312E+02  0.35979710374E+03  0.38216870248E+03  0.78711449002E+02 0.  0.
          5    1    3    3  501    0 -0.13867085792E+02  0.72740643080E+02 -0.74586552150E+01  0.74573579515E+02  0.47000000000E+01 0. -1.
        -11    1    4    4    0    0 -0.36391248233E+01 -0.33161346715E+01  0.15070649373E+02  0.15854477323E+02  0.00000000000E+00 0.  1.
         12    1    4    4    0    0 -0.47042831465E+02 -0.20372083275E+02 -0.94105705699E+02  0.10716311686E+03  0.00000000000E+00 0. -1.
         -5    1    5    5    0  502  0.20311403343E+02  0.42852419178E+02  0.47385587960E+02  0.67203920135E+02  0.47000000000E+01 0.  1.
         11    1    6    6    0    0 -0.18002499612E+02 -0.44228703385E+02  0.10031343913E+03  0.11109929912E+03  0.00000000000E+00 0. -1.
        -12    1    6    6    0    0  0.62240138350E+02 -0.47676140927E+02  0.25948366461E+03  0.27106940335E+03  0.00000000000E+00 0.  1.
</event>
<event>
12    1  0.8219652E-002  0.2041124E+03  0.7818608E-02  0.1146754E+00
         21   -1    0    0  503  502  0.00000000000E+00  0.00000000000E+00  0.16230643179E+03  0.16230643179E+03  0.00000000000E+00 0. -1.
         21   -1    0    0  501  503 -0.00000000000E+00 -0.00000000000E+00 -0.39589168008E+03  0.39589168008E+03  0.00000000000E+00 0. -1.
          6    2    1    2  501    0  0.15313279880E+02 -0.10908660605E+03 -0.28347637231E+03  0.34807671579E+03  0.16930493867E+03 0.  0.
         24    2    3    3    0    0 -0.53587572143E+02 -0.77959457298E+02 -0.19725022860E+03  0.23330187247E+03  0.81072844695E+02 0.  0.
         -6    2    1    2    0  502 -0.15313279880E+02  0.10908660605E+03  0.49891124016E+02  0.21012139608E+03  0.17183565601E+03 0.  0.
        -24    2    5    5    0    0  0.20967514818E+02  0.20495070938E+02  0.71880968298E+02  0.11178320712E+03  0.80429641181E+02 0.  0.
          5    1    3    3  501    0  0.68900852023E+02 -0.31127148748E+02 -0.86226143705E+02  0.11477484331E+03  0.47000000000E+01 0. -1.
        -13    1    4    4    0    0 -0.11637391248E+02 -0.86992268912E+01  0.50625266152E+01  0.15386182090E+02  0.00000000000E+00 0.  1.
         14    1    4    4    0    0 -0.41950180895E+02 -0.69260230407E+02 -0.20231275522E+03  0.21791569039E+03  0.00000000000E+00 0. -1.
         -5    1    5    5    0  502 -0.36280794699E+02  0.88591535109E+02 -0.21989844283E+02  0.98338188963E+02  0.47000000000E+01 0.  1.
         13    1    6    6    0    0 -0.16912939479E+02  0.38862913363E+02  0.45089352740E+02  0.61882334211E+02  0.00000000000E+00 0. -1.
        -14    1    6    6    0    0  0.37880454297E+02 -0.18367842425E+02  0.26791615558E+02  0.49900872911E+02  0.00000000000E+00 0.  1.
</event>
<event>
12    1  0.8219652E-002  0.2297938E+03  0.7818608E-02  0.1126961E+00
         21   -1    0    0  503  502  0.00000000000E+00  0.00000000000E+00  0.43708920407E+03  0.43708920407E+03  0.00000000000E+00 0. -1.
         21   -1    0    0  501  503 -0.00000000000E+00 -0.00000000000E+00 -0.12381620438E+03  0.12381620438E+03  0.00000000000E+00 0. -1.
          6    2    1    2  501    0 -0.15067301278E+03  0.21803639809E+02  0.20365430829E+03  0.30630486872E+03  0.17079180257E+03 0.  0.
         24    2    3    3    0    0 -0.40762891920E+01  0.11967857243E+02  0.75861990322E+02  0.11152214742E+03  0.80760770478E+02 0.  0.
         -6    2    1    2    0  502  0.15067301278E+03 -0.21803639809E+02  0.10961869140E+03  0.25460053973E+03  0.17212618000E+03 0.  0.
        -24    2    5    5    0    0  0.13090451898E+03  0.34286444700E+02  0.40351656483E+02  0.16318444130E+03  0.81788460802E+02 0.  0.
          5    1    3    3  501    0 -0.14659672359E+03  0.98357825653E+01  0.12779231797E+03  0.19478272130E+03  0.47000000000E+01 0. -1.
        -11    1    4    4    0    0  0.34494642645E+02  0.13018610307E+02  0.15751727430E+02  0.40093409715E+02  0.00000000000E+00 0.  1.
         12    1    4    4    0    0 -0.38570931837E+02 -0.10507530636E+01  0.60110262892E+02  0.71428737702E+02  0.00000000000E+00 0. -1.
         -5    1    5    5    0  502  0.19768493795E+02 -0.56090084509E+02  0.69267034913E+02  0.91416098434E+02  0.47000000000E+01 0.  1.
         11    1    6    6    0    0  0.44582638677E+02 -0.27611434353E+01  0.51974940566E+02  0.68531963574E+02  0.00000000000E+00 0. -1.
        -12    1    6    6    0    0  0.86321880307E+02  0.37047588136E+02 -0.11623284084E+02  0.94652477724E+02  0.00000000000E+00 0.  1.
</event>
<event>
12    1  0.8219652E-002  0.1765693E+03  0.7818608E-02  0.1171330E+00
         21   -1    0    0  501  502  0.00000000000E+00  0.00000000000E+00  0.40169276860E+03  0.40169276860E+03  0.00000000000E+00 0. -1.
         21   -1    0    0  502  503 -0.00000000000E+00 -0.00000000000E+00 -0.88548967396E+02  0.88548967396E+02  0.00000000000E+00 0. -1.
         -6    2    1    2    0  503  0.14633768001E+02  0.36238450228E+02  0.69547790604E+02  0.18977249723E+03  0.17218981702E+03 0.  0.
        -24    2    3    3    0    0  0.75428211984E+02  0.36348352374E+02  0.50337095647E+02  0.12584193100E+03  0.79320555445E+02 0.  0.
          6    2    1    2  501    0 -0.14633768001E+02 -0.36238450228E+02  0.24359601060E+03  0.30046923876E+03  0.17150910945E+03 0.  0.
         24    2    5    5    0    0  0.17440739943E+02 -0.31316605970E+02  0.25180527622E+03  0.26666863739E+03  0.80133362689E+02 0.  0.
          5    1    5    5  501    0 -0.32074507944E+02 -0.49218442580E+01 -0.82092656288E+01  0.33800601369E+02  0.47000000000E+01 0. -1.
        -11    1    6    6    0    0  0.40147276940E+02 -0.28339232680E+02  0.84084195696E+02  0.97391313373E+02  0.00000000000E+00 0.  1.
         12    1    6    6    0    0 -0.22706536997E+02 -0.29773732895E+01  0.16772108053E+03  0.16927732402E+03  0.00000000000E+00 0. -1.
         -5    1    3    3    0  503 -0.60794443983E+02 -0.10990214663E+00  0.19210694958E+02  0.63930566230E+02  0.47000000000E+01 0.  1.
         13    1    4    4    0    0  0.12047147398E+02  0.49195563737E+02  0.21045793730E+02  0.54847631540E+02  0.00000000000E+00 0. -1.
        -14    1    4    4    0    0  0.63381064586E+02 -0.12847211362E+02  0.29291301916E+02  0.70994299460E+02  0.00000000000E+00 0.  1.
</event>
<event>
12    1  0.8219652E-002  0.1900723E+03  0.7818608E-02  0.1158651E+00
         21   -1    0    0  503  502  0.00000000000E+00  0.00000000000E+00  0.31319370282E+03  0.31319370282E+03  0.00000000000E+00 0. -1.
         21   -1    0    0  501  503 -0.00000000000E+00 -0.00000000000E+00 -0.11504537917E+03  0.11504537917E+03  0.00000000000E+00 0. -1.
          6    2    1    2  501    0  0.35808722744E+02 -0.69878656981E+02  0.86510732068E+02  0.20780670367E+03  0.17185525306E+03 0.  0.
         24    2    3    3    0    0 -0.35079895212E+02 -0.77841466097E+02  0.46706363836E+02  0.12598323384E+03  0.80002486802E+02 0.  0.
         -6    2    1    2    0  502 -0.35808722744E+02  0.69878656981E+02  0.11163759158E+03  0.22043237832E+03  0.17309589894E+03 0.  0.
        -24    2    5    5    0    0  0.11825401011E+02  0.34268443276E+02  0.13062354570E+03  0.15782524198E+03  0.80821593671E+02 0.  0.
          5    1    3    3  501    0  0.70888617956E+02  0.79628091163E+01  0.39804368232E+02  0.81823469830E+02  0.47000000000E+01 0. -1.
        -13    1    4    4    0    0 -0.51777180116E+02 -0.22687286480E+02  0.93225095023E+01  0.57293093232E+02  0.00000000000E+00 0.  1.
         14    1    4    4    0    0  0.16697284904E+02 -0.55154179617E+02  0.37383854334E+02  0.68690140611E+02  0.00000000000E+00 0. -1.
         -5    1    5    5    0  502 -0.47634123755E+02  0.35610213705E+02 -0.18985954119E+02  0.62607136333E+02  0.47000000000E+01 0.  1.
         11    1    6    6    0    0 -0.33939931727E+02  0.24144447499E+02  0.58670678763E+02  0.71952219265E+02  0.00000000000E+00 0. -1.
        -12    1    6    6    0    0  0.45765332737E+02  0.10123995777E+02  0.71952866932E+02  0.85873022718E+02  0.00000000000E+00 0.  1.
</event>
<event>
12    1  0.8219652E-002  0.1889360E+03  0.7818608E-02  0.1159541E+00
         21   -1    0    0  503  502  0.00000000000E+00  0.00000000000E+00  0.11659589791E+03  0.11659589791E+03  0.00000000000E+00 0.  1.
         21   -1    0    0  501  503 -0.00000000000E+00 -0.00000000000E+00 -0.35621752427E+03  0.35621752427E+03  0.00000000000E+00 0.  1.
          6    2    1    2  501    0  0.28260254853E+02  0.71654475936E+02 -0.20902596380E+03  0.28141619759E+03  0.17195992788E+03 0.  0.
         24    2    3    3    0    0  0.25017542317E+02 -0.35699090207E+01 -0.31755240647E+02  0.88760487671E+02  0.78939262658E+02 0.  0.
         -6    2    1    2    0  502 -0.28260254853E+02 -0.71654475936E+02 -0.30595662551E+02  0.19139722459E+03  0.17252187423E+03 0.  0.
        -24    2    5    5    0    0 -0.72491951750E+02 -0.59084953092E+02 -0.60898862962E+02  0.13612689014E+03  0.77947058693E+02 0.  0.
          5    1    3    3  501    0  0.32427125363E+01  0.75224384956E+02 -0.17727072316E+03  0.19265570992E+03  0.47000000000E+01 0. -1.
        -13    1    4    4    0    0 -0.19759841515E+02 -0.24826177502E+02 -0.20972440350E+02  0.38034637901E+02  0.00000000000E+00 0.  1.
         14    1    4    4    0    0  0.44777383832E+02  0.21256268481E+02 -0.10782800297E+02  0.50725849770E+02  0.00000000000E+00 0. -1.
         -5    1    5    5    0  502  0.44231696896E+02 -0.12569522843E+02  0.30303200411E+02  0.55270334448E+02  0.47000000000E+01 0.  1.
         13    1    6    6    0    0 -0.35250492471E+02  0.85923014465E+01  0.22504278953E+01  0.36352294141E+02  0.00000000000E+00 0. -1.
        -14    1    6    6    0    0 -0.37241459279E+02 -0.67677254539E+02 -0.63149290857E+02  0.99774596000E+02  0.00000000000E+00 0.  1.
</event>
<event>
12    1  0.8219652E-002  0.1988066E+03  0.7818608E-02  0.1154431E+00
         21   -1    0    0  503  502  0.00000000000E+00  0.00000000000E+00  0.18372546807E+03  0.18372546807E+03  0.00000000000E+00 0.  1.
         21   -1    0    0  501  503 -0.00000000000E+00 -0.00000000000E+00 -0.30562409841E+03  0.30562409841E+03  0.00000000000E+00 0.  1.
          6    2    1    2  501    0  0.44073462246E+02 -0.50094488666E+02 -0.20460887515E+03  0.27402409962E+03  0.16962454868E+03 0.  0.
         24    2    3    3    0    0  0.84937129328E+02 -0.11854169104E+02 -0.10083534007E+03  0.15602749835E+03  0.82595261200E+02 0.  0.
         -6    2    1    2    0  502 -0.44073462246E+02  0.50094488666E+02  0.82710244809E+02  0.21532546686E+03  0.18727558361E+03 0.  0.
        -24    2    5    5    0    0 -0.85659161069E+02 -0.17422115158E+02  0.39683263816E+02  0.12498570136E+03  0.80035255639E+02 0.  0.
          5    1    3    3  501    0 -0.40863667082E+02 -0.38240319562E+02 -0.10377353508E+03  0.11799660127E+03  0.47000000000E+01 0. -1.
        -13    1    4    4    0    0  0.23161568478E+02 -0.45069941655E+01 -0.89796289715E+02  0.92844735432E+02  0.00000000000E+00 0.  1.
         14    1    4    4    0    0  0.61775560849E+02 -0.73471749382E+01 -0.11039050352E+02  0.63182762922E+02  0.00000000000E+00 0. -1.
         -5    1    5    5    0  502  0.41585698823E+02  0.67516603823E+02  0.43026980993E+02  0.90339765507E+02  0.47000000000E+01 0.  1.
         11    1    6    6    0    0 -0.16428718393E+02 -0.35295020383E+02  0.36576396097E+02  0.53417918373E+02  0.00000000000E+00 0. -1.
        -12    1    6    6    0    0 -0.69230442676E+02  0.17872905225E+02  0.31068677189E+01  0.71567782984E+02  0.00000000000E+00 0.  1.
</event>
<event>
12    1  0.8219652E-002  0.1864932E+03  0.7818608E-02  0.1162025E+00
         21   -1    0    0  503  502  0.00000000000E+00  0.00000000000E+00  0.42717210405E+02  0.42717210405E+02  0.00000000000E+00 0.  1.
         21   -1    0    0  501  503 -0.00000000000E+00 -0.00000000000E+00 -0.17165489909E+04  0.17165489909E+04  0.00000000000E+00 0. -1.
          6    2    1    2  501    0  0.40242521853E+02 -0.60212035532E+02 -0.14754269144E+04  0.14869718334E+04  0.17016375593E+03 0.  0.
         24    2    3    3    0    0 -0.62595219369E+01 -0.76591360633E+02 -0.61436114834E+03  0.62448295473E+03  0.81448892079E+02 0.  0.
         -6    2    1    2    0  502 -0.40242521853E+02  0.60212035532E+02 -0.19840486614E+03  0.27229436794E+03  0.17185686520E+03 0.  0.
        -24    2    5    5    0    0 -0.58365141047E+02  0.95285810147E+02 -0.13309436667E+03  0.19583424544E+03  0.90283253934E+02 0.  0.
          5    1    3    3  501    0  0.46502043789E+02  0.16379325101E+02 -0.86106576602E+03  0.86248887864E+03  0.47000000000E+01 0. -1.
        -11    1    4    4    0    0  0.22308742211E+02 -0.63387491155E+02 -0.25361511646E+03  0.26236669246E+03  0.00000000000E+00 0.  1.
         12    1    4    4    0    0 -0.28568264147E+02 -0.13203869478E+02 -0.36074603188E+03  0.36211626227E+03  0.00000000000E+00 0. -1.
         -5    1    5    5    0  502  0.18122619194E+02 -0.35073774615E+02 -0.65310499473E+02  0.76460122506E+02  0.47000000000E+01 0.  1.
         11    1    6    6    0    0 -0.23571540473E+02  0.36531698731E+02 -0.11820418179E+03  0.12594606435E+03  0.00000000000E+00 0. -1.
        -12    1    6    6    0    0 -0.34793600574E+02  0.58754111417E+02 -0.14890184876E+02  0.69888181082E+02  0.00000000000E+00 0.  1.
</event>
<event>
12    1  0.8219652E-002  0.2238987E+03  0.7818608E-02  0.1131244E+00
         21   -1    0    0  501  502  0.00000000000E+00  0.00000000000E+00  0.24333849763E+03  0.24333849763E+03  0.00000000000E+00 0. -1.
         21   -1    0    0  502  503 -0.00000000000E+00 -0.00000000000E+00 -0.25625709218E+03  0.25625709218E+03  0.00000000000E+00 0. -1.
         -6    2    1    2    0  503 -0.83570859634E+01  0.14277293349E+03 -0.11834344745E+03  0.25211825931E+03  0.17060039185E+03 0.  0.
        -24    2    3    3    0    0 -0.17168871839E+02  0.89413537460E+02 -0.14706058201E+03  0.19070460828E+03  0.80323607952E+02 0.  0.
          6    2    1    2  501    0  0.83570859634E+01 -0.14277293349E+03  0.10542485290E+03  0.24747733050E+03  0.17226920235E+03 0.  0.
         24    2    5    5    0    0  0.38100772027E+02 -0.13834589783E+03  0.12873423634E+03  0.20914062665E+03  0.81092797682E+02 0.  0.
          5    1    5    5  501    0 -0.29743686064E+02 -0.44270356572E+01 -0.23309383437E+02  0.38336703843E+02  0.47000000000E+01 0. -1.
        -13    1    6    6    0    0 -0.98915189055E+01  0.67521450356E+01  0.10207447943E+02  0.15736124121E+02  0.00000000000E+00 0.  1.
         14    1    6    6    0    0  0.47992290933E+02 -0.14509804287E+03  0.11852678839E+03  0.19340450253E+03  0.00000000000E+00 0. -1.
         -5    1    3    3    0  503  0.88117858752E+01  0.53359396029E+02  0.28717134567E+02  0.61413651028E+02  0.47000000000E+01 0.  1.
         11    1    4    4    0    0 -0.42757096957E+02  0.81963595941E+02 -0.97031656846E+02  0.13401993445E+03  0.00000000000E+00 0. -1.
        -12    1    4    4    0    0  0.25588225119E+02  0.74499415197E+01 -0.50028925169E+02  0.56684673828E+02  0.00000000000E+00 0.  1.
</event>
<event>
12    1  0.8219652E-002  0.2259831E+03  0.7818608E-02  0.1129505E+00
         21   -1    0    0  503  502  0.00000000000E+00  0.00000000000E+00  0.40025101090E+02  0.40025101090E+02  0.00000000000E+00 0.  1.
         21   -1    0    0  501  503 -0.00000000000E+00 -0.00000000000E+00 -0.14309775685E+04  0.14309775685E+04  0.00000000000E+00 0.  1.
          6    2    1    2  501    0  0.14675711272E+03 -0.13059996677E+02 -0.93776848586E+03  0.96461293310E+03  0.17134807845E+03 0.  0.
         24    2    3    3    0    0  0.17532561428E+03 -0.65629482545E+00 -0.82729787428E+03  0.84973971114E+03  0.83043977226E+02 0.  0.
         -6    2    1    2    0  502 -0.14675711272E+03  0.13059996677E+02 -0.45318398155E+03  0.50638973649E+03  0.17130858251E+03 0.  0.
        -24    2    5    5    0    0 -0.71985210244E+01  0.15587606913E+02 -0.21974883541E+03  0.23436575449E+03  0.79642727345E+02 0.  0.
          5    1    3    3  501    0 -0.28568501561E+02 -0.12403701852E+02 -0.11047061158E+03  0.11487322196E+03  0.47000000000E+01 0. -1.
        -13    1    4    4    0    0  0.55566998338E+02 -0.39203755852E+02 -0.27278803402E+03  0.28113686574E+03  0.00000000000E+00 0.  1.
         14    1    4    4    0    0  0.11975861594E+03  0.38547461026E+02 -0.55450984026E+03  0.56860284539E+03  0.00000000000E+00 0. -1.
         -5    1    5    5    0  502 -0.13955859169E+03 -0.25276102362E+01 -0.23343514614E+03  0.27202398200E+03  0.47000000000E+01 0.  1.
         13    1    6    6    0    0 -0.34842230782E+02  0.31021547348E+02 -0.97533849709E+02  0.10811646167E+03  0.00000000000E+00 0. -1.
        -14    1    6    6    0    0  0.27643709758E+02 -0.15433940434E+02 -0.12221498570E+03  0.12624929282E+03  0.00000000000E+00 0.  1.
</event>
<event>
12    1  0.8219652E-002  0.2117261E+03  0.7818608E-02  0.1140210E+00
         21   -1    0    0  501  502  0.00000000000E+00  0.00000000000E+00  0.12196201252E+03  0.12196201252E+03  0.00000000000E+00 0.  1.
         21   -1    0    0  502  503 -0.00000000000E+00 -0.00000000000E+00 -0.37534416225E+03  0.37534416225E+03  0.00000000000E+00 0.  1.
         -6    2    1    2    0  503 -0.54900583194E+02  0.11031662160E+03 -0.90790312673E+02  0.23035287587E+03  0.17215032823E+03 0.  0.
        -24    2    3    3    0    0  0.36742090824E+02  0.60401850818E+02 -0.33969841440E+02  0.11143895744E+03  0.79160130674E+02 0.  0.
          6    2    1    2  501    0  0.54900583194E+02 -0.11031662160E+03 -0.16259183706E+03  0.26695329891E+03  0.17217469989E+03 0.  0.
         24    2    5    5    0    0  0.49998032935E+02 -0.47451005327E+01 -0.12088661981E+03  0.15323964007E+03  0.79664880368E+02 0.  0.
          5    1    5    5  501    0  0.49025502593E+01 -0.10557152107E+03 -0.41705217258E+02  0.11371365884E+03  0.47000000000E+01 0. -1.
        -11    1    6    6    0    0  0.66841986845E+02  0.75426726441E+01 -0.64792366921E+02  0.93395898878E+02  0.00000000000E+00 0.  1.
         12    1    6    6    0    0 -0.16843953911E+02 -0.12287773177E+02 -0.56094252886E+02  0.59843741191E+02  0.00000000000E+00 0. -1.
         -5    1    3    3    0  503 -0.91642674019E+02  0.49914770781E+02 -0.56820471233E+02  0.11891391842E+03  0.47000000000E+01 0.  1.
         11    1    4    4    0    0  0.52346138308E+01  0.89332266529E+01 -0.48313819981E+02  0.49410817859E+02  0.00000000000E+00 0. -1.
        -12    1    4    4    0    0  0.31507476994E+02  0.51468624165E+02  0.14343978541E+02  0.62028139585E+02  0.00000000000E+00 0.  1.
</event>
<event>
12    1  0.8219652E-002  0.1791510E+03  0.7818608E-02  0.1168949E+00
         21   -1    0    0  503  502  0.00000000000E+00  0.00000000000E+00  0.73324387502E+02  0.73324387502E+02  0.00000000000E+00 0. -1.
         21   -1    0    0  501  503 -0.00000000000E+00 -0.00000000000E+00 -0.73351135372E+03  0.73351135372E+03  0.00000000000E+00 0. -1.
          6    2    1    2  501    0 -0.31339870169E+02  0.39021487382E+02 -0.58838112180E+03  0.61505074814E+03  0.17201806406E+03 0.  0.
         24    2    3    3    0    0 -0.56800789018E+02 -0.31201602746E+02 -0.37131747568E+03  0.38544618102E+03  0.80574320185E+02 0.  0.
         -6    2    1    2    0  502  0.31339870169E+02 -0.39021487382E+02 -0.71805844419E+02  0.19178499308E+03  0.17064741527E+03 0.  0.
        -24    2    5    5    0    0  0.55168952120E+02  0.12270060588E+02  0.31199506967E+01  0.97792372020E+02  0.79746136384E+02 0.  0.
          5    1    3    3  501    0  0.25460918849E+02  0.70223090127E+02 -0.21706364612E+03  0.22960456712E+03  0.47000000000E+01 0. -1.
        -11    1    4    4    0    0  0.91035045361E+01 -0.84003478121E+01 -0.64340712367E+01  0.13958399295E+02  0.00000000000E+00 0.  1.
         12    1    4    4    0    0 -0.65904293554E+02 -0.22801254934E+02 -0.36488340444E+03  0.37148778173E+03  0.00000000000E+00 0. -1.
         -5    1    5    5    0  502 -0.23829081951E+02 -0.51291547969E+02 -0.74925795116E+02  0.93992621058E+02  0.47000000000E+01 0.  1.
         11    1    6    6    0    0  0.19601709456E+02  0.37842372317E+02 -0.21295103344E+02  0.47641930928E+02  0.00000000000E+00 0. -1.
        -12    1    6    6    0    0  0.35567242664E+02 -0.25572311729E+02  0.24415054041E+02  0.50150441091E+02  0.00000000000E+00 0.  1.
</event>
<event>
12    1  0.8219652E-002  0.2960296E+03  0.7818608E-02  0.1087376E+00
         21   -1    0    0  501  502  0.00000000000E+00  0.00000000000E+00  0.24680814481E+04  0.24680814481E+04  0.00000000000E+00 0.  1.
         21   -1    0    0  502  503 -0.00000000000E+00 -0.00000000000E+00 -0.69915475198E+02  0.69915475198E+02  0.00000000000E+00 0. -1.
         -6    2    1    2    0  503 -0.15992332607E+03  0.17967196574E+03  0.30829323612E+03  0.42740875019E+03  0.17255733773E+03 0.  0.
        -24    2    3    3    0    0 -0.18276128963E+03  0.13212875169E+03  0.22568579240E+03  0.32928632900E+03  0.81459889299E+02 0.  0.
          6    2    1    2  501    0  0.15992332607E+03 -0.17967196574E+03  0.20898727368E+04  0.21105881732E+04  0.17075390202E+03 0.  0.
         24    2    5    5    0    0  0.58641096061E+02 -0.11917924337E+03  0.76345469177E+03  0.77892591124E+03  0.78867221412E+02 0.  0.
          5    1    5    5  501    0  0.10128223001E+03 -0.60492722364E+02  0.13264180451E+04  0.13316622619E+04  0.47000000000E+01 0. -1.
        -11    1    6    6    0    0  0.35216198284E+02 -0.30026299360E+02  0.44495866196E+03  0.44735888292E+03  0.00000000000E+00 0.  1.
         12    1    6    6    0    0  0.23424897778E+02 -0.89152944013E+02  0.31849602981E+03  0.33156702832E+03  0.00000000000E+00 0. -1.
         -5    1    3    3    0  503  0.22837963559E+02  0.47543214048E+02  0.82607443725E+02  0.98122421190E+02  0.47000000000E+01 0.  1.
         13    1    4    4    0    0 -0.87309339733E+02  0.96298127017E+02  0.84129395193E+02  0.15483541328E+03  0.00000000000E+00 0. -1.
        -14    1    4    4    0    0 -0.95451949894E+02  0.35830624672E+02  0.14155639720E+03  0.17445091571E+03  0.00000000000E+00 0.  1.
</event>
<event>
12    1  0.8219652E-002  0.1732196E+03  0.7818608E-02  0.1175170E+00
         21   -1    0    0  501  502  0.00000000000E+00  0.00000000000E+00  0.60964237100E+03  0.60964237100E+03  0.00000000000E+00 0.  1.
         21   -1    0    0  502  503 -0.00000000000E+00 -0.00000000000E+00 -0.71710210362E+02  0.71710210362E+02  0.00000000000E+00 0.  1.
         -6    2    1    2    0  503  0.14330169644E+02 -0.12385646987E+02  0.76521299845E+02  0.18936882843E+03  0.17218096828E+03 0.  0.
        -24    2    3    3    0    0  0.20974097308E+02  0.52958708910E+02  0.76369202816E+02  0.12351945671E+03  0.78614651567E+02 0.  0.
          6    2    1    2  501    0 -0.14330169644E+02  0.12385646987E+02  0.46141086080E+03  0.49198375293E+03  0.16967401886E+03 0.  0.
         24    2    5    5    0    0 -0.71970670399E+02  0.25631977748E+02  0.27940775667E+03  0.30055462109E+03  0.80172377352E+02 0.  0.
          5    1    5    5  501    0  0.57640500756E+02 -0.13246330761E+02  0.18200310413E+03  0.19142913185E+03  0.47000000000E+01 0. -1.
        -13    1    6    6    0    0 -0.37908533771E+02  0.10367411760E+02  0.24990614821E+03  0.25297751495E+03  0.00000000000E+00 0.  1.
         14    1    6    6    0    0 -0.34062136628E+02  0.15264565988E+02  0.29501608458E+02  0.47577106134E+02  0.00000000000E+00 0. -1.
         -5    1    3    3    0  503 -0.66439276644E+01 -0.65344355897E+02  0.15209702944E+00  0.65849371719E+02  0.47000000000E+01 0.  1.
         13    1    4    4    0    0 -0.10618835084E+02  0.30446602510E+02  0.78298590476E+02  0.84678359299E+02  0.00000000000E+00 0. -1.
        -14    1    4    4    0    0  0.31592932392E+02  0.22512106400E+02 -0.19293876604E+01  0.38841097415E+02  0.00000000000E+00 0.  1.
</event>
<event>
12    1  0.8219652E-002  0.2155107E+03  0.7818608E-02  0.1138801E+00
         21   -1    0    0  503  502  0.00000000000E+00  0.00000000000E+00  0.13939396995E+03  0.13939396995E+03  0.00000000000E+00 0.  1.
         21   -1    0    0  501  503 -0.00000000000E+00 -0.00000000000E+00 -0.33784781677E+03  0.33784781677E+03  0.00000000000E+00 0. -1.
          6    2    1    2  501    0  0.11062292731E+03 -0.34157172338E+02 -0.48040382417E+02  0.22080022802E+03  0.18177105898E+03 0.  0.
         24    2    3    3    0    0  0.81343636459E+02 -0.64643074881E+02  0.28139043843E+02  0.13355309562E+03  0.79051307634E+02 0.  0.
         -6    2    1    2    0  502 -0.11062292731E+03  0.34157172338E+02 -0.15041346441E+03  0.25644155870E+03  0.17243525824E+03 0.  0.
        -24    2    5    5    0    0 -0.94999360376E+02 -0.11396274942E+02 -0.16455111641E+03  0.20603148424E+03  0.78848900005E+02 0.  0.
          5    1    3    3  501    0  0.29279290847E+02  0.30485902544E+02 -0.76179426261E+02  0.87247132399E+02  0.47000000000E+01 0. -1.
        -11    1    4    4    0    0  0.25258138472E+02 -0.67463886620E+02  0.32004110281E+01  0.72108197784E+02  0.00000000000E+00 0.  1.
         12    1    4    4    0    0  0.56085497987E+02  0.28208117385E+01  0.24938632815E+02  0.61444897835E+02  0.00000000000E+00 0. -1.
         -5    1    5    5    0  502 -0.15623566930E+02  0.45553447280E+02  0.14137652003E+02  0.50410074458E+02  0.47000000000E+01 0.  1.
         11    1    6    6    0    0 -0.25530991717E+02 -0.83731353153E+01 -0.12108357119E+03  0.12402891657E+03  0.00000000000E+00 0. -1.
        -12    1    6    6    0    0 -0.69468368659E+02 -0.30231396272E+01 -0.43467545222E+02  0.82002567673E+02  0.00000000000E+00 0.  1.
</event>
<event>
12    1  0.8219652E-002  0.1800440E+03  0.7818608E-02  0.1167981E+00
         21   -1    0    0  503  502  0.00000000000E+00  0.00000000000E+00  0.26264228062E+03  0.26264228062E+03  0.00000000000E+00 0.  1.
         21   -1    0    0  501  503 -0.00000000000E+00 -0.00000000000E+00 -0.16466552160E+03  0.16466552160E+03  0.00000000000E+00 0. -1.
          6    2    1    2  501    0  0.42582028112E+02 -0.26700542605E+02 -0.58650449966E+02  0.18935609275E+03  0.17288639764E+03 0.  0.
         24    2    3    3    0    0 -0.73429578066E+01  0.44544728265E+02 -0.18235952186E+02  0.93315401006E+02  0.79605667306E+02 0.  0.
         -6    2    1    2    0  502 -0.42582028112E+02  0.26700542605E+02  0.15662720898E+03  0.23795170947E+03  0.17193831846E+03 0.  0.
        -24    2    5    5    0    0 -0.18526927285E+02 -0.40348365279E+02  0.13805641089E+03  0.16418743312E+03  0.76985082901E+02 0.  0.
          5    1    3    3  501    0  0.49924985919E+02 -0.71245270869E+02 -0.40414497780E+02  0.96040691746E+02  0.47000000000E+01 0. -1.
        -11    1    4    4    0    0  0.28306711305E+01  0.55106520296E+02  0.14835230510E+02  0.57138650163E+02  0.00000000000E+00 0.  1.
         12    1    4    4    0    0 -0.10173628937E+02 -0.10561792032E+02 -0.33071182696E+02  0.36176750843E+02  0.00000000000E+00 0. -1.
         -5    1    5    5    0  502 -0.24055100827E+02  0.67048907884E+02  0.18570798084E+02  0.73764276352E+02  0.47000000000E+01 0.  1.
         13    1    6    6    0    0 -0.69450349888E+01 -0.13105517742E+02 -0.68148169579E+01  0.16322678593E+02  0.00000000000E+00 0. -1.
        -14    1    6    6    0    0 -0.11581892296E+02 -0.27242847537E+02  0.14487122785E+03  0.14786475452E+03  0.00000000000E+00 0.  1.
</event>
<event>
12    1  0.8219652E-002  0.2133530E+03  0.7818608E-02  0.1139033E+00
         21   -1    0    0  503  502  0.00000000000E+00  0.00000000000E+00  0.22310427866E+03  0.22310427866E+03  0.00000000000E+00 0.  1.
         21   -1    0    0  501  503 -0.00000000000E+00 -0.00000000000E+00 -0.20479802457E+03  0.20479802457E+03  0.00000000000E+00 0.  1.
          6    2    1    2  501    0 -0.12579152711E+03  0.60349401541E+01 -0.74950508670E+01  0.21299487948E+03  0.17161210361E+03 0.  0.
         24    2    3    3    0    0 -0.14046109756E+03 -0.35840817359E+02  0.72418282926E+01  0.16600508302E+03  0.80568972899E+02 0.  0.
         -6    2    1    2    0  502  0.12579152711E+03 -0.60349401541E+01  0.25801304952E+02  0.21490742375E+03  0.17221952459E+03 0.  0.
        -24    2    5    5    0    0  0.39674495421E+01 -0.13920618819E+02  0.38630755721E+02  0.92066165981E+02  0.82306253387E+02 0.  0.
          5    1    3    3  501    0  0.14669570452E+02  0.41875757513E+02 -0.14736879160E+02  0.46989796466E+02  0.47000000000E+01 0. -1.
        -13    1    4    4    0    0 -0.14689236241E+03 -0.19710006669E+02  0.35496342148E+01  0.14825130826E+03  0.00000000000E+00 0.  1.
         14    1    4    4    0    0  0.64312648501E+01 -0.16130810690E+02  0.36921940778E+01  0.17753774759E+02  0.00000000000E+00 0. -1.
         -5    1    5    5    0  502  0.12182407757E+03  0.78856786650E+01 -0.12829450769E+02  0.12284125777E+03  0.47000000000E+01 0.  1.
         11    1    6    6    0    0  0.23162275862E+02  0.28656390082E+02  0.16065273117E+02  0.40196675434E+02  0.00000000000E+00 0. -1.
        -12    1    6    6    0    0 -0.19194826320E+02 -0.42577008901E+02  0.22565482604E+02  0.51869490547E+02  0.00000000000E+00 0.  1.
</event>
<event>
12    1  0.8219652E-002  0.1808824E+03  0.7818608E-02  0.1166979E+00
         21   -1    0    0  501  502  0.00000000000E+00  0.00000000000E+00  0.39597229626E+03  0.39597229626E+03  0.00000000000E+00 0. -1.
         21   -1    0    0  502  503 -0.00000000000E+00 -0.00000000000E+00 -0.11755240853E+03  0.11755240853E+03  0.00000000000E+00 0. -1.
         -6    2    1    2    0  503  0.54654684632E+02  0.78750021286E+01 -0.87748140009E+00  0.18077034468E+03  0.17212785170E+03 0.  0.
        -24    2    3    3    0    0 -0.76629700478E+01 -0.21500901910E+02  0.47731490114E+02  0.96322988685E+02  0.80491074709E+02 0.  0.
          6    2    1    2  501    0 -0.54654684632E+02 -0.78750021286E+01  0.27929736913E+03  0.33275436010E+03  0.17224776792E+03 0.  0.
         24    2    5    5    0    0 -0.26404745663E+02 -0.67112444449E+02  0.13259279322E+03  0.17197047964E+03  0.82411808978E+02 0.  0.
          5    1    5    5  501    0 -0.28249938969E+02  0.59237442320E+02  0.14670457591E+03  0.16078388047E+03  0.47000000000E+01 0. -1.
        -13    1    6    6    0    0 -0.65317383221E+01 -0.19672740696E+02 -0.80352840859E+01  0.22231646865E+02  0.00000000000E+00 0.  1.
         14    1    6    6    0    0 -0.19873007341E+02 -0.47439703753E+02  0.14062807731E+03  0.14973883277E+03  0.00000000000E+00 0. -1.
         -5    1    3    3    0  503  0.62317654680E+02  0.29375904039E+02 -0.48608971514E+02  0.84447355995E+02  0.47000000000E+01 0.  1.
         13    1    4    4    0    0 -0.15208468733E+02 -0.20655512720E+02 -0.17242323330E+02  0.30907045164E+02  0.00000000000E+00 0. -1.
        -14    1    4    4    0    0  0.75454986852E+01 -0.84538918959E+00  0.64973813444E+02  0.65415943521E+02  0.00000000000E+00 0.  1.
</event>
<event>
12    1  0.8219652E-002  0.2453602E+03  0.7818608E-02  0.1117459E+00
         21   -1    0    0  501  502  0.00000000000E+00  0.00000000000E+00  0.44992233966E+03  0.44992233966E+03  0.00000000000E+00 0.  1.
         21   -1    0    0  502  503 -0.00000000000E+00 -0.00000000000E+00 -0.13290505542E+03  0.13290505542E+03  0.00000000000E+00 0.  1.
         -6    2    1    2    0  503  0.85955059564E+02  0.13946210941E+03  0.11238113645E+03  0.26333158499E+03  0.17284690219E+03 0.  0.
        -24    2    3    3    0    0  0.77859236221E+02  0.20871720298E+02  0.29810754162E+02  0.11852419299E+03  0.81618710399E+02 0.  0.
          6    2    1    2  501    0 -0.85955059564E+02 -0.13946210941E+03  0.20463614779E+03  0.31949581010E+03  0.18265724038E+03 0.  0.
         24    2    5    5    0    0 -0.75879800141E+02 -0.15904096338E+03  0.21926651758E+03  0.29264473758E+03  0.80693026967E+02 0.  0.
          5    1    5    5  501    0 -0.10075259423E+02  0.19578853967E+02 -0.14630369793E+02  0.26851072518E+02  0.47000000000E+01 0. -1.
        -11    1    6    6    0    0 -0.85097957162E+02 -0.14275181742E+03  0.16077728832E+03  0.23123382133E+03  0.00000000000E+00 0.  1.
         12    1    6    6    0    0  0.92181570206E+01 -0.16289145961E+02  0.58489229261E+02  0.61410916249E+02  0.00000000000E+00 0. -1.
         -5    1    3    3    0  503  0.80958233432E+01  0.11859038911E+03  0.82570382287E+02  0.14480739200E+03  0.47000000000E+01 0.  1.
         11    1    4    4    0    0  0.99526493094E+01 -0.21441524368E+02  0.30402710190E+02  0.38511283832E+02  0.00000000000E+00 0. -1.
        -12    1    4    4    0    0  0.67906586912E+02  0.42313244666E+02 -0.59195602777E+00  0.80012909159E+02  0.00000000000E+00 0.  1.
</event>
<event>
12    1  0.8219652E-002  0.1882554E+03  0.7818608E-02  0.1160235E+00
         21   -1    0    0  501  502  0.00000000000E+00  0.00000000000E+00  0.30044161265E+04  0.30044161265E+04  0.00000000000E+00 0. -1.
         21   -1    0    0  502  503 -0.00000000000E+00 -0.00000000000E+00 -0.12011325770E+02  0.12011325770E+02  0.00000000000E+00 0. -1.
         -6    2    1    2    0  503  0.33608430129E+02 -0.70724247646E+02  0.12743599296E+04  0.12881899465E+04  0.17119772893E+03 0.  0.
        -24    2    3    3    0    0  0.27853507340E+02  0.25564188243E+02  0.51219266728E+03  0.51992852763E+03  0.80962953465E+02 0.  0.
          6    2    1    2  501    0 -0.33608430129E+02  0.70724247646E+02  0.17180448712E+04  0.17282375058E+04  0.17027992028E+03 0.  0.
         24    2    5    5    0    0 -0.17489776472E+02 -0.31085768792E+02  0.77475216183E+03  0.77931795390E+03  0.76310836134E+02 0.  0.
          5    1    5    5  501    0 -0.16118653657E+02  0.10181001644E+03  0.94329270932E+03  0.94891955186E+03  0.47000000000E+01 0. -1.
        -13    1    6    6    0    0  0.72782328222E+01 -0.43670875992E+01  0.78830304293E+01  0.11583880864E+02  0.00000000000E+00 0.  1.
         14    1    6    6    0    0 -0.24768009295E+02 -0.26718681192E+02  0.76686913140E+03  0.76773407304E+03  0.00000000000E+00 0. -1.
         -5    1    3    3    0  503  0.57549227891E+01 -0.96288435889E+02  0.76216726230E+03  0.76826141888E+03  0.47000000000E+01 0.  1.
         13    1    4    4    0    0 -0.56395278589E+01  0.28346683178E+02  0.61158329824E+02  0.67643773021E+02  0.00000000000E+00 0. -1.
        -14    1    4    4    0    0  0.33493035199E+02 -0.27824949356E+01  0.45103433746E+03  0.45228475461E+03  0.00000000000E+00 0.  1.
</event>
<event>
12    1  0.8219652E-002  0.1952714E+03  0.7818608E-02  0.1154003E+00
         21   -1    0    0  503  502  0.00000000000E+00  0.00000000000E+00  0.37446255454E+02  0.37446255454E+02  0.00000000000E+00 0. -1.
         21   -1    0    0  501  503 -0.00000000000E+00 -0.00000000000E+00 -0.11882733961E+04  0.11882733961E+04  0.00000000000E+00 0. -1.
          6    2    1    2  501    0  0.47018810130E+01  0.90401420923E+02 -0.80941144919E+03  0.83240606046E+03  0.17192565489E+03 0.  0.
         24    2    3    3    0    0  0.36012256396E+02  0.11478495529E+02 -0.22191799626E+03  0.23879017876E+03  0.79652457207E+02 0.  0.
         -6    2    1    2    0  502 -0.47018810130E+01 -0.90401420923E+02 -0.34141569141E+03  0.39331359105E+03  0.17302133388E+03 0.  0.
        -24    2    5    5    0    0  0.62983318218E+02 -0.72150849240E+02 -0.21083434861E+03  0.24503025872E+03  0.80100322805E+02 0.  0.
          5    1    3    3  501    0 -0.31310375383E+02  0.78922925395E+02 -0.58749345293E+03  0.59361588169E+03  0.47000000000E+01 0. -1.
        -13    1    4    4    0    0  0.60400904714E+02 -0.17380077585E+01 -0.15219810737E+03  0.16375455368E+03  0.00000000000E+00 0.  1.
         14    1    4    4    0    0 -0.24388648319E+02  0.13216503287E+02 -0.69719888885E+02  0.75035625087E+02  0.00000000000E+00 0. -1.
         -5    1    5    5    0  502 -0.67685199231E+02 -0.18250571683E+02 -0.13058134280E+03  0.14828333233E+03  0.47000000000E+01 0.  1.
         11    1    6    6    0    0  0.31914353208E+02 -0.85107159626E+02 -0.16114600433E+03  0.18501294353E+03  0.00000000000E+00 0. -1.
        -12    1    6    6    0    0  0.31068965010E+02  0.12956310386E+02 -0.49688344276E+02  0.60017315189E+02  0.00000000000E+00 0.  1.
</event>
<event>
12    1  0.8219652E-002  0.2134514E+03  0.7818608E-02  0.1142549E+00
         21   -1    0    0  501  502  0.00000000000E+00  0.00000000000E+00  0.11146547427E+04  0.11146547427E+04  0.00000000000E+00 0.  1.
         21   -1    0    0  502  503 -0.00000000000E+00 -0.00000000000E+00 -0.45023511078E+02  0.45023511078E+02  0.00000000000E+00 0.  1.
         -6    2    1    2    0  503 -0.66754043485E+02  0.60823263710E+02  0.79181610889E+03  0.82008186654E+03  0.19340616792E+03 0.  0.
        -24    2    3    3    0    0 -0.33994543609E+02  0.37806046978E+02  0.76702974886E+03  0.77275924254E+03  0.78976484546E+02 0.  0.
          6    2    1    2  501    0  0.66754043485E+02 -0.60823263710E+02  0.27781512272E+03  0.33959638723E+03  0.17317301198E+03 0.  0.
         24    2    5    5    0    0  0.25439632544E+02  0.34535076336E+02  0.15211899733E+03  0.17643481239E+03  0.78416881295E+02 0.  0.
          5    1    5    5  501    0  0.41314410941E+02 -0.95358340046E+02  0.12569612539E+03  0.16316157485E+03  0.47000000000E+01 0. -1.
        -13    1    6    6    0    0  0.48142162109E+02  0.16593315068E+02  0.54367907859E+02  0.74490773136E+02  0.00000000000E+00 0.  1.
         14    1    6    6    0    0 -0.22702529566E+02  0.17941761268E+02  0.97751089471E+02  0.10194403925E+03  0.00000000000E+00 0. -1.
         -5    1    3    3    0  503 -0.32759499875E+02  0.23017216732E+02  0.24786360031E+02  0.47322623995E+02  0.47000000000E+01 0.  1.
         11    1    4    4    0    0  0.24792141568E+02  0.23485294036E+01  0.17521290397E+03  0.17697380482E+03  0.00000000000E+00 0. -1.
        -12    1    4    4    0    0 -0.58786685178E+02  0.35457517574E+02  0.59181684489E+03  0.59578543772E+03  0.00000000000E+00 0.  1.
</event>
<event>
12    1  0.8219652E-002  0.2253940E+03  0.7818608E-02  0.1130537E+00
         21   -1    0    0  501  502  0.00000000000E+00  0.00000000000E+00  0.13766297738E+04  0.13766297738E+04  0.00000000000E+00 0. -1.
         21   -1    0    0  502  503 -0.00000000000E+00 -0.00000000000E+00 -0.52232532079E+02  0.52232532079E+02  0.00000000000E+00 0.  1.
         -6    2    1    2    0  503 -0.61024869284E+02 -0.13102289239E+03  0.27177485413E+03  0.35307796422E+03  0.17294925407E+03 0.  0.
        -24    2    3    3    0    0 -0.60081306996E+02 -0.83983422312E+02  0.63974139789E+02  0.13996571930E+03  0.69532246800E+02 0.  0.
          6    2    1    2  501    0  0.61024869284E+02  0.13102289239E+03  0.10526223876E+04  0.10757843416E+04  0.16854383965E+03 0.  0.
         24    2    5    5    0    0  0.32771781136E+02  0.33395001004E+02  0.26600133763E+03  0.28261083705E+03  0.83204313979E+02 0.  0.
          5    1    5    5  501    0  0.28253088147E+02  0.97627891383E+02  0.78662104993E+03  0.79317350458E+03  0.47000000000E+01 0. -1.
        -11    1    6    6    0    0  0.18490820810E+02 -0.15687053248E+02  0.18665975789E+03  0.18822821072E+03  0.00000000000E+00 0.  1.
         12    1    6    6    0    0  0.14280960326E+02  0.49082054253E+02  0.79341579739E+02  0.94382626330E+02  0.00000000000E+00 0. -1.
         -5    1    3    3    0  503 -0.94356228783E+00 -0.47039470075E+02  0.20780071434E+03  0.21311224492E+03  0.47000000000E+01 0.  1.
         13    1    4    4    0    0  0.82669510731E+01 -0.44503697171E+02  0.27981663639E+02  0.53215552632E+02  0.00000000000E+00 0. -1.
        -14    1    4    4    0    0 -0.68348258069E+02 -0.39479725141E+02  0.35992476150E+02  0.86750166672E+02  0.00000000000E+00 0.  1.
</event>
<event>
12    1  0.8219652E-002  0.1763288E+03  0.7818608E-02  0.1171523E+00
         21   -1    0    0  503  502  0.00000000000E+00  0.00000000000E+00  0.38636880855E+03  0.38636880855E+03  0.00000000000E+00 0. -1.
         21   -1    0    0  501  503 -0.00000000000E+00 -0.00000000000E+00 -0.20805699290E+03  0.20805699290E+03  0.00000000000E+00 0. -1.
          6    2    1    2  501    0  0.22202315400E+02 -0.31559207764E+02 -0.14383139513E+03  0.22718189071E+03  0.17156693982E+03 0.  0.
         24    2    3    3    0    0  0.21830960593E+01 -0.61030664897E+02 -0.23794667430E+02  0.10188128447E+03  0.78000653587E+02 0.  0.
         -6    2    1    2    0  502 -0.22202315400E+02  0.31559207764E+02  0.32214321079E+03  0.36724391074E+03  0.17205497760E+03 0.  0.
        -24    2    5    5    0    0 -0.20118298058E+02 -0.48260079784E+02  0.19644817806E+03  0.21825802871E+03  0.79441168263E+02 0.  0.
          5    1    3    3  501    0  0.20019219341E+02  0.29471457134E+02 -0.12003672770E+03  0.12530060625E+03  0.47000000000E+01 0. -1.
        -13    1    4    4    0    0 -0.36529296721E+02 -0.40087288624E+02 -0.19599510213E+02  0.57667330689E+02  0.00000000000E+00 0.  1.
         14    1    4    4    0    0  0.38712392781E+02 -0.20943376273E+02 -0.41951572174E+01  0.44213953777E+02  0.00000000000E+00 0. -1.
         -5    1    5    5    0  502 -0.20840173424E+01  0.79819287547E+02  0.12569503272E+03  0.14898588203E+03  0.47000000000E+01 0.  1.
         11    1    6    6    0    0 -0.30230318639E+02 -0.29257303945E+02  0.33187132782E+02  0.53584025432E+02  0.00000000000E+00 0. -1.
        -12    1    6    6    0    0  0.10112020581E+02 -0.19002775838E+02  0.16326104528E+03  0.16467400328E+03  0.00000000000E+00 0.  1.
</event>
<event>
12    1  0.8219652E-002  0.2194686E+03  0.7818608E-02  0.1134294E+00
         21   -1    0    0  501  502  0.00000000000E+00  0.00000000000E+00  0.58992543141E+03  0.58992543141E+03  0.00000000000E+00 0.  1.
         21   -1    0    0  502  503 -0.00000000000E+00 -0.00000000000E+00 -0.90507271220E+02  0.90507271220E+02  0.00000000000E+00 0. -1.
         -6    2    1    2    0  503  0.19410990162E+02  0.13488048214E+03  0.35628220507E+03  0.41841290778E+03  0.17193842138E+03 0.  0.
        -24    2    3    3    0    0  0.15923628023E+02  0.65066795084E+01  0.74426649302E+02  0.10864422115E+03  0.77255044214E+02 0.  0.
          6    2    1    2  501    0 -0.19410990162E+02 -0.13488048214E+03  0.14313595512E+03  0.26201979485E+03  0.17203761287E+03 0.  0.
         24    2    5    5    0    0  0.44725106617E+02 -0.11561349908E+03  0.12150264392E+03  0.19148791766E+03  0.80857366995E+02 0.  0.
          5    1    5    5  501    0 -0.64136096780E+02 -0.19266983066E+02  0.21633311196E+02  0.70531877190E+02  0.47000000000E+01 0. -1.
        -11    1    6    6    0    0  0.45415157389E+01  0.75771331747E+01  0.34006130529E+02  0.35134815012E+02  0.00000000000E+00 0.  1.
         12    1    6    6    0    0  0.40183590878E+02 -0.12319063225E+03  0.87496513395E+02  0.15635310265E+03  0.00000000000E+00 0. -1.
         -5    1    3    3    0  503  0.34873621392E+01  0.12837380264E+03  0.28185555577E+03  0.30976868663E+03  0.47000000000E+01 0.  1.
         13    1    4    4    0    0 -0.13381735924E+02  0.27867904268E+02  0.64215946837E+01  0.31574163851E+02  0.00000000000E+00 0. -1.
        -14    1    4    4    0    0  0.29305363947E+02 -0.21361224759E+02  0.68005054618E+02  0.77070057304E+02  0.00000000000E+00 0.  1.
</event>
<event>
12    1  0.8219652E-002  0.1760310E+03  0.7818608E-02  0.1172177E+00
         21   -1    0    0  503  502  0.00000000000E+00  0.00000000000E+00  0.22905032689E+03  0.22905032689E+03  0.00000000000E+00 0.  1.
         21   -1    0    0  501  503 -0.00000000000E+00 -0.00000000000E+00 -0.14992054663E+03  0.14992054663E+03  0.00000000000E+00 0.  1.
          6    2    1    2  501    0  0.84982858963E+01  0.36305244458E+02 -0.22326968903E+02  0.17744131418E+03  0.17203672515E+03 0.  0.
         24    2    3    3    0    0 -0.16756913722E+02  0.81070806353E+02 -0.52191894757E+02  0.11781091559E+03  0.65590762722E+02 0.  0.
         -6    2    1    2    0  502 -0.84982858963E+01 -0.36305244458E+02  0.10145674916E+03  0.20152955934E+03  0.17008938738E+03 0.  0.
        -24    2    5    5    0    0  0.50675226898E+02 -0.22036066047E+02  0.10107843875E+03  0.14047755538E+03  0.80396056856E+02 0.  0.
          5    1    3    3  501    0  0.25255199618E+02 -0.44765561895E+02  0.29864925855E+02  0.59630398588E+02  0.47000000000E+01 0. -1.
        -11    1    4    4    0    0 -0.29270280452E+02  0.86207128889E+02 -0.39423987762E+02  0.99210227296E+02  0.00000000000E+00 0.  1.
         12    1    4    4    0    0  0.12513366730E+02 -0.51363225364E+01 -0.12767906995E+02  0.18600688298E+02  0.00000000000E+00 0. -1.
         -5    1    5    5    0  502 -0.59173512794E+02 -0.14269178411E+02  0.37831041517E+00  0.61052003962E+02  0.47000000000E+01 0.  1.
         11    1    6    6    0    0 -0.16456965705E+02  0.58585693630E+01  0.46200783121E+02  0.49392984483E+02  0.00000000000E+00 0. -1.
        -12    1    6    6    0    0  0.67132192603E+02 -0.27894635410E+02  0.54877655625E+02  0.91084570896E+02  0.00000000000E+00 0.  1.
</event>
<event>
12    1  0.8219652E-002  0.2242463E+03  0.7818608E-02  0.1130824E+00
         21   -1    0    0  501  502  0.00000000000E+00  0.00000000000E+00  0.60262321651E+02  0.60262321651E+02  0.00000000000E+00 0. -1.
         21   -1    0    0  502  503 -0.00000000000E+00 -0.00000000000E+00 -0.87420348426E+03  0.87420348426E+03  0.00000000000E+00 0. -1.
         -6    2    1    2    0  503 -0.31914410087E+01 -0.14384681029E+03 -0.50800291255E+03  0.55514455781E+03  0.17151218843E+03 0.  0.
        -24    2    3    3    0    0  0.26634963954E+02 -0.13122071303E+03 -0.49631303267E+03  0.52039148519E+03  0.80946739426E+02 0.  0.
          6    2    1    2  501    0  0.31914410087E+01  0.14384681029E+03 -0.30593825006E+03  0.37932124810E+03  0.17200089036E+03 0.  0.
         24    2    5    5    0    0 -0.27058817325E+02  0.32414348912E+02 -0.73183882665E+02  0.11945790494E+03  0.84447858235E+02 0.  0.
          5    1    5    5  501    0  0.30250258334E+02  0.11143246138E+03 -0.23275436739E+03  0.25986334316E+03  0.47000000000E+01 0. -1.
        -13    1    6    6    0    0 -0.39933632183E+02 -0.10143832198E+02 -0.60543120174E+02  0.73232927781E+02  0.00000000000E+00 0.  1.
         14    1    6    6    0    0  0.12874814857E+02  0.42558181111E+02 -0.12640762491E+02  0.46224977160E+02  0.00000000000E+00 0. -1.
         -5    1    3    3    0  503 -0.29826404962E+02 -0.12626097258E+02 -0.11689879878E+02  0.34753072620E+02  0.47000000000E+01 0.  1.
         11    1    4    4    0    0  0.24920936425E+02 -0.10724333018E+03 -0.25331916188E+03  0.27621148187E+03  0.00000000000E+00 0. -1.
        -12    1    4    4    0    0  0.17140275290E+01 -0.23977382850E+02 -0.24299387079E+03  0.24418000332E+03  0.00000000000E+00 0.  1.
</event>
<event>
12    1  0.8219652E-002  0.1942494E+03  0.7818608E-02  0.1154897E+00
         21   -1    0    0  503  502  0.00000000000E+00  0.00000000000E+00  0.34472581612E+03  0.34472581612E+03  0.00000000000E+00 0.  1.
         21   -1    0    0  501  503 -0.00000000000E+00 -0.00000000000E+00 -0.19897184387E+03  0.19897184387E+03  0.00000000000E+00 0.  1.
          6    2    1    2  501    0 -0.56542422303E+02  0.68014088597E+02 -0.11011631502E+03  0.22244628787E+03  0.17185396821E+03 0.  0.
         24    2    3    3    0    0 -0.52759821529E+02  0.90631602852E+02 -0.13507167194E+03  0.18823050411E+03  0.78668163268E+02 0.  0.
         -6    2    1    2    0  502  0.56542422303E+02 -0.68014088597E+02  0.25587028727E+03  0.32125137212E+03  0.17294472646E+03 0.  0.
        -24    2    5    5    0    0 -0.35200130683E+02 -0.49461689420E+02  0.12550099814E+03  0.16069256952E+03  0.79913036759E+02 0.  0.
          5    1    3    3  501    0 -0.37826007741E+01 -0.22617514255E+02  0.24955356923E+02  0.34215783768E+02  0.47000000000E+01 0. -1.
        -11    1    4    4    0    0 -0.63567632421E+01  0.55247055982E+02 -0.11281148615E+03  0.12577391241E+03  0.00000000000E+00 0.  1.
         12    1    4    4    0    0 -0.46403058287E+02  0.35384546870E+02 -0.22260185786E+02  0.62456591700E+02  0.00000000000E+00 0. -1.
         -5    1    5    5    0  502  0.91742552986E+02 -0.18552399177E+02  0.13036928913E+03  0.16055880260E+03  0.47000000000E+01 0.  1.
         11    1    6    6    0    0 -0.20531578415E+02  0.17615372945E+02  0.15956195153E+02  0.31407757640E+02  0.00000000000E+00 0. -1.
        -12    1    6    6    0    0 -0.14668552268E+02 -0.67077062365E+02  0.10954480299E+03  0.12928481188E+03  0.00000000000E+00 0.  1.
</event>
<event>
12    1  0.8219652E-002  0.2038866E+03  0.7818608E-02  0.1149838E+00
         21   -1    0    0  501  502  0.00000000000E+00  0.00000000000E+00  0.13363076029E+03  0.13363076029E+03  0.00000000000E+00 0. -1.
         21   -1    0    0  502  503 -0.00000000000E+00 -0.00000000000E+00 -0.34054515923E+03  0.34054515923E+03  0.00000000000E+00 0. -1.
         -6    2    1    2    0  503  0.76338002453E+02 -0.77656346802E+02 -0.19322988853E+03  0.26983060578E+03  0.15366446297E+03 0.  0.
        -24    2    3    3    0    0  0.26356052708E+02 -0.10163557217E+03 -0.12703280453E+03  0.18335897760E+03  0.80366349900E+02 0.  0.
          6    2    1    2  501    0 -0.76338002453E+02  0.77656346802E+02 -0.13684510407E+02  0.20434531373E+03  0.17237094477E+03 0.  0.
         24    2    5    5    0    0  0.25702186823E+02  0.30635777815E+02 -0.20542130341E+02  0.91685422523E+02  0.79906722461E+02 0.  0.
          5    1    5    5  501    0 -0.10204018928E+03  0.47020568987E+02  0.68576199340E+01  0.11265989121E+03  0.47000000000E+01 0. -1.
        -11    1    6    6    0    0  0.15079797356E+02 -0.22008888458E+02  0.11604455779E+02  0.29093897185E+02  0.00000000000E+00 0.  1.
         12    1    6    6    0    0  0.10622389467E+02  0.52644666273E+02 -0.32146586120E+02  0.62591525338E+02  0.00000000000E+00 0. -1.
         -5    1    3    3    0  503  0.49981949745E+02  0.23979225370E+02 -0.66197084005E+02  0.86471628182E+02  0.47000000000E+01 0.  1.
         13    1    4    4    0    0  0.20701255191E+02 -0.30859302556E+02 -0.10119512099E+03  0.10780209197E+03  0.00000000000E+00 0. -1.
        -14    1    4    4    0    0  0.56547975169E+01 -0.70776269616E+02 -0.25837683534E+02  0.75556885631E+02  0.00000000000E+00 0.  1.
</event>
<event>
12    1  0.8219652E-002  0.2384839E+03  0.7818608E-02  0.1120824E+00
         21   -1    0    0  503  502  0.00000000000E+00  0.00000000000E+00  0.15942032041E+02  0.15942032041E+02  0.00000000000E+00 0. -1.
         21   -1    0    0  501  503 -0.00000000000E+00 -0.00000000000E+00 -0.35683271276E+04  0.35683271276E+04  0.00000000000E+00 0. -1.
          6    2    1    2  501    0 -0.92960833733E+02 -0.13695941679E+03 -0.18219307013E+04  0.18374727347E+04  0.17168276618E+03 0.  0.
         24    2    3    3    0    0 -0.96029632474E+02 -0.11389087742E+03 -0.92996549864E+03  0.94519161998E+03  0.79740501356E+02 0.  0.
         -6    2    1    2    0  502  0.92960833733E+02  0.13695941679E+03 -0.17304543943E+04  0.17467964249E+04  0.17153932756E+03 0.  0.
        -24    2    5    5    0    0  0.27251812015E+02  0.15063528781E+03 -0.12231654018E+04  0.12350651312E+04  0.76279926165E+02 0.  0.
          5    1    3    3  501    0  0.30687987407E+01 -0.23068539375E+02 -0.89196520263E+03  0.89228111475E+03  0.47000000000E+01 0. -1.
        -13    1    4    4    0    0 -0.44593471477E+02 -0.35386872831E+02 -0.16616121307E+03  0.17564269753E+03  0.00000000000E+00 0.  1.
         14    1    4    4    0    0 -0.51436160997E+02 -0.78504004589E+02 -0.76380428557E+03  0.76954892245E+03  0.00000000000E+00 0. -1.
         -5    1    5    5    0  502  0.65709021718E+02 -0.13675871018E+02 -0.50728899257E+03  0.51173129371E+03  0.47000000000E+01 0.  1.
         11    1    6    6    0    0  0.37449172054E+02  0.91012553203E+02 -0.51487333899E+03  0.52419488792E+03  0.00000000000E+00 0. -1.
        -12    1    6    6    0    0 -0.10197360039E+02  0.59622734609E+02 -0.70829206278E+03  0.71087024331E+03  0.00000000000E+00 0.  1.
</event>
<event>
12    1  0.8219652E-002  0.1875739E+03  0.7818608E-02  0.1160673E+00
         21   -1    0    0  501  502  0.00000000000E+00  0.00000000000E+00  0.37942200913E+03  0.37942200913E+03  0.00000000000E+00 0.  1.
         21   -1    0    0  502  503 -0.00000000000E+00 -0.00000000000E+00 -0.92945826172E+02  0.92945826172E+02  0.00000000000E+00 0. -1.
         -6    2    1    2    0  503  0.41814729085E+01 -0.73945858757E+02  0.13156925361E+03  0.22911661914E+03  0.17233247496E+03 0.  0.
        -24    2    3    3    0    0 -0.35099608036E+02 -0.91778458121E+02  0.47928106192E+02  0.13488851047E+03  0.79009740130E+02 0.  0.
          6    2    1    2  501    0 -0.41814729085E+01  0.73945858757E+02  0.15490692935E+03  0.24325121617E+03  0.17230647888E+03 0.  0.
         24    2    5    5    0    0  0.28058525665E+02 -0.20368466874E+02  0.87788351165E+02  0.12299481067E+03  0.78859200764E+02 0.  0.
          5    1    5    5  501    0 -0.32239998574E+02  0.94314325632E+02  0.67118578183E+02  0.12025640550E+03  0.47000000000E+01 0. -1.
        -13    1    6    6    0    0  0.34443667749E+02  0.21982904849E+02  0.57489350970E+02  0.70531126664E+02  0.00000000000E+00 0.  1.
         14    1    6    6    0    0 -0.63851420835E+01 -0.42351371723E+02  0.30299000196E+02  0.52463684002E+02  0.00000000000E+00 0. -1.
         -5    1    3    3    0  503  0.39281080944E+02  0.17832599363E+02  0.83641147421E+02  0.94228108663E+02  0.47000000000E+01 0.  1.
         13    1    4    4    0    0  0.99816818409E+01 -0.50876984581E+01 -0.14958536313E+02  0.18688939419E+02  0.00000000000E+00 0. -1.
        -14    1    4    4    0    0 -0.45081289877E+02 -0.86690759662E+02  0.62886642505E+02  0.11619957105E+03  0.00000000000E+00 0.  1.
</event>
<event>
12    1  0.8219652E-002  0.2613133E+03  0.7818608E-02  0.1106392E+00
         21   -1    0    0  503  502  0.00000000000E+00  0.00000000000E+00  0.24819102283E+03  0.24819102283E+03  0.00000000000E+00 0. -1.
         21   -1    0    0  501  503 -0.00000000000E+00 -0.00000000000E+00 -0.45261504466E+03  0.45261504466E+03  0.00000000000E+00 0. -1.
          6    2    1    2  501    0 -0.10849362764E+03 -0.16513521480E+03 -0.32176168703E+03  0.41435755812E+03  0.17064904430E+03 0.  0.
         24    2    3    3    0    0 -0.11454032404E+03 -0.75762398889E+02 -0.13777374559E+03  0.20966824389E+03  0.78228770958E+02 0.  0.
         -6    2    1    2    0  502  0.10849362764E+03  0.16513521480E+03  0.11733766521E+03  0.28644850937E+03  0.17100910630E+03 0.  0.
        -24    2    5    5    0    0 -0.57479672563E+01  0.57774393877E+02  0.18313652053E+02  0.10096176306E+03  0.80541716111E+02 0.  0.
          5    1    3    3  501    0  0.60466964056E+01 -0.89372815914E+02 -0.18398794144E+03  0.20468931422E+03  0.47000000000E+01 0. -1.
        -11    1    4    4    0    0 -0.24490364058E+02  0.14087246387E+02 -0.11733409390E+02  0.30592504611E+02  0.00000000000E+00 0.  1.
         12    1    4    4    0    0 -0.90049959983E+02 -0.89849645276E+02 -0.12604033620E+03  0.17907573928E+03  0.00000000000E+00 0. -1.
         -5    1    5    5    0  502  0.11424159489E+03  0.10736082093E+03  0.99024013153E+02  0.18548674630E+03  0.47000000000E+01 0.  1.
         11    1    6    6    0    0  0.36388098425E+02  0.33854235160E+02  0.16876197635E+02  0.52488179544E+02  0.00000000000E+00 0. -1.
        -12    1    6    6    0    0 -0.42136065681E+02  0.23920158717E+02  0.14374544179E+01  0.48473583520E+02  0.00000000000E+00 0.  1.
</event>
<event>
12    1  0.8219652E-002  0.1830997E+03  0.7818608E-02  0.1165258E+00
         21   -1    0    0  503  502  0.00000000000E+00  0.00000000000E+00  0.51745728390E+03  0.51745728390E+03  0.00000000000E+00 0.  1.
         21   -1    0    0  501  503 -0.00000000000E+00 -0.00000000000E+00 -0.64174309669E+02  0.64174309669E+02  0.00000000000E+00 0.  1.
          6    2    1    2  501    0  0.35225866546E+02  0.45952042425E+02  0.22172844697E+03  0.28643166744E+03  0.17183464156E+03 0.  0.
         24    2    3    3    0    0  0.50152465400E+02  0.71471815802E+02  0.12904224524E+03  0.18903102998E+03  0.10703896020E+03 0.  0.
         -6    2    1    2    0  502 -0.35225866546E+02 -0.45952042425E+02  0.23155452726E+03  0.29519992613E+03  0.17370390155E+03 0.  0.
        -24    2    5    5    0    0 -0.21619497542E+02 -0.77939880826E+02  0.78613683924E+02  0.13828801885E+03  0.80008981754E+02 0.  0.
          5    1    3    3  501    0 -0.14926598854E+02 -0.25519773377E+02  0.92686201732E+02  0.97400637462E+02  0.47000000000E+01 0. -1.
        -13    1    4    4    0    0  0.75468717443E+02  0.76082129873E+02  0.12193801554E+03  0.16233575525E+03  0.00000000000E+00 0.  1.
         14    1    4    4    0    0 -0.25316252043E+02 -0.46103140715E+01  0.71042296971E+01  0.26695274730E+02  0.00000000000E+00 0. -1.
         -5    1    5    5    0  502 -0.13606369004E+02  0.31987838401E+02  0.15294084334E+03  0.15691190727E+03  0.47000000000E+01 0.  1.
         13    1    6    6    0    0  0.22181839531E+02 -0.18399494054E+01  0.30909513888E+01  0.22471613189E+02  0.00000000000E+00 0. -1.
        -14    1    6    6    0    0 -0.43801337073E+02 -0.76099931421E+02  0.75522732535E+02  0.11581640567E+03  0.00000000000E+00 0.  1.
</event>
<event>
12    1  0.8219652E-002  0.1819196E+03  0.7818608E-02  0.1166101E+00
         21   -1    0    0  501  502  0.00000000000E+00  0.00000000000E+00  0.33110431435E+03  0.33110431435E+03  0.00000000000E+00 0. -1.
         21   -1    0    0  502  503 -0.00000000000E+00 -0.00000000000E+00 -0.10168824962E+03  0.10168824962E+03  0.00000000000E+00 0. -1.
         -6    2    1    2    0  503 -0.36424417301E+02 -0.46485293008E+02  0.14572838665E+03  0.23309117562E+03  0.17206717536E+03 0.  0.
        -24    2    3    3    0    0 -0.49206600163E+02 -0.85781521723E+02  0.85498066089E+02  0.15989719155E+03  0.92072979703E+02 0.  0.
          6    2    1    2  501    0  0.36424417301E+02  0.46485293008E+02  0.83687678075E+02  0.19970138835E+03  0.17143335850E+03 0.  0.
         24    2    5    5    0    0 -0.31453366662E+02 -0.17193632738E+02  0.43662090862E+02  0.98278822953E+02  0.80420231170E+02 0.  0.
          5    1    5    5  501    0  0.67877783963E+02  0.63678925746E+02  0.40025587213E+02  0.10142256540E+03  0.47000000000E+01 0. -1.
        -13    1    6    6    0    0 -0.28923461940E+02  0.22576720419E+02 -0.31204410447E+01  0.36824069680E+02  0.00000000000E+00 0.  1.
         14    1    6    6    0    0 -0.25299047213E+01 -0.39770353157E+02  0.46782531907E+02  0.61454753273E+02  0.00000000000E+00 0. -1.
         -5    1    3    3    0  503  0.12782182862E+02  0.39296228715E+02  0.60230320561E+02  0.73193984075E+02  0.47000000000E+01 0.  1.
         11    1    4    4    0    0 -0.71505771831E+02 -0.77055818750E+02  0.86194058351E+02  0.13594149589E+03  0.00000000000E+00 0. -1.
        -12    1    4    4    0    0  0.22299171668E+02 -0.87257029721E+01 -0.69599226252E+00  0.23955695663E+02  0.00000000000E+00 0.  1.
</event>
<event>
12    1  0.8219652E-002  0.1828768E+03  0.7818608E-02  0.1165067E+00
         21   -1    0    0  501  502  0.00000000000E+00  0.00000000000E+00  0.10494159348E+03  0.10494159348E+03  0.00000000000E+00 0.  1.
         21   -1    0    0  502  503 -0.00000000000E+00 -0.00000000000E+00 -0.31861799797E+03  0.31861799797E+03  0.00000000000E+00 0.  1.
         -6    2    1    2    0  503  0.55118843463E+02 -0.26842989878E+02 -0.10365647243E+03  0.21013911517E+03  0.17220670846E+03 0.  0.
        -24    2    3    3    0    0  0.74307164868E+01 -0.76285378013E+02 -0.82080337326E+02  0.13798423450E+03  0.80173516501E+02 0.  0.
          6    2    1    2  501    0 -0.55118843463E+02  0.26842989878E+02 -0.11001993207E+03  0.21342047628E+03  0.17229417063E+03 0.  0.
         24    2    5    5    0    0 -0.10222032630E+03  0.26825856138E+02 -0.83896137273E+02  0.15935484363E+03  0.84774894123E+02 0.  0.
          5    1    5    5  501    0  0.47101482837E+02  0.17133739254E-01 -0.26123794794E+02  0.54065632646E+02  0.47000000000E+01 0. -1.
        -13    1    6    6    0    0 -0.31344494801E+02  0.12790879817E+02  0.14875223071E+02  0.36977780115E+02  0.00000000000E+00 0.  1.
         14    1    6    6    0    0 -0.70875831499E+02  0.14034976322E+02 -0.98771360344E+02  0.12237706352E+03  0.00000000000E+00 0. -1.
         -5    1    3    3    0  503  0.47688126976E+02  0.49442388135E+02 -0.21576135107E+02  0.72154880674E+02  0.47000000000E+01 0.  1.
         11    1    4    4    0    0  0.90671262636E+01  0.60254159394E+01  0.97774345259E+01  0.14632725031E+02  0.00000000000E+00 0. -1.
        -12    1    4    4    0    0 -0.16364097768E+01 -0.82310793952E+02 -0.91857771851E+02  0.12335150947E+03  0.00000000000E+00 0.  1.
</event>
<event>
12    1  0.8219652E-002  0.1852846E+03  0.7818608E-02  0.1166086E+00
         21   -1    0    0  503  502  0.00000000000E+00  0.00000000000E+00  0.21836285602E+03  0.21836285602E+03  0.00000000000E+00 0.  1.
         21   -1    0    0  501  503 -0.00000000000E+00 -0.00000000000E+00 -0.18659157406E+03  0.18659157406E+03  0.00000000000E+00 0.  1.
          6    2    1    2  501    0 -0.47612024698E+02  0.45646556706E+02 -0.79104177216E+02  0.18902912380E+03  0.15850560166E+03 0.  0.
         24    2    3    3    0    0 -0.10016030321E+02  0.44730907238E+02 -0.10764097797E+03  0.14158719926E+03  0.79744466450E+02 0.  0.
         -6    2    1    2    0  502  0.47612024698E+02 -0.45646556706E+02  0.11087545918E+03  0.21592530628E+03  0.17314692434E+03 0.  0.
        -24    2    5    5    0    0  0.33010092759E+02  0.37114612050E+02  0.83531803601E+02  0.12742449854E+03  0.82415289622E+02 0.  0.
          5    1    3    3  501    0 -0.37595994377E+02  0.91564946860E+00  0.28536800754E+02  0.47441924544E+02  0.47000000000E+01 0. -1.
        -11    1    4    4    0    0 -0.14029938865E+01  0.10478341426E+01 -0.95393166685E+02  0.95409237490E+02  0.00000000000E+00 0.  1.
         12    1    4    4    0    0 -0.86130364349E+01  0.43683073095E+02 -0.12247811284E+02  0.46177961766E+02  0.00000000000E+00 0. -1.
         -5    1    5    5    0  502  0.14601931940E+02 -0.82761168757E+02  0.27343655580E+02  0.88500807741E+02  0.47000000000E+01 0.  1.
         13    1    6    6    0    0  0.36013969037E+01  0.57984188794E+02  0.63915510500E+02  0.86373194292E+02  0.00000000000E+00 0. -1.
        -14    1    6    6    0    0  0.29408695855E+02 -0.20869576743E+02  0.19616293101E+02  0.41051304247E+02  0.00000000000E+00 0.  1.
</event>
<event>
12    1  0.8219652E-002  0.2990095E+03  0.7818608E-02  0.1085782E+00
         21   -1    0    0  503  502  0.00000000000E+00  0.00000000000E+00  0.26550583815E+04  0.26550583815E+04  0.00000000000E+00 0. -1.
         21   -1    0    0  501  503 -0.00000000000E+00 -0.00000000000E+00 -0.50241588352E+02  0.50241588352E+02  0.00000000000E+00 0.  1.
          6    2    1    2  501    0  0.24016170739E+03  0.44268206052E+02  0.52416927901E+03  0.60327695340E+03  0.17190791049E+03 0.  0.
         24    2    3    3    0    0  0.65392577521E+02 -0.84520185659E+01  0.11116314982E+03  0.15170212729E+03  0.79427096961E+02 0.  0.
         -6    2    1    2    0  502 -0.24016170739E+03 -0.44268206052E+02  0.20806475141E+04  0.21020230164E+04  0.17253800688E+03 0.  0.
        -24    2    5    5    0    0 -0.20885817339E+03 -0.12143360180E+01  0.12527063297E+04  0.12723590833E+04  0.77467911739E+02 0.  0.
          5    1    3    3  501    0  0.17476912987E+03  0.52720224618E+02  0.41300612918E+03  0.45157482611E+03  0.47000000000E+01 0. -1.
        -11    1    4    4    0    0  0.46575017172E+02  0.31895461966E+02  0.77542822871E+02  0.95913722154E+02  0.00000000000E+00 0.  1.
         12    1    4    4    0    0  0.18817560349E+02 -0.40347480532E+02  0.33620326954E+02  0.55788405133E+02  0.00000000000E+00 0. -1.
         -5    1    5    5    0  502 -0.31303533997E+02 -0.43053870034E+02  0.82794118443E+03  0.82966393307E+03  0.47000000000E+01 0.  1.
         11    1    6    6    0    0 -0.14837097874E+03 -0.19463647076E+02  0.10318199438E+04  0.10426145871E+04  0.00000000000E+00 0. -1.
        -12    1    6    6    0    0 -0.60487194651E+02  0.18249311058E+02  0.22088638588E+03  0.22974449621E+03  0.00000000000E+00 0.  1.
</event>
<event>
12    1  0.8219652E-002  0.2031720E+03  0.7818608E-02  0.1147101E+00
         21   -1    0    0  501  502  0.00000000000E+00  0.00000000000E+00  0.32408607243E+03  0.32408607243E+03  0.00000000000E+00 0. -1.
         21   -1    0    0  502  503 -0.00000000000E+00 -0.00000000000E+00 -0.18617763480E+03  0.18617763480E+03  0.00000000000E+00 0. -1.
         -6    2    1    2    0  503 -0.67212366478E+02 -0.85154285808E+02 -0.74470566564E+02  0.21639019787E+03  0.17178503384E+03 0.  0.
        -24    2    3    3    0    0  0.13526538493E+02 -0.44559022492E+02 -0.27331733360E+01  0.10091253870E+03  0.89484057250E+02 0.  0.
          6    2    1    2  501    0  0.67212366478E+02  0.85154285808E+02  0.21237900420E+03  0.29387350936E+03  0.17172083007E+03 0.  0.
         24    2    5    5    0    0  0.89339101452E+02  0.87114424020E+01  0.15538460879E+03  0.19587579604E+03  0.78521249014E+02 0.  0.
          5    1    5    5  501    0 -0.22126734975E+02  0.76442843406E+02  0.56994395409E+02  0.97997713324E+02  0.47000000000E+01 0. -1.
        -13    1    6    6    0    0  0.42892321870E+01 -0.28157876346E+01  0.84237598110E+02  0.84393714861E+02  0.00000000000E+00 0.  1.
         14    1    6    6    0    0  0.85049869265E+02  0.11527230037E+02  0.71147010683E+02  0.11148208118E+03  0.00000000000E+00 0. -1.
         -5    1    3    3    0  503 -0.80738904971E+02 -0.40595263316E+02 -0.71737393228E+02  0.11547765917E+03  0.47000000000E+01 0.  1.
         11    1    4    4    0    0 -0.67588262628E+01 -0.38984094110E+02 -0.41166950238E+02  0.57097803092E+02  0.00000000000E+00 0. -1.
        -12    1    4    4    0    0  0.20285364756E+02 -0.55749283824E+01  0.38433776902E+02  0.43814735611E+02  0.00000000000E+00 0.  1.
</event>
<event>
12    1  0.8219652E-002  0.2267040E+03  0.7818608E-02  0.1129274E+00
         21   -1    0    0  503  502  0.00000000000E+00  0.00000000000E+00  0.16570960996E+03  0.16570960996E+03  0.00000000000E+00 0. -1.
         21   -1    0    0  501  503 -0.00000000000E+00 -0.00000000000E+00 -0.32307794713E+03  0.32307794713E+03  0.00000000000E+00 0. -1.
          6    2    1    2  501    0  0.43144980759E+02  0.13972290897E+03 -0.13187695774E+03  0.26227131051E+03  0.17323604612E+03 0.  0.
         24    2    3    3    0    0 -0.29149789763E+02  0.65344848453E+02 -0.22264983853E+02  0.11128950845E+03  0.82279801430E+02 0.  0.
         -6    2    1    2    0  502 -0.43144980759E+02 -0.13972290897E+03 -0.25491379433E+02  0.22651624658E+03  0.17110177932E+03 0.  0.
        -24    2    5    5    0    0 -0.70901358796E+02 -0.86021782893E+02 -0.67697121242E+02  0.15264039055E+03  0.79305982059E+02 0.  0.
          5    1    3    3  501    0  0.72294770522E+02  0.74378060519E+02 -0.10961197389E+03  0.15098180205E+03  0.47000000000E+01 0. -1.
        -13    1    4    4    0    0 -0.15969118821E+02  0.84137861037E+02 -0.21616414045E+02  0.88325883930E+02  0.00000000000E+00 0.  1.
         14    1    4    4    0    0 -0.13180670942E+02 -0.18793012584E+02 -0.64856980781E+00  0.22963624524E+02  0.00000000000E+00 0. -1.
         -5    1    5    5    0  502  0.27756378037E+02 -0.53701126079E+02  0.42205741809E+02  0.73875856039E+02  0.47000000000E+01 0.  1.
         11    1    6    6    0    0 -0.62694764238E+02 -0.59839212025E+02 -0.84023704199E+02  0.12071183714E+03  0.00000000000E+00 0. -1.
        -12    1    6    6    0    0 -0.82065945573E+01 -0.26182570868E+02  0.16326582956E+02  0.31928553405E+02  0.00000000000E+00 0.  1.
</event>
<event>
12    1  0.8219652E-002  0.2064310E+03  0.7818608E-02  0.1144656E+00
         21   -1    0    0  501  502  0.00000000000E+00  0.00000000000E+00  0.18853224456E+04  0.18853224456E+04  0.00000000000E+00 0. -1.
         21   -1    0    0  502  503 -0.00000000000E+00 -0.00000000000E+00 -0.64057586427E+02  0.64057586427E+02  0.00000000000E+00 0. -1.
         -6    2    1    2    0  503 -0.19693813570E+02 -0.10899569892E+03  0.12447435700E+03  0.24007848698E+03  0.17284648010E+03 0.  0.
        -24    2    3    3    0    0 -0.59015216102E+02 -0.12888773502E+03  0.10610455345E+03  0.19210552085E+03  0.74508461979E+02 0.  0.
          6    2    1    2  501    0  0.19693813570E+02  0.10899569892E+03  0.16967905022E+04  0.17093015450E+04  0.17420061701E+03 0.  0.
         24    2    5    5    0    0 -0.11834048545E+02  0.12298096380E+03  0.92707907679E+03  0.93880341910E+03  0.81313485549E+02 0.  0.
          5    1    5    5  501    0  0.31527862115E+02 -0.13985264883E+02  0.76971142536E+03  0.77049812593E+03  0.47000000000E+01 0. -1.
        -11    1    6    6    0    0  0.64090417591E+01  0.31924944497E+02  0.76119889322E+02  0.82792001110E+02  0.00000000000E+00 0.  1.
         12    1    6    6    0    0 -0.18243090304E+02  0.91056019307E+02  0.85095918747E+03  0.85601141799E+03  0.00000000000E+00 0. -1.
         -5    1    3    3    0  503  0.39321402532E+02  0.19892036099E+02  0.18369803553E+02  0.47972966136E+02  0.47000000000E+01 0.  1.
         13    1    4    4    0    0 -0.16754569989E+02 -0.11060678792E+03  0.59988819377E+02  0.12693792026E+03  0.00000000000E+00 0. -1.
        -14    1    4    4    0    0 -0.42260646113E+02 -0.18280947096E+02  0.46115734074E+02  0.65167600584E+02  0.00000000000E+00 0.  1.
</event>
<event>
12    1  0.8219652E-002  0.2169250E+03  0.7818608E-02  0.1138360E+00
         21   -1    0    0  501  502  0.00000000000E+00  0.00000000000E+00  0.16113661744E+03  0.16113661744E+03  0.00000000000E+00 0. -1.
         21   -1    0    0  502  503 -0.00000000000E+00 -0.00000000000E+00 -0.29174579964E+03  0.29174579964E+03  0.00000000000E+00 0. -1.
         -6    2    1    2    0  503  0.60211631166E+02 -0.93448457439E+02 -0.13307856498E+02  0.20627329172E+03  0.17324409689E+03 0.  0.
        -24    2    3    3    0    0  0.17650890484E+02 -0.12694862216E+03 -0.33338520493E+01  0.15099898984E+03  0.79762608775E+02 0.  0.
          6    2    1    2  501    0 -0.60211631166E+02  0.93448457439E+02 -0.11730132570E+03  0.24660912536E+03  0.18627507878E+03 0.  0.
         24    2    5    5    0    0 -0.59832680933E+02 -0.16846282420E+02 -0.77024663782E+02  0.12909583786E+03  0.82880574219E+02 0.  0.
          5    1    5    5  501    0 -0.37895023318E+00  0.11029473986E+03 -0.40276661914E+02  0.11751328750E+03  0.47000000000E+01 0. -1.
        -11    1    6    6    0    0 -0.19390037294E+02 -0.76118235340E-01  0.16737855460E+02  0.25615135089E+02  0.00000000000E+00 0.  1.
         12    1    6    6    0    0 -0.40442643639E+02 -0.16770164185E+02 -0.93762519242E+02  0.10348070277E+03  0.00000000000E+00 0. -1.
         -5    1    3    3    0  503  0.42560740682E+02  0.33500164725E+02 -0.99740044486E+01  0.55274301884E+02  0.47000000000E+01 0.  1.
         11    1    4    4    0    0 -0.10407035479E+02 -0.12160438557E+03 -0.67365277820E+01  0.12223466686E+03  0.00000000000E+00 0. -1.
        -12    1    4    4    0    0  0.28057925963E+02 -0.53442365984E+01  0.34026757328E+01  0.28764322977E+02  0.00000000000E+00 0.  1.
</event>
<event>
12    1  0.8219652E-002  0.2255642E+03  0.7818608E-02  0.1130716E+00
         21   -1    0    0  503  502  0.00000000000E+00  0.00000000000E+00  0.21662581874E+03  0.21662581874E+03  0.00000000000E+00 0. -1.
         21   -1    0    0  501  503 -0.00000000000E+00 -0.00000000000E+00 -0.29757762313E+03  0.29757762313E+03  0.00000000000E+00 0. -1.
          6    2    1    2  501    0  0.71469525011E+02  0.11664605447E+03 -0.16362209641E+03  0.27865999074E+03  0.17934604813E+03 0.  0.
         24    2    3    3    0    0  0.66589533991E+02  0.15307554554E+03 -0.11475007576E+03  0.21732903172E+03  0.78727628320E+02 0.  0.
         -6    2    1    2    0  502 -0.71469525011E+02 -0.11664605447E+03  0.82670292019E+02  0.23554345113E+03  0.17300908982E+03 0.  0.
        -24    2    5    5    0    0 -0.62021729547E+02  0.14694558846E+01  0.51907854741E+02  0.11303242235E+03  0.78949660435E+02 0.  0.
          5    1    3    3  501    0  0.48799910204E+01 -0.36429491076E+02 -0.48872020645E+02  0.61330959020E+02  0.47000000000E+01 0. -1.
        -13    1    4    4    0    0  0.17936535865E+02  0.12820168803E+03 -0.87672138590E+02  0.15634511830E+03  0.00000000000E+00 0.  1.
         14    1    4    4    0    0  0.48652998126E+02  0.24873857515E+02 -0.27077937172E+02  0.60983913419E+02  0.00000000000E+00 0. -1.
         -5    1    5    5    0  502 -0.94477954642E+01 -0.11811551035E+03  0.30762437279E+02  0.12251102878E+03  0.47000000000E+01 0.  1.
         11    1    6    6    0    0 -0.58752952172E+02 -0.26743708953E+02  0.14669662785E+02  0.66199202138E+02  0.00000000000E+00 0. -1.
        -12    1    6    6    0    0 -0.32687773752E+01  0.28213164837E+02  0.37238191955E+02  0.46833220216E+02  0.00000000000E+00 0.  1.
</event>
<event>
12    1  0.8219652E-002  0.1728195E+03  0.7818608E-02  0.1175874E+00
         21   -1    0    0  501  502  0.00000000000E+00  0.00000000000E+00  0.77704719757E+02  0.77704719757E+02  0.00000000000E+00 0.  1.
         21   -1    0    0  502  503 -0.00000000000E+00 -0.00000000000E+00 -0.78584307643E+03  0.78584307643E+03  0.00000000000E+00 0.  1.
         -6    2    1    2    0  503  0.53430556273E+01  0.21057725810E+02 -0.66394807244E+03  0.68516801564E+03  0.16779806523E+03 0.  0.
        -24    2    3    3    0    0 -0.42313638968E+02  0.22711643075E+02 -0.58664964635E+03  0.59422279775E+03  0.81465716843E+02 0.  0.
          6    2    1    2  501    0 -0.53430556273E+01 -0.21057725810E+02 -0.44190284226E+02  0.17837978054E+03  0.17144850197E+03 0.  0.
         24    2    5    5    0    0 -0.18023538860E+02 -0.25381746966E+02  0.38377979133E+02  0.94599711744E+02  0.80666939620E+02 0.  0.
          5    1    5    5  501    0  0.12680483233E+02  0.43240211553E+01 -0.82568263358E+02  0.83780068799E+02  0.47000000000E+01 0. -1.
        -11    1    6    6    0    0 -0.17644255544E+02  0.27134125435E+02  0.23556387344E+02  0.40031036728E+02  0.00000000000E+00 0.  1.
         12    1    6    6    0    0 -0.37928331647E+00 -0.52515872401E+02  0.14821591789E+02  0.54568675016E+02  0.00000000000E+00 0. -1.
         -5    1    3    3    0  503  0.47656694595E+02 -0.16539172647E+01 -0.77298426091E+02  0.90945217896E+02  0.47000000000E+01 0.  1.
         13    1    4    4    0    0 -0.66697327558E+02  0.16768154458E+02 -0.39587020782E+03  0.40179960919E+03  0.00000000000E+00 0. -1.
        -14    1    4    4    0    0  0.24383688590E+02  0.59434886165E+01 -0.19077943854E+03  0.19242318856E+03  0.00000000000E+00 0.  1.
</event>
<event>
12    1  0.8219652E-002  0.1770170E+03  0.7818608E-02  0.1172045E+00
         21   -1    0    0  503  502  0.00000000000E+00  0.00000000000E+00  0.24112955280E+03  0.24112955280E+03  0.00000000000E+00 0.  1.
         21   -1    0    0  501  503 -0.00000000000E+00 -0.00000000000E+00 -0.28168035525E+03  0.28168035525E+03  0.00000000000E+00 0.  1.
          6    2    1    2  501    0 -0.35326355770E+02 -0.20572020503E+02 -0.21439312406E+03  0.27470476896E+03  0.16681468463E+03 0.  0.
         24    2    3    3    0    0  0.18499515038E+02 -0.49802519145E+02 -0.68793294800E+02  0.11667614276E+03  0.77834965862E+02 0.  0.
         -6    2    1    2    0  502  0.35326355770E+02  0.20572020503E+02  0.17384232161E+03  0.24810513909E+03  0.17223195935E+03 0.  0.
        -24    2    5    5    0    0  0.32085051651E+02  0.66209976736E+02  0.54230732301E+02  0.11995541651E+03  0.77686022323E+02 0.  0.
          5    1    3    3  501    0 -0.53825870809E+02  0.29230498642E+02 -0.14559982926E+03  0.15802862620E+03  0.47000000000E+01 0. -1.
        -13    1    4    4    0    0 -0.12703666038E+02 -0.28262559935E+01 -0.57764939802E+02  0.59212829049E+02  0.00000000000E+00 0.  1.
         14    1    4    4    0    0  0.31203181077E+02 -0.46976263151E+02 -0.11028354999E+02  0.57463313714E+02  0.00000000000E+00 0. -1.
         -5    1    5    5    0  502  0.32413041195E+01 -0.45637956233E+02  0.11961158931E+03  0.12814972258E+03  0.47000000000E+01 0.  1.
         13    1    6    6    0    0  0.25752685497E+02  0.77682366402E+02  0.63766313818E+02  0.10374918620E+03  0.00000000000E+00 0. -1.
        -14    1    6    6    0    0  0.63323661538E+01 -0.11472389666E+02 -0.95355815162E+01  0.16206230302E+02  0.00000000000E+00 0.  1.
</event>
<event>
12    1  0.8219652E-002  0.2244997E+03  0.7818608E-02  0.1130673E+00
         21   -1    0    0  503  502  0.00000000000E+00  0.00000000000E+00  0.37777839582E+03  0.37777839582E+03  0.00000000000E+00 0. -1.
         21   -1    0    0  501  503 -0.00000000000E+00 -0.00000000000E+00 -0.18631620847E+03  0.18631620847E+03  0.00000000000E+00 0.  1.
          6    2    1    2  501    0 -0.13290093206E+03  0.55255465127E+02  0.24657685980E+03  0.33346704137E+03  0.17229131065E+03 0.  0.
         24    2    3    3    0    0 -0.43076213387E+02  0.46150621419E+02  0.45900912228E+02  0.11336637305E+03  0.82216791333E+02 0.  0.
         -6    2    1    2    0  502  0.13290093206E+03 -0.55255465127E+02 -0.55114672454E+02  0.23062756291E+03  0.17156812491E+03 0.  0.
        -24    2    5    5    0    0  0.53517046143E+02  0.35390085753E+02 -0.25174696624E+02  0.10638220328E+03  0.81036259947E+02 0.  0.
          5    1    3    3  501    0 -0.89824718672E+02  0.91048437081E+01  0.20067594757E+03  0.22010066833E+03  0.47000000000E+01 0. -1.
        -13    1    4    4    0    0 -0.43960569361E+02  0.65315792092E+02  0.20177462772E+02  0.81276161075E+02  0.00000000000E+00 0.  1.
         14    1    4    4    0    0  0.88435597388E+00 -0.19165170673E+02  0.25723449456E+02  0.32090211971E+02  0.00000000000E+00 0. -1.
         -5    1    5    5    0  502  0.79383885916E+02 -0.90645550880E+02 -0.29939975830E+02  0.12424535963E+03  0.47000000000E+01 0.  1.
         11    1    6    6    0    0  0.78352308941E+01 -0.14330238793E+02  0.19488285849E+02  0.25427148333E+02  0.00000000000E+00 0. -1.
        -12    1    6    6    0    0  0.45681815249E+02  0.49720324545E+02 -0.44662982473E+02  0.80955054943E+02  0.00000000000E+00 0.  1.
</event>
<event>
12    1  0.8219652E-002  0.1921285E+03  0.7818608E-02  0.1156689E+00
         21   -1    0    0  503  502  0.00000000000E+00  0.00000000000E+00  0.17343321566E+03  0.17343321566E+03  0.00000000000E+00 0.  1.
         21   -1    0    0  501  503 -0.00000000000E+00 -0.00000000000E+00 -0.22625333926E+03  0.22625333926E+03  0.00000000000E+00 0.  1.
          6    2    1    2  501    0  0.29811768834E+02  0.81516740011E+02 -0.76221819715E+02  0.20613813505E+03  0.17073208385E+03 0.  0.
         24    2    3    3    0    0 -0.42369748543E+01  0.98773367668E+02 -0.99245216401E+02  0.16131319846E+03  0.79988779859E+02 0.  0.
         -6    2    1    2    0  502 -0.29811768834E+02 -0.81516740011E+02  0.23401696114E+02  0.19354841988E+03  0.17140487448E+03 0.  0.
        -24    2    5    5    0    0  0.21099248079E+02 -0.10733914221E+03  0.27375910890E+02  0.13613228555E+03  0.76260664524E+02 0.  0.
          5    1    3    3  501    0  0.34048743688E+02 -0.17256627657E+02  0.23023396686E+02  0.44824936584E+02  0.47000000000E+01 0. -1.
        -11    1    4    4    0    0 -0.35989733996E+02  0.51399299084E+02 -0.78795236768E+02  0.10072655180E+03  0.00000000000E+00 0.  1.
         12    1    4    4    0    0  0.31752759142E+02  0.47374068584E+02 -0.20449979633E+02  0.60586646666E+02  0.00000000000E+00 0. -1.
         -5    1    5    5    0  502 -0.50911016913E+02  0.25822402194E+02 -0.39742147768E+01  0.57416134329E+02  0.47000000000E+01 0.  1.
         11    1    6    6    0    0  0.96111164911E+01 -0.31814848059E+01 -0.19008155176E+02  0.21536140996E+02  0.00000000000E+00 0. -1.
        -12    1    6    6    0    0  0.11488131588E+02 -0.10415765740E+03  0.46384066067E+02  0.11459614456E+03  0.00000000000E+00 0.  1.
</event>
<event>
12    1  0.8219652E-002  0.1778356E+03  0.7818608E-02  0.1170283E+00
         21   -1    0    0  503  502  0.00000000000E+00  0.00000000000E+00  0.11576293002E+03  0.11576293002E+03  0.00000000000E+00 0. -1.
         21   -1    0    0  501  503 -0.00000000000E+00 -0.00000000000E+00 -0.27112987730E+03  0.27112987730E+03  0.00000000000E+00 0. -1.
          6    2    1    2  501    0 -0.28631007521E+02 -0.18201923020E+02 -0.82974213591E+02  0.19488703621E+03  0.17304679184E+03 0.  0.
         24    2    3    3    0    0  0.37631460006E+02 -0.43439295378E+02 -0.70199249086E+02  0.12268641790E+03  0.82588881812E+02 0.  0.
         -6    2    1    2    0  502  0.28631007521E+02  0.18201923020E+02 -0.72392733683E+02  0.19200577111E+03  0.17456936632E+03 0.  0.
        -24    2    5    5    0    0  0.31248249629E+02  0.78526838427E+02 -0.46458035550E+02  0.12612220759E+03  0.81274502286E+02 0.  0.
          5    1    3    3  501    0 -0.66262467526E+02  0.25237372357E+02 -0.12774964505E+02  0.72200618309E+02  0.47000000000E+01 0. -1.
        -13    1    4    4    0    0 -0.21382153066E+02 -0.82780797310E+01  0.20160693181E+01  0.23017115573E+02  0.00000000000E+00 0.  1.
         14    1    4    4    0    0  0.59013613072E+02 -0.35161215647E+02 -0.72215318404E+02  0.99669302324E+02  0.00000000000E+00 0. -1.
         -5    1    5    5    0  502 -0.26172421081E+01 -0.60324915407E+02 -0.25934698133E+02  0.65883563522E+02  0.47000000000E+01 0.  1.
         13    1    6    6    0    0 -0.53023921326E+01  0.27776985077E+02  0.20173630714E+02  0.34736891607E+02  0.00000000000E+00 0. -1.
        -14    1    6    6    0    0  0.36550641761E+02  0.50749853350E+02 -0.66631666264E+02  0.91385315983E+02  0.00000000000E+00 0.  1.
</event>
<event>
12    1  0.8219652E-002  0.2055850E+03  0.7818608E-02  0.1145153E+00
         21   -1    0    0  501  502  0.00000000000E+00  0.00000000000E+00  0.40851306553E+03  0.40851306553E+03  0.00000000000E+00 0. -1.
         21   -1    0    0  502  503 -0.00000000000E+00 -0.00000000000E+00 -0.13437232273E+03  0.13437232273E+03  0.00000000000E+00 0. -1.
         -6    2    1    2    0  503  0.14925042170E+02 -0.11163459623E+03  0.67110434126E+01  0.20569447833E+03  0.17198877972E+03 0.  0.
        -24    2    3    3    0    0  0.40645384657E+02 -0.19661682076E+02  0.45021327800E+02  0.10268806665E+03  0.80494037295E+02 0.  0.
          6    2    1    2  501    0 -0.14925042170E+02  0.11163459623E+03  0.26742969939E+03  0.33719090994E+03  0.17173824754E+03 0.  0.
         24    2    5    5    0    0  0.50075156221E+02  0.10149757002E+03  0.18927607754E+03  0.23492721306E+03  0.80969648114E+02 0.  0.
          5    1    5    5  501    0 -0.65000198391E+02  0.10137026218E+02  0.78153621847E+02  0.10226369688E+03  0.47000000000E+01 0. -1.
        -13    1    6    6    0    0  0.27930838792E+02  0.63834661114E+02  0.42113166821E+02  0.81415689734E+02  0.00000000000E+00 0.  1.
         14    1    6    6    0    0  0.22144317429E+02  0.37662908903E+02  0.14716291072E+03  0.15351152333E+03  0.00000000000E+00 0. -1.
         -5    1    3    3    0  503 -0.25720342487E+02 -0.91972914159E+02 -0.38310284388E+02  0.10300641168E+03  0.47000000000E+01 0.  1.
         13    1    4    4    0    0  0.17097647218E+02 -0.81685608472E+01 -0.22996559789E+02  0.29797595354E+02  0.00000000000E+00 0. -1.
        -14    1    4    4    0    0  0.23547737439E+02 -0.11493121229E+02  0.68017887590E+02  0.72890471299E+02  0.00000000000E+00 0.  1.
</event>
<event>
12    1  0.8219652E-002  0.2754137E+03  0.7818608E-02  0.1098334E+00
         21   -1    0    0  503  502  0.00000000000E+00  0.00000000000E+00  0.73687877909E+03  0.73687877909E+03  0.00000000000E+00 0.  1.
         21   -1    0    0  501  503 -0.00000000000E+00 -0.00000000000E+00 -0.15046031070E+03  0.15046031070E+03  0.00000000000E+00 0.  1.
          6    2    1    2  501    0 -0.15200898038E+03 -0.14973713642E+03  0.43368508100E+02  0.27880736542E+03  0.17414011420E+03 0.  0.
         24    2    3    3    0    0 -0.16340830311E+03 -0.86030130507E+02  0.62032866711E+02  0.21128717996E+03  0.81796937492E+02 0.  0.
         -6    2    1    2    0  502  0.15200898038E+03  0.14973713642E+03  0.54304996029E+03  0.60853172437E+03  0.17285734017E+03 0.  0.
        -24    2    5    5    0    0  0.10911833923E+03  0.35454175201E+02  0.38538705136E+03  0.40908277056E+03  0.75244423824E+02 0.  0.
          5    1    3    3  501    0  0.11399322730E+02 -0.63707005911E+02 -0.18664358611E+02  0.67520185450E+02  0.47000000000E+01 0. -1.
        -13    1    4    4    0    0 -0.89088927962E+02 -0.15585127253E+02  0.60617149612E+02  0.10887686671E+03  0.00000000000E+00 0.  1.
         14    1    4    4    0    0 -0.74319375152E+02 -0.70445003254E+02  0.14157170997E+01  0.10241031326E+03  0.00000000000E+00 0. -1.
         -5    1    5    5    0  502  0.42890641158E+02  0.11428296122E+03  0.15766290893E+03  0.19944895381E+03  0.47000000000E+01 0.  1.
         11    1    6    6    0    0  0.30724712083E+02 -0.23388437766E+02  0.92793817507E+02  0.10050731078E+03  0.00000000000E+00 0. -1.
        -12    1    6    6    0    0  0.78393627144E+02  0.58842612966E+02  0.29259323385E+03  0.30857545977E+03  0.00000000000E+00 0.  1.
</event>
<event>
12    1  0.8219652E-002  0.2718649E+03  0.7818608E-02  0.1100244E+00
         21   -1    0    0  503  502  0.00000000000E+00  0.00000000000E+00  0.14267781491E+03  0.14267781491E+03  0.00000000000E+00 0. -1.
         21   -1    0    0  501  503 -0.00000000000E+00 -0.00000000000E+00 -0.75908767506E+03  0.75908767506E+03  0.00000000000E+00 0.  1.
          6    2    1    2  501    0 -0.51851844683E+02 -0.20497001487E+03 -0.56255619528E+03  0.62480395244E+03  0.17090694938E+03 0.  0.
         24    2    3    3    0    0 -0.62307603275E+02 -0.10995816833E+03 -0.46468025666E+03  0.48791581113E+03  0.78492430286E+02 0.  0.
         -6    2    1    2    0  502  0.51851844683E+02  0.20497001487E+03 -0.53853664871E+02  0.27696153753E+03  0.17060526152E+03 0.  0.
        -24    2    5    5    0    0 -0.19810491587E+02  0.91659448641E+02  0.17838097421E+02  0.12485442514E+03  0.80476826825E+02 0.  0.
          5    1    3    3  501    0  0.10455758592E+02 -0.95011846543E+02 -0.97875938613E+02  0.13688814131E+03  0.47000000000E+01 0. -1.
        -11    1    4    4    0    0 -0.95634399819E+01 -0.51930813954E+02 -0.31030842268E+03  0.31476909951E+03  0.00000000000E+00 0.  1.
         12    1    4    4    0    0 -0.52744163293E+02 -0.58027354377E+02 -0.15437183399E+03  0.17314671162E+03  0.00000000000E+00 0. -1.
         -5    1    5    5    0  502  0.71662336270E+02  0.11331056623E+03 -0.71691762291E+02  0.15210711239E+03  0.47000000000E+01 0.  1.
         11    1    6    6    0    0 -0.41062214175E+01  0.96768549816E+02  0.33112297084E+02  0.10235935476E+03  0.00000000000E+00 0. -1.
        -12    1    6    6    0    0 -0.15704270170E+02 -0.51091011746E+01 -0.15274199663E+02  0.22495070387E+02  0.00000000000E+00 0.  1.
</event>
<event>
12    1  0.8219652E-002  0.2042032E+03  0.7818608E-02  0.1146958E+00
         21   -1    0    0  501  502  0.00000000000E+00  0.00000000000E+00  0.83709978022E+03  0.83709978022E+03  0.00000000000E+00 0. -1.
         21   -1    0    0  502  503 -0.00000000000E+00 -0.00000000000E+00 -0.75899815540E+02  0.75899815540E+02  0.00000000000E+00 0. -1.
         -6    2    1    2    0  503 -0.10367334043E+03  0.34179964157E+02  0.11080129597E+03  0.23232707059E+03  0.17257609647E+03 0.  0.
        -24    2    3    3    0    0 -0.52012428649E+02 -0.41564863681E+02  0.90929277666E+02  0.13839562824E+03  0.80326121232E+02 0.  0.
          6    2    1    2  501    0  0.10367334043E+03 -0.34179964157E+02  0.65039866871E+03  0.68067252517E+03  0.16846431906E+03 0.  0.
         24    2    5    5    0    0  0.33882412826E+02 -0.73452961635E+02  0.30238450775E+03  0.32353237322E+03  0.81813510634E+02 0.  0.
          5    1    5    5  501    0  0.69790927600E+02  0.39272997478E+02  0.34801416096E+03  0.35714015195E+03  0.47000000000E+01 0. -1.
        -13    1    6    6    0    0  0.27762849465E+02 -0.87763903991E+02  0.28794848107E+03  0.30230383127E+03  0.00000000000E+00 0.  1.
         14    1    6    6    0    0  0.61195633612E+01  0.14310942356E+02  0.14436026689E+02  0.21228541952E+02  0.00000000000E+00 0. -1.
         -5    1    3    3    0  503 -0.51660911777E+02  0.75744827838E+02  0.19872018300E+02  0.93931442346E+02  0.47000000000E+01 0.  1.
         11    1    4    4    0    0 -0.90808200733E+01 -0.56471081751E+02  0.38177107512E+02  0.68767258963E+02  0.00000000000E+00 0. -1.
        -12    1    4    4    0    0 -0.42931608576E+02  0.14906218070E+02  0.52752170154E+02  0.69628369276E+02  0.00000000000E+00 0.  1.
</event>
<event>
12    1  0.8219652E-002  0.2359098E+03  0.7818608E-02  0.1122977E+00
         21   -1    0    0  501  502  0.00000000000E+00  0.00000000000E+00  0.10991334311E+03  0.10991334311E+03  0.00000000000E+00 0.  1.
         21   -1    0    0  502  503 -0.00000000000E+00 -0.00000000000E+00 -0.50500520108E+03  0.50500520108E+03  0.00000000000E+00 0. -1.
         -6    2    1    2    0  503 -0.15447555918E+03  0.45771153785E+02 -0.16905293126E+03  0.28819690334E+03  0.16888121454E+03 0.  0.
        -24    2    3    3    0    0 -0.36141685592E+02 -0.20499839395E+02 -0.28790943598E+02  0.93029628014E+02  0.78096916729E+02 0.  0.
          6    2    1    2  501    0  0.15447555918E+03 -0.45771153785E+02 -0.22603892671E+03  0.32672164085E+03  0.17232451162E+03 0.  0.
         24    2    5    5    0    0  0.13372672903E+03 -0.16857244719E+01 -0.85462925241E+02  0.17786687532E+03  0.80293424524E+02 0.  0.
          5    1    5    5  501    0  0.20748830150E+02 -0.44085429313E+02 -0.14057600147E+03  0.14885476553E+03  0.47000000000E+01 0. -1.
        -11    1    6    6    0    0  0.13330921441E+03 -0.20176080115E+02 -0.63145373346E+02  0.14888169475E+03  0.00000000000E+00 0.  1.
         12    1    6    6    0    0  0.41751461681E+00  0.18490355643E+02 -0.22317551895E+02  0.28985180573E+02  0.00000000000E+00 0. -1.
         -5    1    3    3    0  503 -0.11833387359E+03  0.66270993180E+02 -0.14026198766E+03  0.19516727532E+03  0.47000000000E+01 0.  1.
         11    1    4    4    0    0 -0.17258424153E+02  0.17896366141E+02 -0.41514168722E+02  0.48389661396E+02  0.00000000000E+00 0. -1.
        -12    1    4    4    0    0 -0.18883261439E+02 -0.38396205536E+02  0.12723225124E+02  0.44639966618E+02  0.00000000000E+00 0.  1.
</event>
<event>
12    1  0.8219652E-002  0.2585673E+03  0.7818608E-02  0.1108090E+00
         21   -1    0    0  501  502  0.00000000000E+00  0.00000000000E+00  0.15872566542E+04  0.15872566542E+04  0.00000000000E+00 0. -1.
         21   -1    0    0  502  503 -0.00000000000E+00 -0.00000000000E+00 -0.22926268171E+03  0.22926268171E+03  0.00000000000E+00 0.  1.
         -6    2    1    2    0  503 -0.85947419152E+02 -0.17288841908E+03 -0.14166051866E+03  0.29483001996E+03  0.17198742341E+03 0.  0.
        -24    2    3    3    0    0 -0.39268802538E+02 -0.18485357900E+03 -0.90261424836E+02  0.22421829893E+03  0.80086429806E+02 0.  0.
          6    2    1    2  501    0  0.85947419152E+02  0.17288841908E+03  0.14996544912E+04  0.15216893160E+04  0.17116488284E+03 0.  0.
         24    2    5    5    0    0  0.65517768549E+02  0.13953342810E+03  0.70629862869E+03  0.72735592212E+03  0.80166882155E+02 0.  0.
          5    1    5    5  501    0  0.20429650603E+02  0.33354990974E+02  0.79335586250E+03  0.79433339387E+03  0.47000000000E+01 0. -1.
        -11    1    6    6    0    0 -0.24970752773E+01  0.28825625092E+02  0.45616835746E+02  0.54018957324E+02  0.00000000000E+00 0.  1.
         12    1    6    6    0    0  0.68014843826E+02  0.11070780301E+03  0.66068179295E+03  0.67333696480E+03  0.00000000000E+00 0. -1.
         -5    1    3    3    0  503 -0.46678616614E+02  0.11965159922E+02 -0.51399093828E+02  0.70611721033E+02  0.47000000000E+01 0.  1.
         13    1    4    4    0    0 -0.20720805427E+02 -0.43294575439E+02  0.10928164609E+02  0.49225977102E+02  0.00000000000E+00 0. -1.
        -14    1    4    4    0    0 -0.18547997111E+02 -0.14155900356E+03 -0.10118958944E+03  0.17499232183E+03  0.00000000000E+00 0.  1.
</event>
<event>
12    1  0.8219652E-002  0.1880513E+03  0.7818608E-02  0.1160285E+00
         21   -1    0    0  501  502  0.00000000000E+00  0.00000000000E+00  0.57036435422E+02  0.57036435422E+02  0.00000000000E+00 0. -1.
         21   -1    0    0  502  503 -0.00000000000E+00 -0.00000000000E+00 -0.61988801755E+03  0.61988801755E+03  0.00000000000E+00 0.  1.
         -6    2    1    2    0  503  0.75660257391E+02 -0.10238578946E+02 -0.27028269901E+03  0.32913165337E+03  0.17159721681E+03 0.  0.
        -24    2    3    3    0    0 -0.26465406130E+02 -0.51599554070E+01 -0.10595162968E+03  0.13552836333E+03  0.80094610140E+02 0.  0.
          6    2    1    2  501    0 -0.75660257391E+02  0.10238578946E+02 -0.29256888312E+03  0.34779279961E+03  0.17185452290E+03 0.  0.
         24    2    5    5    0    0 -0.57769205484E+02 -0.20890906147E+02 -0.69733698628E+02  0.12203464576E+03  0.79094595134E+02 0.  0.
          5    1    5    5  501    0 -0.17891051907E+02  0.31129485093E+02 -0.22283518449E+03  0.22575815385E+03  0.47000000000E+01 0. -1.
        -13    1    6    6    0    0 -0.26762970626E+02 -0.49150625592E+02 -0.52318787617E+02  0.76611331607E+02  0.00000000000E+00 0.  1.
         14    1    6    6    0    0 -0.31006234857E+02  0.28259719445E+02 -0.17414911010E+02  0.45423314153E+02  0.00000000000E+00 0. -1.
         -5    1    3    3    0  503  0.10212566352E+03 -0.50786235388E+01 -0.16433106933E+03  0.19360329004E+03  0.47000000000E+01 0.  1.
         11    1    4    4    0    0 -0.10227445814E+01 -0.11063665010E+02 -0.10869923256E+03  0.10926561147E+03  0.00000000000E+00 0. -1.
        -12    1    4    4    0    0 -0.25442661549E+02  0.59037096031E+01  0.27476028813E+01  0.26262751862E+02  0.00000000000E+00 0.  1.
</event>
<event>
12    1  0.8219652E-002  0.1787904E+03  0.7818608E-02  0.1169413E+00
         21   -1    0    0  503  502  0.00000000000E+00  0.00000000000E+00  0.47204596335E+03  0.47204596335E+03  0.00000000000E+00 0. -1.
         21   -1    0    0  501  503 -0.00000000000E+00 -0.00000000000E+00 -0.86576350197E+02  0.86576350197E+02  0.00000000000E+00 0. -1.
          6    2    1    2  501    0 -0.32393046137E+02  0.35593142718E+02  0.60829248189E+02  0.18885496101E+03  0.17219122398E+03 0.  0.
         24    2    3    3    0    0 -0.35850870465E+02  0.55030393554E+02 -0.18706299390E+02  0.10677112217E+03  0.82076292346E+02 0.  0.
         -6    2    1    2    0  502  0.32393046137E+02 -0.35593142718E+02  0.32464036496E+03  0.36976735254E+03  0.17035359460E+03 0.  0.
        -24    2    5    5    0    0  0.64009648204E+02  0.10117290365E+02  0.12450930193E+03  0.16200887351E+03  0.80899407915E+02 0.  0.
          5    1    3    3  501    0  0.34578243275E+01 -0.19437250836E+02  0.79535547579E+02  0.82083838834E+02  0.47000000000E+01 0. -1.
        -11    1    4    4    0    0 -0.48375769019E+02  0.67058430519E+02 -0.20540677518E+01  0.82711953950E+02  0.00000000000E+00 0.  1.
         12    1    4    4    0    0  0.12524898555E+02 -0.12028036965E+02 -0.16652231638E+02  0.24059168222E+02  0.00000000000E+00 0. -1.
         -5    1    5    5    0  502 -0.31616602067E+02 -0.45710433084E+02  0.20013106303E+03  0.20775847903E+03  0.47000000000E+01 0.  1.
         11    1    6    6    0    0  0.34127482870E+02  0.36903617812E+02  0.10701331257E+03  0.11823033097E+03  0.00000000000E+00 0. -1.
        -12    1    6    6    0    0  0.29882165334E+02 -0.26786327447E+02  0.17495989365E+02  0.43778542541E+02  0.00000000000E+00 0.  1.
</event>
<event>
12    1  0.8219652E-002  0.1820050E+03  0.7818608E-02  0.1165996E+00
         21   -1    0    0  501  502  0.00000000000E+00  0.00000000000E+00  0.18479213568E+04  0.18479213568E+04  0.00000000000E+00 0. -1.
         21   -1    0    0  502  503 -0.00000000000E+00 -0.00000000000E+00 -0.18758964131E+02  0.18758964131E+02  0.00000000000E+00 0. -1.
         -6    2    1    2    0  503 -0.57212311160E+02 -0.13031690133E+02  0.71338883099E+03  0.73624007111E+03  0.17228680922E+03 0.  0.
        -24    2    3    3    0    0  0.15549991961E+02  0.41422943304E+02  0.38315465766E+03  0.39369611905E+03  0.78939723752E+02 0.  0.
          6    2    1    2  501    0  0.57212311160E+02  0.13031690133E+02  0.11157735617E+04  0.11304402498E+04  0.17175984391E+03 0.  0.
         24    2    5    5    0    0  0.63107102916E+02  0.68618018302E+02  0.69228890118E+03  0.70325652339E+03  0.81331888709E+02 0.  0.
          5    1    5    5  501    0 -0.58947917562E+01 -0.55586328169E+02  0.42348466048E+03  0.42718372641E+03  0.47000000000E+01 0. -1.
        -11    1    6    6    0    0 -0.67165944627E+01  0.32991603804E+00  0.25939261811E+03  0.25947977150E+03  0.00000000000E+00 0.  1.
         12    1    6    6    0    0  0.69823697379E+02  0.68288102264E+02  0.43289628306E+03  0.44377675189E+03  0.00000000000E+00 0. -1.
         -5    1    3    3    0  503 -0.72762303122E+02 -0.54454633437E+02  0.33023417333E+03  0.34254395206E+03  0.47000000000E+01 0.  1.
         13    1    4    4    0    0 -0.31409851526E+02  0.78423839417E+01  0.15562145684E+03  0.15895319936E+03  0.00000000000E+00 0. -1.
        -14    1    4    4    0    0  0.46959843487E+02  0.33580559362E+02  0.22753320082E+03  0.23474291968E+03  0.00000000000E+00 0.  1.
</event>
<event>
12    1  0.8219652E-002  0.1752297E+03  0.7818608E-02  0.1172799E+00
         21   -1    0    0  501  502  0.00000000000E+00  0.00000000000E+00  0.10241767294E+03  0.10241767294E+03  0.00000000000E+00 0. -1.
         21   -1    0    0  502  503 -0.00000000000E+00 -0.00000000000E+00 -0.34380968209E+03  0.34380968209E+03  0.00000000000E+00 0. -1.
         -6    2    1    2    0  503 -0.38170390079E+02 -0.70386537190E+01 -0.20268030114E+03  0.26792673891E+03  0.17087689027E+03 0.  0.
        -24    2    3    3    0    0 -0.85978955155E+02  0.40026402340E+00 -0.13124743219E+03  0.18152221844E+03  0.91279167339E+02 0.  0.
          6    2    1    2  501    0  0.38170390079E+02  0.70386537190E+01 -0.38711708013E+02  0.17830061612E+03  0.16966435114E+03 0.  0.
         24    2    5    5    0    0  0.78781986747E+02  0.42316929960E+02 -0.34318847336E+02  0.12412270749E+03  0.78938832240E+02 0.  0.
          5    1    5    5  501    0 -0.40611596668E+02 -0.35278276241E+02 -0.43928606767E+01  0.54177908629E+02  0.47000000000E+01 0. -1.
        -11    1    6    6    0    0 -0.11587208984E+02  0.18993356437E+02  0.50727354006E+01  0.22819808177E+02  0.00000000000E+00 0.  1.
         12    1    6    6    0    0  0.90369195731E+02  0.23323573523E+02 -0.39391582737E+02  0.10130289931E+03  0.00000000000E+00 0. -1.
         -5    1    3    3    0  503  0.47808565075E+02 -0.74389177424E+01 -0.71432868949E+02  0.86404520472E+02  0.47000000000E+01 0.  1.
         13    1    4    4    0    0 -0.74681963386E+02  0.25456132416E+02 -0.13227319150E+03  0.15401820517E+03  0.00000000000E+00 0. -1.
        -14    1    4    4    0    0 -0.11296991769E+02 -0.25055868393E+02  0.10257593122E+01  0.27504013273E+02  0.00000000000E+00 0.  1.
</event>
<event>
12    1  0.8219652E-002  0.1895850E+03  0.7818608E-02  0.1159207E+00
         21   -1    0    0  501  502  0.00000000000E+00  0.00000000000E+00  0.67236618041E+03  0.67236618041E+03  0.00000000000E+00 0. -1.
         21   -1    0    0  502  503 -0.00000000000E+00 -0.00000000000E+00 -0.11227537393E+03  0.11227537393E+03  0.00000000000E+00 0.  1.
         -6    2    1    2    0  503 -0.13284462957E+02  0.74631265852E+02 -0.55887763129E+01  0.18803796289E+03  0.17199051796E+03 0.  0.
        -24    2    3    3    0    0 -0.52139837287E+02  0.80704779310E+02  0.35508971981E+02  0.13096132499E+03  0.81597533756E+02 0.  0.
          6    2    1    2  501    0  0.13284462957E+02 -0.74631265852E+02  0.56567958279E+03  0.59660359145E+03  0.17377040066E+03 0.  0.
         24    2    5    5    0    0  0.40623588990E+02 -0.75339025331E+02  0.21685482190E+03  0.24667683833E+03  0.80605235989E+02 0.  0.
          5    1    5    5  501    0 -0.27339126033E+02  0.70775947915E+00  0.34882476090E+03  0.34992675312E+03  0.47000000000E+01 0. -1.
        -11    1    6    6    0    0  0.18756745797E+01  0.52171496458E+01 -0.50153118101E+01  0.74759720511E+01  0.00000000000E+00 0.  1.
         12    1    6    6    0    0  0.38747914410E+02 -0.80556174977E+02  0.22187013371E+03  0.23920086628E+03  0.00000000000E+00 0. -1.
         -5    1    3    3    0  503  0.38855374330E+02 -0.60735134578E+01 -0.41097748294E+02  0.57076637908E+02  0.47000000000E+01 0.  1.
         13    1    4    4    0    0 -0.32322752075E+02  0.91013206320E+02  0.10068554420E+02  0.97105817614E+02  0.00000000000E+00 0. -1.
        -14    1    4    4    0    0 -0.19817085211E+02 -0.10308427010E+02  0.25440417561E+02  0.33855507371E+02  0.00000000000E+00 0.  1.
</event>
<event>
12    1  0.8219652E-002  0.1944669E+03  0.7818608E-02  0.1155083E+00
         21   -1    0    0  503  502  0.00000000000E+00  0.00000000000E+00  0.22410783265E+03  0.22410783265E+03  0.00000000000E+00 0. -1.
         21   -1    0    0  501  503 -0.00000000000E+00 -0.00000000000E+00 -0.27347020061E+03  0.27347020061E+03  0.00000000000E+00 0. -1.
          6    2    1    2  501    0 -0.74765597063E+02 -0.52345564763E+02 -0.18043151546E+03  0.26527894892E+03  0.17171906216E+03 0.  0.
         24    2    3    3    0    0 -0.13410391668E+02 -0.85561024381E+02 -0.12358488815E+03  0.17516037689E+03  0.88923593919E+02 0.  0.
         -6    2    1    2    0  502  0.74765597063E+02  0.52345564763E+02  0.13106914750E+03  0.23229908434E+03  0.16868251392E+03 0.  0.
        -24    2    5    5    0    0  0.26016047829E+02 -0.28577108864E+02  0.79773247323E+02  0.12469631006E+03  0.87703551003E+02 0.  0.
          5    1    3    3  501    0 -0.61355205395E+02  0.33215459618E+02 -0.56846627318E+02  0.90118572027E+02  0.47000000000E+01 0. -1.
        -11    1    4    4    0    0 -0.13751928441E+02  0.13430192955E+02 -0.35078724392E+01  0.19539467437E+02  0.00000000000E+00 0.  1.
         12    1    4    4    0    0  0.34153677347E+00 -0.98991217337E+02 -0.12007701571E+03  0.15562090945E+03  0.00000000000E+00 0. -1.
         -5    1    5    5    0  502  0.48749549234E+02  0.80922673627E+02  0.51295900179E+02  0.10760277428E+03  0.47000000000E+01 0.  1.
         13    1    6    6    0    0  0.50798617149E+02  0.52022828423E+01  0.28485779108E+02  0.58472240101E+02  0.00000000000E+00 0. -1.
        -14    1    6    6    0    0 -0.24782569319E+02 -0.33779391706E+02  0.51287468215E+02  0.66224069959E+02  0.00000000000E+00 0.  1.
</event>
<event>
12    1  0.8219652E-002  0.1939128E+03  0.7818608E-02  0.1155333E+00
         21   -1    0    0  501  502  0.00000000000E+00  0.00000000000E+00  0.12544650607E+04  0.12544650607E+04  0.00000000000E+00 0.  1.
         21   -1    0    0  502  503 -0.00000000000E+00 -0.00000000000E+00 -0.16189072255E+03  0.16189072255E+03  0.00000000000E+00 0.  1.
         -6    2    1    2    0  503  0.80684457936E+02  0.38372240684E+02 -0.93992320283E+02  0.21404858795E+03  0.17029336782E+03 0.  0.
        -24    2    3    3    0    0  0.72917087261E+02  0.54412653054E+02 -0.19327991424E+01  0.12016210165E+03  0.78470099619E+02 0.  0.
          6    2    1    2  501    0 -0.80684457936E+02 -0.38372240684E+02  0.11865666584E+04  0.12023071953E+04  0.17210388246E+03 0.  0.
         24    2    5    5    0    0 -0.54868621394E+02 -0.50070093250E+02  0.11530576624E+04  0.11581683237E+04  0.79336708891E+02 0.  0.
          5    1    5    5  501    0 -0.25815836542E+02  0.11697852565E+02  0.33508996084E+02  0.44138871638E+02  0.47000000000E+01 0. -1.
        -13    1    6    6    0    0 -0.32870058819E+02 -0.25365557954E+02  0.18740218925E+03  0.19194643220E+03  0.00000000000E+00 0.  1.
         14    1    6    6    0    0 -0.21998562575E+02 -0.24704535295E+02  0.96565547311E+03  0.96622189148E+03  0.00000000000E+00 0. -1.
         -5    1    3    3    0  503  0.77673706750E+01 -0.16040412370E+02 -0.92059521141E+02  0.93886486295E+02  0.47000000000E+01 0.  1.
         11    1    4    4    0    0  0.13638395170E+01  0.43105800653E+02  0.15191107272E+02  0.45724608783E+02  0.00000000000E+00 0. -1.
        -12    1    4    4    0    0  0.71553247744E+02  0.11306852401E+02 -0.17123906415E+02  0.74437492870E+02  0.00000000000E+00 0.  1.
</event>
<event>
12    1  0.8219652E-002  0.1784900E+03  0.7818608E-02  0.1169782E+00
         21   -1    0    0  503  502  0.00000000000E+00  0.00000000000E+00  0.22570407817E+03  0.22570407817E+03  0.00000000000E+00 0. -1.
         21   -1    0    0  501  503 -0.00000000000E+00 -0.00000000000E+00 -0.19126002179E+03  0.19126002179E+03  0.00000000000E+00 0. -1.
          6    2    1    2  501    0 -0.58677047639E+01  0.43368908452E+02 -0.91283501205E+02  0.19863844754E+03  0.17090717676E+03 0.  0.
         24    2    3    3    0    0  0.79272033342E+01  0.73700399813E+02 -0.10186819830E+02  0.11083719135E+03  0.81771157528E+02 0.  0.
         -6    2    1    2    0  502  0.58677047639E+01 -0.43368908452E+02  0.12572755759E+03  0.21832565242E+03  0.17304155451E+03 0.  0.
        -24    2    5    5    0    0  0.11194574885E+02 -0.43077289440E+02 -0.23120083048E+01  0.90088836254E+02  0.78292283546E+02 0.  0.
          5    1    3    3  501    0 -0.13794908098E+02 -0.30331491360E+02 -0.81096681375E+02  0.87801256185E+02  0.47000000000E+01 0. -1.
        -13    1    4    4    0    0 -0.25111643100E+02 -0.39717896379E+01  0.22317575555E+01  0.25521568797E+02  0.00000000000E+00 0.  1.
         14    1    4    4    0    0  0.33038846434E+02  0.77672189451E+02 -0.12418577385E+02  0.85315622555E+02  0.00000000000E+00 0. -1.
         -5    1    5    5    0  502 -0.53268701207E+01 -0.29161901192E+00  0.12803956589E+03  0.12823681617E+03  0.47000000000E+01 0.  1.
         13    1    6    6    0    0 -0.13624377025E+01 -0.52328517201E+02  0.25480923639E+02  0.58218617456E+02  0.00000000000E+00 0. -1.
        -14    1    6    6    0    0  0.12557012587E+02  0.92512277606E+01 -0.27792931944E+02  0.31870218798E+02  0.00000000000E+00 0.  1.
</event>
<event>
12    1  0.8219652E-002  0.1992437E+03  0.7818608E-02  0.1153869E+00
         21   -1    0    0  501  502  0.00000000000E+00  0.00000000000E+00  0.12020397613E+04  0.12020397613E+04  0.00000000000E+00 0. -1.
         21   -1    0    0  502  503 -0.00000000000E+00 -0.00000000000E+00 -0.30489776531E+02  0.30489776531E+02  0.00000000000E+00 0. -1.
         -6    2    1    2    0  503 -0.59144697505E+02 -0.22470175590E+02  0.57902056776E+03  0.60739823132E+03  0.17223469305E+03 0.  0.
        -24    2    3    3    0    0 -0.97319723376E+02  0.99921824726E+01  0.33252292584E+03  0.35581461746E+03  0.80383913328E+02 0.  0.
          6    2    1    2  501    0  0.59144697505E+02  0.22470175590E+02  0.59252941701E+03  0.62513130651E+03  0.18893130053E+03 0.  0.
         24    2    5    5    0    0  0.55501839425E+02  0.93389864218E+02  0.38497633922E+03  0.40571562167E+03  0.67795744671E+02 0.  0.
          5    1    5    5  501    0  0.36428580804E+01 -0.70919688628E+02  0.20755307780E+03  0.21941568484E+03  0.47000000000E+01 0. -1.
        -13    1    6    6    0    0  0.63306318541E+02  0.52921419871E+02  0.20296144285E+03  0.21909293447E+03  0.00000000000E+00 0.  1.
         14    1    6    6    0    0 -0.78044791160E+01  0.40468444347E+02  0.18201489636E+03  0.18662268721E+03  0.00000000000E+00 0. -1.
         -5    1    3    3    0  503  0.38175025871E+02 -0.32462358062E+02  0.24649764192E+03  0.25158361386E+03  0.47000000000E+01 0.  1.
         11    1    4    4    0    0 -0.25348808803E+01  0.29018754697E+02  0.61094816329E+02  0.67683752315E+02  0.00000000000E+00 0. -1.
        -12    1    4    4    0    0 -0.94784842496E+02 -0.19026572224E+02  0.27142810951E+03  0.28813086515E+03  0.00000000000E+00 0.  1.
</event>
<event>
12    1  0.8219652E-002  0.2207084E+03  0.7818608E-02  0.1133494E+00
         21   -1    0    0  503  502  0.00000000000E+00  0.00000000000E+00  0.93795790320E+03  0.93795790320E+03  0.00000000000E+00 0. -1.
         21   -1    0    0  501  503 -0.00000000000E+00 -0.00000000000E+00 -0.80400447172E+02  0.80400447172E+02  0.00000000000E+00 0. -1.
          6    2    1    2  501    0 -0.57497389100E+02 -0.12532587844E+03  0.12440900577E+03  0.25270904282E+03  0.17138183698E+03 0.  0.
         24    2    3    3    0    0  0.36416532341E+02 -0.58113992807E+02  0.54506788525E+02  0.11763250086E+03  0.78504874221E+02 0.  0.
         -6    2    1    2    0  502  0.57497389100E+02  0.12532587844E+03  0.73314845026E+03  0.76564930756E+03  0.17233596979E+03 0.  0.
        -24    2    5    5    0    0  0.74391542436E+02  0.12218867981E+03  0.73084036407E+03  0.74768624284E+03  0.66655119194E+02 0.  0.
          5    1    3    3  501    0 -0.93913921442E+02 -0.67211885630E+02  0.69902217241E+02  0.13507654195E+03  0.47000000000E+01 0. -1.
        -13    1    4    4    0    0  0.16237245117E+02  0.13997190602E+02 -0.49680593512E+01  0.22005705793E+02  0.00000000000E+00 0.  1.
         14    1    4    4    0    0  0.20179287224E+02 -0.72111183409E+02  0.59474847877E+02  0.95626795070E+02  0.00000000000E+00 0. -1.
         -5    1    5    5    0  502 -0.16894153336E+02  0.31371986241E+01  0.23080861894E+01  0.17963064717E+02  0.47000000000E+01 0.  1.
         11    1    6    6    0    0  0.40901009610E+02  0.31683683443E+02  0.14506377516E+03  0.15401378915E+03  0.00000000000E+00 0. -1.
        -12    1    6    6    0    0  0.33490532827E+02  0.90504996369E+02  0.58577658891E+03  0.59367245369E+03  0.00000000000E+00 0.  1.
</event>
<event>
12    1  0.8219652E-002  0.2362095E+03  0.7818608E-02  0.1122636E+00
         21   -1    0    0  501  502  0.00000000000E+00  0.00000000000E+00  0.11330136887E+04  0.11330136887E+04  0.00000000000E+00 0. -1.
         21   -1    0    0  502  503 -0.00000000000E+00 -0.00000000000E+00 -0.49805825295E+02  0.49805825295E+02  0.00000000000E+00 0. -1.
         -6    2    1    2    0  503 -0.10557916767E+03  0.12076671761E+03  0.62380527812E+03  0.66702920359E+03  0.17338792551E+03 0.  0.
        -24    2    3    3    0    0 -0.13258759839E+03  0.10799224119E+03  0.59514010063E+03  0.62535877070E+03  0.87407421345E+02 0.  0.
          6    2    1    2  501    0  0.10557916767E+03 -0.12076671761E+03  0.45940258529E+03  0.51579031040E+03  0.17104779509E+03 0.  0.
         24    2    5    5    0    0  0.11066110163E+03 -0.31584951993E+02  0.32958069989E+03  0.35813554422E+03  0.79963377153E+02 0.  0.
          5    1    5    5  501    0 -0.50819339538E+01 -0.89181765622E+02  0.12982188539E+03  0.15765476618E+03  0.47000000000E+01 0. -1.
        -11    1    6    6    0    0  0.50753211728E+02  0.20930089504E+02  0.87634064183E+02  0.10341028166E+03  0.00000000000E+00 0.  1.
         12    1    6    6    0    0  0.59907889900E+02 -0.52515041497E+02  0.24194663571E+03  0.25472526256E+03  0.00000000000E+00 0. -1.
         -5    1    3    3    0  503  0.27008430714E+02  0.12774476424E+02  0.28665177487E+02  0.41670432897E+02  0.47000000000E+01 0.  1.
         13    1    4    4    0    0 -0.35182230297E+02  0.20190425609E+02  0.29560532580E+03  0.29837552054E+03  0.00000000000E+00 0. -1.
        -14    1    4    4    0    0 -0.97405368090E+02  0.87801815582E+02  0.29953477483E+03  0.32698325016E+03  0.00000000000E+00 0.  1.
</event>
<event>
12    1  0.8219652E-002  0.1843702E+03  0.7818608E-02  0.1165962E+00
         21   -1    0    0  501  502  0.00000000000E+00  0.00000000000E+00  0.78040613449E+03  0.78040613449E+03  0.00000000000E+00 0. -1.
         21   -1    0    0  502  503 -0.00000000000E+00 -0.00000000000E+00 -0.42372637017E+02  0.42372637017E+02  0.00000000000E+00 0.  1.
         -6    2    1    2    0  503  0.24781282712E+02 -0.27228870616E+02  0.31362461226E+03  0.36380318670E+03  0.18065668510E+03 0.  0.
        -24    2    3    3    0    0 -0.54515984915E+02 -0.40264195061E+02  0.18836045698E+03  0.21490330445E+03  0.78170138128E+02 0.  0.
          6    2    1    2  501    0 -0.24781282712E+02  0.27228870616E+02  0.42440888522E+03  0.45897558481E+03  0.17082201916E+03 0.  0.
         24    2    5    5    0    0  0.49445780520E+02 -0.33276372357E+00  0.23546047637E+03  0.25405391244E+03  0.81588960934E+02 0.  0.
          5    1    5    5  501    0 -0.74227063233E+02  0.27561634340E+02  0.18894840884E+03  0.20492167237E+03  0.47000000000E+01 0. -1.
        -11    1    6    6    0    0  0.29031559946E+02 -0.40758771384E+02  0.11859350072E+03  0.12871879168E+03  0.00000000000E+00 0.  1.
         12    1    6    6    0    0  0.20414220575E+02  0.40426007661E+02  0.11686697565E+03  0.12533512076E+03  0.00000000000E+00 0. -1.
         -5    1    3    3    0  503  0.79297267627E+02  0.13035324445E+02  0.12526415528E+03  0.14889988225E+03  0.47000000000E+01 0.  1.
         11    1    4    4    0    0 -0.48040544637E+01  0.52093820348E+01  0.11531097326E+03  0.11552851230E+03  0.00000000000E+00 0. -1.
        -12    1    4    4    0    0 -0.49711930451E+02 -0.45473577096E+02  0.73049483723E+02  0.99374792152E+02  0.00000000000E+00 0.  1.
</event>
<event>
12    1  0.8219652E-002  0.1872691E+03  0.7818608E-02  0.1161681E+00
         21   -1    0    0  503  502  0.00000000000E+00  0.00000000000E+00  0.40123098365E+02  0.40123098365E+02  0.00000000000E+00 0.  1.
         21   -1    0    0  501  503 -0.00000000000E+00 -0.00000000000E+00 -0.87046538021E+03  0.87046538021E+03  0.00000000000E+00 0.  1.
          6    2    1    2  501    0  0.30569898392E+02 -0.66326238809E+02 -0.46311938553E+03  0.49837208782E+03  0.16900143200E+03 0.  0.
         24    2    3    3    0    0  0.39304795486E+02 -0.95096811928E+02 -0.44655050544E+03  0.46372151650E+03  0.71007185348E+02 0.  0.
         -6    2    1    2    0  502 -0.30569898392E+02  0.66326238809E+02 -0.36722289632E+03  0.41221639076E+03  0.17244131927E+03 0.  0.
        -24    2    5    5    0    0 -0.84192736126E+02  0.65716494315E+02 -0.25158642575E+03  0.28466379831E+03  0.79565532784E+02 0.  0.
          5    1    3    3  501    0 -0.87348970939E+01  0.28770573119E+02 -0.16568880090E+02  0.34650571312E+02  0.47000000000E+01 0. -1.
        -11    1    4    4    0    0 -0.37294679700E+01 -0.16761723537E+02 -0.14355854326E+02  0.22382020925E+02  0.00000000000E+00 0.  1.
         12    1    4    4    0    0  0.43034263456E+02 -0.78335088391E+02 -0.43219465111E+03  0.44133949558E+03  0.00000000000E+00 0. -1.
         -5    1    5    5    0  502  0.53622837734E+02  0.60974449399E+00 -0.11563647057E+03  0.12755259245E+03  0.47000000000E+01 0.  1.
         13    1    6    6    0    0 -0.22365677489E+02  0.27684532523E+02 -0.17653562424E+02  0.39727888652E+02  0.00000000000E+00 0. -1.
        -14    1    6    6    0    0 -0.61827058638E+02  0.38031961792E+02 -0.23393286332E+03  0.24493590966E+03  0.00000000000E+00 0.  1.
</event>
<event>
12    1  0.8219652E-002  0.1785480E+03  0.7818608E-02  0.1170467E+00
         21   -1    0    0  503  502  0.00000000000E+00  0.00000000000E+00  0.67828850579E+02  0.67828850579E+02  0.00000000000E+00 0.  1.
         21   -1    0    0  501  503 -0.00000000000E+00 -0.00000000000E+00 -0.96628293719E+03  0.96628293719E+03  0.00000000000E+00 0.  1.
          6    2    1    2  501    0  0.23217141115E+00  0.36817263457E+02 -0.82768868735E+03  0.84672779080E+03  0.17471068587E+03 0.  0.
         24    2    3    3    0    0  0.60751061913E+02  0.14982500320E+02 -0.64723727740E+03  0.65509247480E+03  0.79466284894E+02 0.  0.
         -6    2    1    2    0  502 -0.23217141115E+00 -0.36817263457E+02 -0.70765399262E+02  0.18738399697E+03  0.16955664480E+03 0.  0.
        -24    2    5    5    0    0  0.64761837863E+02 -0.24891319671E+02 -0.36112451163E+02  0.11262193313E+03  0.81030347744E+02 0.  0.
          5    1    3    3  501    0 -0.60518890502E+02  0.21834763138E+02 -0.18045140995E+03  0.19163531601E+03  0.47000000000E+01 0. -1.
        -11    1    4    4    0    0 -0.92255127748E+01 -0.11668153801E+02 -0.27480397073E+03  0.27520624671E+03  0.00000000000E+00 0.  1.
         12    1    4    4    0    0  0.69976574688E+02  0.26650654121E+02 -0.37243330667E+03  0.37988622808E+03  0.00000000000E+00 0. -1.
         -5    1    5    5    0  502 -0.64994009274E+02 -0.11925943786E+02 -0.34652948099E+02  0.74762063833E+02  0.47000000000E+01 0.  1.
         11    1    6    6    0    0  0.51156477803E+02 -0.17138066343E+02 -0.62111526957E+02  0.82271139047E+02  0.00000000000E+00 0. -1.
        -12    1    6    6    0    0  0.13605360060E+02 -0.77532533284E+01  0.25999075794E+02  0.30350794087E+02  0.00000000000E+00 0.  1.
</event>
<event>
12    1  0.8219652E-002  0.1790658E+03  0.7818608E-02  0.1171132E+00
         21   -1    0    0  503  502  0.00000000000E+00  0.00000000000E+00  0.51007288857E+03  0.51007288857E+03  0.00000000000E+00 0. -1.
         21   -1    0    0  501  503 -0.00000000000E+00 -0.00000000000E+00 -0.15874599696E+03  0.15874599696E+03  0.00000000000E+00 0. -1.
          6    2    1    2  501    0 -0.42206198012E+02  0.24007410295E+02 -0.86860945090E+02  0.19902104955E+03  0.17235671000E+03 0.  0.
         24    2    3    3    0    0 -0.20386018910E+02 -0.76712621843E+01  0.20407173702E+02  0.84967562909E+02  0.79552473108E+02 0.  0.
         -6    2    1    2    0  502  0.42206198012E+02 -0.24007410295E+02  0.43818783670E+03  0.46979783598E+03  0.16230744763E+03 0.  0.
        -24    2    5    5    0    0 -0.13967437584E+02 -0.59582160591E+02  0.29723641372E+03  0.31387980035E+03  0.80161837873E+02 0.  0.
          5    1    3    3  501    0 -0.21820179102E+02  0.31678672479E+02 -0.10726811879E+03  0.11405348664E+03  0.47000000000E+01 0. -1.
        -13    1    4    4    0    0 -0.46692064579E+02 -0.11677490958E+02  0.29962602707E+02  0.56694534575E+02  0.00000000000E+00 0.  1.
         14    1    4    4    0    0  0.26306045669E+02  0.40062287737E+01 -0.95554290049E+01  0.28273028334E+02  0.00000000000E+00 0. -1.
         -5    1    5    5    0  502  0.56173635596E+02  0.35574750297E+02  0.14095142298E+03  0.15591803563E+03  0.47000000000E+01 0.  1.
         11    1    6    6    0    0  0.30733035983E+02 -0.10643797513E+02  0.12952942099E+03  0.13355029325E+03  0.00000000000E+00 0. -1.
        -12    1    6    6    0    0 -0.44700473566E+02 -0.48938363079E+02  0.16770699274E+03  0.18032950710E+03  0.00000000000E+00 0.  1.
</event>
<event>
12    1  0.8219652E-002  0.1747474E+03  0.7818608E-02  0.1173324E+00
         21   -1    0    0  503  502  0.00000000000E+00  0.00000000000E+00  0.43476656949E+03  0.43476656949E+03  0.00000000000E+00 0. -1.
         21   -1    0    0  501  503 -0.00000000000E+00 -0.00000000000E+00 -0.22527191593E+03  0.22527191593E+03  0.00000000000E+00 0. -1.
          6    2    1    2  501    0 -0.22894015602E+02 -0.13926485209E+02 -0.16938104720E+03  0.24336516276E+03  0.17268057319E+03 0.  0.
         24    2    3    3    0    0 -0.68633957607E+02  0.55332684975E+01 -0.55938507918E+02  0.11942112689E+03  0.79944053458E+02 0.  0.
         -6    2    1    2    0  502  0.22894015602E+02  0.13926485209E+02  0.37887570076E+03  0.41667332265E+03  0.17132360677E+03 0.  0.
        -24    2    5    5    0    0  0.39514964692E+02 -0.47372723271E+02  0.29391651017E+03  0.31049421465E+03  0.78829785213E+02 0.  0.
          5    1    3    3  501    0  0.45739942006E+02 -0.19459753707E+02 -0.11344253928E+03  0.12394403587E+03  0.47000000000E+01 0. -1.
        -11    1    4    4    0    0  0.18113992597E+02  0.31357651580E+01 -0.62226291864E+01  0.19408010329E+02  0.00000000000E+00 0.  1.
         12    1    4    4    0    0 -0.86747950205E+02  0.23975033395E+01 -0.49715878732E+02  0.10001311656E+03  0.00000000000E+00 0. -1.
         -5    1    5    5    0  502 -0.16620949090E+02  0.61299208480E+02  0.84959190593E+02  0.10617910800E+03  0.47000000000E+01 0.  1.
         13    1    6    6    0    0  0.53179802403E+02 -0.83526767648E+01  0.11667744718E+03  0.12849702438E+03  0.00000000000E+00 0. -1.
        -14    1    6    6    0    0 -0.13664837711E+02 -0.39020046506E+02  0.17723906299E+03  0.18199719027E+03  0.00000000000E+00 0.  1.
</event>
<event>
12    1  0.8219652E-002  0.1882986E+03  0.7818608E-02  0.1161115E+00
         21   -1    0    0  501  502  0.00000000000E+00  0.00000000000E+00  0.68975667728E+02  0.68975667728E+02  0.00000000000E+00 0. -1.
         21   -1    0    0  502  503 -0.00000000000E+00 -0.00000000000E+00 -0.50115841269E+03  0.50115841269E+03  0.00000000000E+00 0.  1.
         -6    2    1    2    0  503  0.11954741859E+02 -0.64628984596E+02 -0.21800557486E+03  0.28495304893E+03  0.17132421873E+03 0.  0.
        -24    2    3    3    0    0  0.46879328561E+02 -0.82770488529E+02 -0.97072827109E+02  0.15769087702E+03  0.79966578735E+02 0.  0.
          6    2    1    2  501    0 -0.11954741859E+02  0.64628984596E+02 -0.21417717011E+03  0.28518103149E+03  0.17645548737E+03 0.  0.
         24    2    5    5    0    0 -0.61449272246E+02  0.72570952526E+02 -0.19515242836E+03  0.23135897104E+03  0.79999668586E+02 0.  0.
          5    1    5    5  501    0  0.49494530387E+02 -0.79419679306E+01 -0.19024741743E+02  0.53822060452E+02  0.47000000000E+01 0. -1.
        -11    1    6    6    0    0  0.14480415047E+02  0.47542689118E+01 -0.61434385149E+02  0.63296675832E+02  0.00000000000E+00 0.  1.
         12    1    6    6    0    0 -0.75929687293E+02  0.67816683615E+02 -0.13371804321E+03  0.16806229521E+03  0.00000000000E+00 0. -1.
         -5    1    3    3    0  503 -0.34924586702E+02  0.18141503933E+02 -0.12093274775E+03  0.12726217191E+03  0.47000000000E+01 0.  1.
         11    1    4    4    0    0  0.36379604388E+02 -0.18314421543E+02 -0.41255995923E-01  0.40729539084E+02  0.00000000000E+00 0. -1.
        -12    1    4    4    0    0  0.10499724172E+02 -0.64456066985E+02 -0.97031571113E+02  0.11696133794E+03  0.00000000000E+00 0.  1.
</event>
<event>
12    1  0.8219652E-002  0.1753648E+03  0.7818608E-02  0.1172584E+00
         21   -1    0    0  501  502  0.00000000000E+00  0.00000000000E+00  0.10062021292E+03  0.10062021292E+03  0.00000000000E+00 0. -1.
         21   -1    0    0  502  503 -0.00000000000E+00 -0.00000000000E+00 -0.30623880260E+03  0.30623880260E+03  0.00000000000E+00 0. -1.
         -6    2    1    2    0  503 -0.33415081908E+02 -0.75009270768E+01 -0.86129767594E+02  0.19537436967E+03  0.17198830150E+03 0.  0.
        -24    2    3    3    0    0 -0.42326041420E+02 -0.20126003016E+02 -0.12349331654E+03  0.15466905636E+03  0.80469671212E+02 0.  0.
          6    2    1    2  501    0  0.33415081908E+02  0.75009270768E+01 -0.11948882208E+03  0.21148464585E+03  0.17110039515E+03 0.  0.
         24    2    5    5    0    0  0.68094827609E+02 -0.18591426979E+02 -0.12803299295E+03  0.16700331765E+03  0.80716256840E+02 0.  0.
          5    1    5    5  501    0 -0.34679745702E+02  0.26092354056E+02  0.85441708701E+01  0.44481328195E+02  0.47000000000E+01 0. -1.
        -13    1    6    6    0    0 -0.90990403195E+01 -0.35095241013E+00 -0.65144910890E+02  0.65778226772E+02  0.00000000000E+00 0.  1.
         14    1    6    6    0    0  0.77193867929E+02 -0.18240474569E+02 -0.62888082063E+02  0.10122509088E+03  0.00000000000E+00 0. -1.
         -5    1    3    3    0  503  0.89109595120E+01  0.12625075939E+02  0.37363548948E+02  0.40705313313E+02  0.47000000000E+01 0.  1.
         11    1    4    4    0    0 -0.21542062513E+02 -0.50218911271E+02 -0.58212798831E+02  0.79841902872E+02  0.00000000000E+00 0. -1.
        -12    1    4    4    0    0 -0.20783978907E+02  0.30092908255E+02 -0.65280517711E+02  0.74827153488E+02  0.00000000000E+00 0.  1.
</event>
<event>
12    1  0.8219652E-002  0.1832424E+03  0.7818608E-02  0.1166233E+00
         21   -1    0    0  501  502  0.00000000000E+00  0.00000000000E+00  0.72343689175E+02  0.72343689175E+02  0.00000000000E+00 0.  1.
         21   -1    0    0  502  503 -0.00000000000E+00 -0.00000000000E+00 -0.44844282747E+03  0.44844282747E+03  0.00000000000E+00 0.  1.
         -6    2    1    2    0  503 -0.81758105588E+01 -0.40628409765E+02 -0.19773456308E+03  0.26958623307E+03  0.17849444827E+03 0.  0.
        -24    2    3    3    0    0  0.52648346566E+02 -0.13597107370E+02 -0.53789589388E+02  0.11092774810E+03  0.80342489679E+02 0.  0.
          6    2    1    2  501    0  0.81758105588E+01  0.40628409765E+02 -0.17836457521E+03  0.25120028358E+03  0.17195973139E+03 0.  0.
         24    2    5    5    0    0  0.34979505252E+02  0.29491419085E+02 -0.24492017008E+02  0.94543573606E+02  0.79027329612E+02 0.  0.
          5    1    5    5  501    0 -0.26803694694E+02  0.11136990679E+02 -0.15387255820E+03  0.15665670997E+03  0.47000000000E+01 0. -1.
        -13    1    6    6    0    0  0.16138882645E+01  0.41660963990E+02  0.12237720532E+02  0.43451149119E+02  0.00000000000E+00 0.  1.
         14    1    6    6    0    0  0.33365616988E+02 -0.12169544905E+02 -0.36729737540E+02  0.51092424487E+02  0.00000000000E+00 0. -1.
         -5    1    3    3    0  503 -0.60824157125E+02 -0.27031302395E+02 -0.14394497369E+03  0.15865848496E+03  0.47000000000E+01 0.  1.
         11    1    4    4    0    0 -0.17109337797E+02  0.13852695413E+02 -0.10968584569E+02  0.24595456033E+02  0.00000000000E+00 0. -1.
        -12    1    4    4    0    0  0.69757684363E+02 -0.27449802782E+02 -0.42821004818E+02  0.86332292070E+02  0.00000000000E+00 0.  1.
</event>
<event>
12    1  0.8219652E-002  0.2674736E+03  0.7818608E-02  0.1102745E+00
         21   -1    0    0  503  502  0.00000000000E+00  0.00000000000E+00  0.93386220491E+02  0.93386220491E+02  0.00000000000E+00 0. -1.
         21   -1    0    0  501  503 -0.00000000000E+00 -0.00000000000E+00 -0.94643092740E+03  0.94643092740E+03  0.00000000000E+00 0.  1.
          6    2    1    2  501    0 -0.20106303136E+03  0.38939142578E+02 -0.65355859447E+03  0.70614540506E+03  0.17192991968E+03 0.  0.
         24    2    3    3    0    0 -0.40971088928E+02 -0.19507193002E+02 -0.16971436705E+03  0.19314176903E+03  0.80259677634E+02 0.  0.
         -6    2    1    2    0  502  0.20106303136E+03 -0.38939142578E+02 -0.19948611244E+03  0.33367174283E+03  0.17204512054E+03 0.  0.
        -24    2    5    5    0    0  0.20367625797E+03  0.88702726488E+01 -0.15575970876E+03  0.26865899395E+03  0.79711155828E+02 0.  0.
          5    1    3    3  501    0 -0.16009194243E+03  0.58446335580E+02 -0.48384422742E+03  0.51300363604E+03  0.47000000000E+01 0. -1.
        -11    1    4    4    0    0 -0.34573954495E+02 -0.13701661339E+02 -0.17759581727E+03  0.18144797647E+03  0.00000000000E+00 0.  1.
         12    1    4    4    0    0 -0.63971344330E+01 -0.58055316637E+01  0.78814502207E+01  0.11693792560E+02  0.00000000000E+00 0. -1.
         -5    1    5    5    0  502 -0.26132266086E+01 -0.47809415227E+02 -0.43726403676E+02  0.65012748873E+02  0.47000000000E+01 0.  1.
         13    1    6    6    0    0  0.81636578794E+02  0.40228028208E+02 -0.48174376226E+02  0.10297376256E+03  0.00000000000E+00 0. -1.
        -14    1    6    6    0    0  0.12203967917E+03 -0.31357755559E+02 -0.10758533253E+03  0.16568523140E+03  0.00000000000E+00 0.  1.
</event>
<event>
12    1  0.8219652E-002  0.2299835E+03  0.7818608E-02  0.1127687E+00
         21   -1    0    0  501  502  0.00000000000E+00  0.00000000000E+00  0.45670683925E+03  0.45670683925E+03  0.00000000000E+00 0. -1.
         21   -1    0    0  502  503 -0.00000000000E+00 -0.00000000000E+00 -0.11910922155E+03  0.11910922155E+03  0.00000000000E+00 0. -1.
         -6    2    1    2    0  503  0.49762062999E+02 -0.13318764737E+03  0.10515768400E+03  0.25288448849E+03  0.18076839793E+03 0.  0.
        -24    2    3    3    0    0  0.83166113798E+02 -0.34635051400E+02  0.84055041784E+02  0.14660252252E+03  0.79440923267E+02 0.  0.
          6    2    1    2  501    0 -0.49762062999E+02  0.13318764737E+03  0.23243993370E+03  0.32293157231E+03  0.17332416245E+03 0.  0.
         24    2    5    5    0    0 -0.11823660779E+02  0.11054587580E+03  0.67332835014E+02  0.15195082421E+03  0.78709292318E+02 0.  0.
          5    1    5    5  501    0 -0.37938402220E+02  0.22641771571E+02  0.16510709869E+03  0.17098074810E+03  0.47000000000E+01 0. -1.
        -13    1    6    6    0    0  0.44736693545E+01  0.13376588376E+02  0.49949220277E+02  0.51902518632E+02  0.00000000000E+00 0.  1.
         14    1    6    6    0    0 -0.16297330133E+02  0.97169287427E+02  0.17383614737E+02  0.10004830558E+03  0.00000000000E+00 0. -1.
         -5    1    3    3    0  503 -0.33404050799E+02 -0.98552595974E+02  0.21102642218E+02  0.10628196597E+03  0.47000000000E+01 0.  1.
         13    1    4    4    0    0  0.65394164658E+02  0.73168777695E+01  0.21522744496E+02  0.69232665717E+02  0.00000000000E+00 0. -1.
        -14    1    4    4    0    0  0.17771949140E+02 -0.41951929169E+02  0.62532297288E+02  0.77369856801E+02  0.00000000000E+00 0.  1.
</event>
<event>
12    1  0.8219652E-002  0.2561206E+03  0.7818608E-02  0.1110195E+00
         21   -1    0    0  503  502  0.00000000000E+00  0.00000000000E+00  0.75765179400E+03  0.75765179400E+03  0.00000000000E+00 0.  1.
         21   -1    0    0  501  503 -0.00000000000E+00 -0.00000000000E+00 -0.85142980993E+02  0.85142980993E+02  0.00000000000E+00 0. -1.
          6    2    1    2  501    0 -0.98637432486E+02  0.15459206650E+03  0.32604989691E+03  0.41461585018E+03  0.17880077694E+03 0.  0.
         24    2    3    3    0    0 -0.65736308622E+02  0.16428139810E+03  0.32782704308E+03  0.37995152635E+03  0.74719155289E+02 0.  0.
         -6    2    1    2    0  502  0.98637432486E+02 -0.15459206650E+03  0.34645891610E+03  0.42817892481E+03  0.17226537957E+03 0.  0.
        -24    2    5    5    0    0  0.11919009409E+03 -0.60248569416E+02  0.21686135626E+03  0.26649798946E+03  0.78461212727E+02 0.  0.
          5    1    3    3  501    0 -0.32901123864E+02 -0.96893315996E+01 -0.17771461708E+01  0.34664323834E+02  0.47000000000E+01 0. -1.
        -13    1    4    4    0    0  0.16004568695E+02  0.28718537627E+02  0.43486815885E+02  0.54516087335E+02  0.00000000000E+00 0.  1.
         14    1    4    4    0    0 -0.81740877317E+02  0.13556286047E+03  0.28434022720E+03  0.32543543901E+03  0.00000000000E+00 0. -1.
         -5    1    5    5    0  502 -0.20552661602E+02 -0.94343497080E+02  0.12959755984E+03  0.16168093535E+03  0.47000000000E+01 0.  1.
         11    1    6    6    0    0  0.47285931099E+02  0.48282665708E+01  0.30682135595E+02  0.56574418978E+02  0.00000000000E+00 0. -1.
        -12    1    6    6    0    0  0.71904162989E+02 -0.65076835987E+02  0.18617922066E+03  0.20992357048E+03  0.00000000000E+00 0.  1.
</event>
<event>
12    1  0.8219652E-002  0.1785922E+03  0.7818608E-02  0.1169307E+00
         21   -1    0    0  503  502  0.00000000000E+00  0.00000000000E+00  0.47841131025E+02  0.47841131025E+02  0.00000000000E+00 0.  1.
         21   -1    0    0  501  503 -0.00000000000E+00 -0.00000000000E+00 -0.73192680705E+03  0.73192680705E+03  0.00000000000E+00 0.  1.
          6    2    1    2  501    0  0.33154075383E+02  0.23716695654E+02 -0.45978023614E+03  0.49304839978E+03  0.17331239023E+03 0.  0.
         24    2    3    3    0    0 -0.28254688387E+02  0.55374878837E+02 -0.33886306163E+03  0.35370590833E+03  0.80093635386E+02 0.  0.
         -6    2    1    2    0  502 -0.33154075383E+02 -0.23716695654E+02 -0.22430543988E+03  0.28671953830E+03  0.17387779879E+03 0.  0.
        -24    2    5    5    0    0 -0.12463190593E+02 -0.81428416235E+02 -0.16544374432E+03  0.20159877343E+03  0.80526485252E+02 0.  0.
          5    1    3    3  501    0  0.61408763770E+02 -0.31658183183E+02 -0.12091717451E+03  0.13934249144E+03  0.47000000000E+01 0. -1.
        -13    1    4    4    0    0 -0.43273681062E+02  0.15439105072E+02 -0.26011870218E+03  0.26414525674E+03  0.00000000000E+00 0.  1.
         14    1    4    4    0    0  0.15018992675E+02  0.39935773766E+02 -0.78744359457E+02  0.89560651592E+02  0.00000000000E+00 0. -1.
         -5    1    5    5    0  502 -0.20690884789E+02  0.57711720581E+02 -0.58861695565E+02  0.85120764861E+02  0.47000000000E+01 0.  1.
         13    1    6    6    0    0 -0.45230717247E+02 -0.32720233556E+02 -0.69829884961E+02  0.89401590032E+02  0.00000000000E+00 0. -1.
        -14    1    6    6    0    0  0.32767526653E+02 -0.48708182680E+02 -0.95613859354E+02  0.11219718340E+03  0.00000000000E+00 0.  1.
</event>
<event>
12    1  0.8219652E-002  0.1856515E+03  0.7818608E-02  0.1163118E+00
         21   -1    0    0  501  502  0.00000000000E+00  0.00000000000E+00  0.65991024201E+03  0.65991024201E+03  0.00000000000E+00 0. -1.
         21   -1    0    0  502  503 -0.00000000000E+00 -0.00000000000E+00 -0.52762320921E+02  0.52762320921E+02  0.00000000000E+00 0. -1.
         -6    2    1    2    0  503 -0.16883465098E+02  0.60845405894E+02  0.24447703895E+03  0.30524572254E+03  0.17151884369E+03 0.  0.
        -24    2    3    3    0    0 -0.41570980794E+02  0.73574551125E+02  0.87349167131E+02  0.14561250960E+03  0.80198285120E+02 0.  0.
          6    2    1    2  501    0  0.16883465098E+02 -0.60845405894E+02  0.36267088214E+03  0.40742684040E+03  0.17458306536E+03 0.  0.
         24    2    5    5    0    0 -0.61432809177E+01  0.19355590459E+02  0.27631853452E+03  0.28725509335E+03  0.75836517296E+02 0.  0.
          5    1    5    5  501    0  0.23026746015E+02 -0.80200996353E+02  0.86352347624E+02  0.12017174705E+03  0.47000000000E+01 0. -1.
        -11    1    6    6    0    0 -0.40436795109E+02  0.17775675828E+02  0.15356442861E+03  0.15979093462E+03  0.00000000000E+00 0.  1.
         12    1    6    6    0    0  0.34293514191E+02  0.15799146311E+01  0.12275410590E+03  0.12746415873E+03  0.00000000000E+00 0. -1.
         -5    1    3    3    0  503  0.24687515696E+02 -0.12729145231E+02  0.15712787182E+03  0.15963321294E+03  0.47000000000E+01 0.  1.
         11    1    4    4    0    0 -0.65581612516E+02  0.53051293610E+02  0.69741057245E+02  0.10944954417E+03  0.00000000000E+00 0. -1.
        -12    1    4    4    0    0  0.24010631723E+02  0.20523257515E+02  0.17608109885E+02  0.36162965427E+02  0.00000000000E+00 0.  1.
</event>
<event>
12    1  0.8219652E-002  0.2036840E+03  0.7818608E-02  0.1146852E+00
         21   -1    0    0  503  502  0.00000000000E+00  0.00000000000E+00  0.40174452532E+03  0.40174452532E+03  0.00000000000E+00 0. -1.
         21   -1    0    0  501  503 -0.00000000000E+00 -0.00000000000E+00 -0.10844509881E+03  0.10844509881E+03  0.00000000000E+00 0. -1.
          6    2    1    2  501    0  0.97461037246E+02  0.45254629124E+02  0.88227324664E+02  0.22115375520E+03  0.17198339276E+03 0.  0.
         24    2    3    3    0    0  0.93778754221E+02  0.93087913551E+02  0.67128393479E+02  0.16853401362E+03  0.80235142815E+02 0.  0.
         -6    2    1    2    0  502 -0.97461037246E+02 -0.45254629124E+02  0.20507210184E+03  0.28903586893E+03  0.17303332434E+03 0.  0.
        -24    2    5    5    0    0 -0.35747256772E+02 -0.75931573578E+02  0.67789191719E+02  0.13535323154E+03  0.81741375946E+02 0.  0.
          5    1    3    3  501    0  0.36822830245E+01 -0.47833284427E+02  0.21098931185E+02  0.52619741585E+02  0.47000000000E+01 0. -1.
        -13    1    4    4    0    0 -0.11988593979E+02  0.18044347869E+02  0.22876884833E+02  0.31506772848E+02  0.00000000000E+00 0.  1.
         14    1    4    4    0    0  0.10576734820E+03  0.75043565682E+02  0.44251508646E+02  0.13702724077E+03  0.00000000000E+00 0. -1.
         -5    1    5    5    0  502 -0.61713780474E+02  0.30676944454E+02  0.13728291013E+03  0.15368263739E+03  0.47000000000E+01 0.  1.
         11    1    6    6    0    0 -0.57495075486E+02 -0.51834378792E+02  0.67783180553E+02  0.10289337246E+03  0.00000000000E+00 0. -1.
        -12    1    6    6    0    0  0.21747818715E+02 -0.24097194786E+02  0.60111654534E-02  0.32459859081E+02  0.00000000000E+00 0.  1.
</event>
<event>
12    1  0.8219652E-002  0.1907322E+03  0.7818608E-02  0.1159721E+00
         21   -1    0    0  503  502  0.00000000000E+00  0.00000000000E+00  0.70857384204E+02  0.70857384204E+02  0.00000000000E+00 0.  1.
         21   -1    0    0  501  503 -0.00000000000E+00 -0.00000000000E+00 -0.62735787304E+03  0.62735787304E+03  0.00000000000E+00 0.  1.
          6    2    1    2  501    0 -0.23011388687E+02  0.59801767853E+02 -0.43599106327E+03  0.47260211246E+03  0.17075940384E+03 0.  0.
         24    2    3    3    0    0 -0.66533266476E+02  0.40976621691E+02 -0.17924057862E+03  0.21146720223E+03  0.80532189338E+02 0.  0.
         -6    2    1    2    0  502  0.23011388687E+02 -0.59801767853E+02 -0.12050942556E+03  0.22561314478E+03  0.17964685915E+03 0.  0.
        -24    2    5    5    0    0  0.11844720822E+02 -0.59417132150E+02 -0.15732202166E+03  0.18685621446E+03  0.80587426930E+02 0.  0.
          5    1    3    3  501    0  0.43521877789E+02  0.18825146162E+02 -0.25675048465E+03  0.26113491024E+03  0.47000000000E+01 0. -1.
        -11    1    4    4    0    0 -0.54215585127E+02  0.64767745881E+02 -0.14710242509E+03  0.16962698502E+03  0.00000000000E+00 0.  1.
         12    1    4    4    0    0 -0.12317681349E+02 -0.23791124190E+02 -0.32138153527E+02  0.41840217210E+02  0.00000000000E+00 0. -1.
         -5    1    5    5    0  502  0.11166667864E+02 -0.38463570299E+00  0.36812596103E+02  0.38756930317E+02  0.47000000000E+01 0.  1.
         11    1    6    6    0    0  0.19075256386E+02 -0.19988963827E+00 -0.10735896816E+03  0.10904060439E+03  0.00000000000E+00 0. -1.
        -12    1    6    6    0    0 -0.72305355640E+01 -0.59217242512E+02 -0.49963053502E+02  0.77815610070E+02  0.00000000000E+00 0.  1.
</event>
<event>
12    1  0.8219652E-002  0.2215184E+03  0.7818608E-02  0.1132843E+00
         21   -1    0    0  501  502  0.00000000000E+00  0.00000000000E+00  0.56975012373E+03  0.56975012373E+03  0.00000000000E+00 0.  1.
         21   -1    0    0  502  503 -0.00000000000E+00 -0.00000000000E+00 -0.97047968482E+02  0.97047968482E+02  0.00000000000E+00 0. -1.
         -6    2    1    2    0  503  0.87904881411E+02  0.10924965442E+03  0.12334779769E+03  0.25313290843E+03  0.17087666596E+03 0.  0.
        -24    2    3    3    0    0  0.56054644098E+02  0.37217406208E+02 -0.56779613143E+01  0.10189528452E+03  0.76309575500E+02 0.  0.
          6    2    1    2  501    0 -0.87904881411E+02 -0.10924965442E+03  0.34935435756E+03  0.41366518378E+03  0.17148662327E+03 0.  0.
         24    2    5    5    0    0 -0.12707056613E+03 -0.86361567636E+02  0.29865061154E+03  0.34546859122E+03  0.80938931344E+02 0.  0.
          5    1    5    5  501    0  0.39165684720E+02 -0.22888086786E+02  0.50703746017E+02  0.68196592557E+02  0.47000000000E+01 0. -1.
        -11    1    6    6    0    0 -0.41273120607E+02 -0.28149005727E+02  0.18501327660E+03  0.19163963454E+03  0.00000000000E+00 0.  1.
         12    1    6    6    0    0 -0.85797445524E+02 -0.58212561909E+02  0.11363733495E+03  0.15382895669E+03  0.00000000000E+00 0. -1.
         -5    1    3    3    0  503  0.31850237313E+02  0.72032248213E+02  0.12902575901E+03  0.15123762391E+03  0.47000000000E+01 0.  1.
         13    1    4    4    0    0 -0.44545468550E+01  0.26101277750E+01 -0.28178112031E+02  0.28647194493E+02  0.00000000000E+00 0. -1.
        -14    1    4    4    0    0  0.60509190953E+02  0.34607278433E+02  0.22500150717E+02  0.73248090027E+02  0.00000000000E+00 0.  1.
</event>
<event>
12    1  0.8219652E-002  0.2084197E+03  0.7818608E-02  0.1143000E+00
         21   -1    0    0  503  502  0.00000000000E+00  0.00000000000E+00  0.46277001111E+03  0.46277001111E+03  0.00000000000E+00 0.  1.
         21   -1    0    0  501  503 -0.00000000000E+00 -0.00000000000E+00 -0.20697766232E+03  0.20697766232E+03  0.00000000000E+00 0.  1.
          6    2    1    2  501    0  0.19314804140E+02  0.11680624375E+03 -0.11996967540E+03  0.24048177877E+03  0.17152843108E+03 0.  0.
         24    2    3    3    0    0  0.55271395845E+02  0.18917689481E+02 -0.83227844512E+02  0.12981517278E+03  0.80698815409E+02 0.  0.
         -6    2    1    2    0  502 -0.19314804140E+02 -0.11680624375E+03  0.37576202419E+03  0.42926589466E+03  0.17045629721E+03 0.  0.
        -24    2    5    5    0    0 -0.40324333046E+02 -0.91772731886E+00  0.15367908153E+03  0.17784101131E+03  0.79895376248E+02 0.  0.
          5    1    3    3  501    0 -0.35956591705E+02  0.97888554273E+02 -0.36741830887E+02  0.11066660599E+03  0.47000000000E+01 0. -1.
        -11    1    4    4    0    0  0.16540283003E+02  0.48239245684E+02 -0.40560197326E+02  0.65159307801E+02  0.00000000000E+00 0.  1.
         12    1    4    4    0    0  0.38731112842E+02 -0.29321556202E+02 -0.42667647186E+02  0.64655864981E+02  0.00000000000E+00 0. -1.
         -5    1    5    5    0  502  0.21009528906E+02 -0.11588851644E+03  0.22208294266E+03  0.25142488335E+03  0.47000000000E+01 0.  1.
         11    1    6    6    0    0  0.20774975301E+02  0.15569230570E+02  0.50963627075E+02  0.57195208050E+02  0.00000000000E+00 0. -1.
        -12    1    6    6    0    0 -0.61099308347E+02 -0.16486957889E+02  0.10271545445E+03  0.12064580326E+03  0.00000000000E+00 0.  1.
</event>
<event>
12    1  0.8219652E-002  0.1760072E+03  0.7818608E-02  0.1172407E+00
         21   -1    0    0  501  502  0.00000000000E+00  0.00000000000E+00  0.14358669410E+04  0.14358669410E+04  0.00000000000E+00 0.  1.
         21   -1    0    0  502  503 -0.00000000000E+00 -0.00000000000E+00 -0.96226412688E+02  0.96226412688E+02  0.00000000000E+00 0.  1.
         -6    2    1    2    0  503  0.23185693953E+02 -0.85647599257E+01 -0.52489361995E+01  0.17608546223E+03  0.17426304014E+03 0.  0.
        -24    2    3    3    0    0 -0.12226362576E+02  0.31060487898E+02  0.48343993826E+02  0.10046492162E+03  0.81497367365E+02 0.  0.
          6    2    1    2  501    0 -0.23185693953E+02  0.85647599257E+01  0.13448894646E+04  0.13560078915E+04  0.17151909058E+03 0.  0.
         24    2    5    5    0    0 -0.71192166923E+02 -0.21030703431E+02  0.75662721201E+03  0.76502982028E+03  0.85295209975E+02 0.  0.
          5    1    5    5  501    0  0.48006472970E+02  0.29595463357E+02  0.58826225255E+03  0.59097807123E+03  0.47000000000E+01 0. -1.
        -13    1    6    6    0    0 -0.45743945480E+02 -0.21208227122E+02  0.15774869653E+03  0.16561083510E+03  0.00000000000E+00 0.  1.
         14    1    6    6    0    0 -0.25448221443E+02  0.17752369117E+00  0.59887851548E+03  0.59941898518E+03  0.00000000000E+00 0. -1.
         -5    1    3    3    0  503  0.35412056529E+02 -0.39625247824E+02 -0.53592930025E+02  0.75620540605E+02  0.47000000000E+01 0.  1.
         13    1    4    4    0    0 -0.26910577758E+02  0.35979719336E+02 -0.47293218520E+01  0.45178378501E+02  0.00000000000E+00 0. -1.
        -14    1    4    4    0    0  0.14684215181E+02 -0.49192314380E+01  0.53073315678E+02  0.55286543123E+02  0.00000000000E+00 0.  1.
</event>
<event>
12    1  0.8219652E-002  0.2047823E+03  0.7818608E-02  0.1146297E+00
         21   -1    0    0  503  502  0.00000000000E+00  0.00000000000E+00  0.74050940488E+02  0.74050940488E+02  0.00000000000E+00 0.  1.
         21   -1    0    0  501  503 -0.00000000000E+00 -0.00000000000E+00 -0.74817788196E+03  0.74817788196E+03  0.00000000000E+00 0. -1.
          6    2    1    2  501    0  0.10352896198E+03 -0.22720131174E+02 -0.54207956368E+03  0.57856453267E+03  0.17219818460E+03 0.  0.
         24    2    3    3    0    0  0.56447715928E+02  0.99325227139E+01 -0.13551486102E+03  0.16795548871E+03  0.80992400818E+02 0.  0.
         -6    2    1    2    0  502 -0.10352896198E+03  0.22720131174E+02 -0.13204737779E+03  0.24366428977E+03  0.17521793800E+03 0.  0.
        -24    2    5    5    0    0  0.10113821742E+02  0.10404327303E+02 -0.90970619625E+02  0.12210874124E+03  0.80152053217E+02 0.  0.
          5    1    3    3  501    0  0.47081246055E+02 -0.32652653888E+02 -0.40656470265E+03  0.41060904396E+03  0.47000000000E+01 0. -1.
        -13    1    4    4    0    0  0.65746881113E+02  0.25881720805E+02 -0.13116807003E+03  0.14898851782E+03  0.00000000000E+00 0.  1.
         14    1    4    4    0    0 -0.92991651854E+01 -0.15949198091E+02 -0.43467909952E+01  0.18966970893E+02  0.00000000000E+00 0. -1.
         -5    1    5    5    0  502 -0.11364278373E+03  0.12315803871E+02 -0.41076758165E+02  0.12155554853E+03  0.47000000000E+01 0.  1.
         11    1    6    6    0    0  0.14494803878E+02  0.32165357893E+02 -0.93339908830E+02  0.99785009737E+02  0.00000000000E+00 0. -1.
        -12    1    6    6    0    0 -0.43809821361E+01 -0.21761030590E+02  0.23692892043E+01  0.22323731501E+02  0.00000000000E+00 0.  1.
</event>
<event>
12    1  0.8219652E-002  0.2639195E+03  0.7818608E-02  0.1105038E+00
         21   -1    0    0  503  502  0.00000000000E+00  0.00000000000E+00  0.23225923857E+03  0.23225923857E+03  0.00000000000E+00 0.  1.
         21   -1    0    0  501  503 -0.00000000000E+00 -0.00000000000E+00 -0.12508676860E+04  0.12508676860E+04  0.00000000000E+00 0. -1.
          6    2    1    2  501    0  0.20020418280E+03  0.15603478475E+02 -0.11568362396E+04  0.11865595660E+04  0.17125517536E+03 0.  0.
         24    2    3    3    0    0  0.92079855183E+02  0.37985292151E+02 -0.35729338111E+03  0.37941479066E+03  0.79846358961E+02 0.  0.
         -6    2    1    2    0  502 -0.20020418280E+03 -0.15603478475E+02  0.13822779220E+03  0.29656735853E+03  0.16887892781E+03 0.  0.
        -24    2    5    5    0    0 -0.20648761619E+03 -0.38764266686E+02  0.89130614120E+02  0.24171732169E+03  0.79644166280E+02 0.  0.
          5    1    3    3  501    0  0.10812432762E+03 -0.22381813676E+02 -0.79954285852E+03  0.80714477538E+03  0.47000000000E+01 0. -1.
        -13    1    4    4    0    0 -0.19331503709E+01  0.68296273844E+01  0.14554921264E+01  0.72456426834E+01  0.00000000000E+00 0.  1.
         14    1    4    4    0    0  0.94013005554E+02  0.31155664766E+02 -0.35874887323E+03  0.37216914798E+03  0.00000000000E+00 0. -1.
         -5    1    5    5    0  502  0.62834333863E+01  0.23160788211E+02  0.49097178085E+02  0.54850036842E+02  0.47000000000E+01 0.  1.
         13    1    6    6    0    0 -0.90319045262E+02  0.15037553301E+02  0.12234323722E+02  0.92376060878E+02  0.00000000000E+00 0. -1.
        -14    1    6    6    0    0 -0.11616857092E+03 -0.53801819987E+02  0.76896290398E+02  0.14934126081E+03  0.00000000000E+00 0.  1.
</event>
<event>
12    1  0.8219652E-002  0.2023201E+03  0.7818608E-02  0.1148147E+00
         21   -1    0    0  501  502  0.00000000000E+00  0.00000000000E+00  0.49037720487E+02  0.49037720487E+02  0.00000000000E+00 0.  1.
         21   -1    0    0  502  503 -0.00000000000E+00 -0.00000000000E+00 -0.97364610657E+03  0.97364610657E+03  0.00000000000E+00 0.  1.
         -6    2    1    2    0  503  0.92746757456E+02 -0.44055372416E+02 -0.65855587721E+03  0.68844234409E+03  0.17237801739E+03 0.  0.
        -24    2    3    3    0    0  0.14523300416E+01  0.28181557112E+02 -0.30036979358E+03  0.31178307238E+03  0.78678852961E+02 0.  0.
          6    2    1    2  501    0 -0.92746757456E+02  0.44055372416E+02 -0.26605250887E+03  0.33424148296E+03  0.17432898381E+03 0.  0.
         24    2    5    5    0    0 -0.53533876294E+02  0.42819476279E+02 -0.53315189190E+02  0.11786580347E+03  0.79689740680E+02 0.  0.
          5    1    5    5  501    0 -0.39212881162E+02  0.12358961363E+01 -0.21273731968E+03  0.21637567949E+03  0.47000000000E+01 0. -1.
        -11    1    6    6    0    0  0.19075957189E+01  0.48386876701E+02 -0.16842163001E+02  0.51269749491E+02  0.00000000000E+00 0.  1.
         12    1    6    6    0    0 -0.55441472013E+02 -0.55674004214E+01 -0.36473026189E+02  0.66596053981E+02  0.00000000000E+00 0. -1.
         -5    1    3    3    0  503  0.91294427414E+02 -0.72236929528E+02 -0.35818608363E+03  0.37665927172E+03  0.47000000000E+01 0.  1.
         11    1    4    4    0    0  0.39699447846E+02  0.86235180799E+01 -0.14458545060E+03  0.15018443244E+03  0.00000000000E+00 0. -1.
        -12    1    4    4    0    0 -0.38247117805E+02  0.19558039033E+02 -0.15578434298E+03  0.16159863994E+03  0.00000000000E+00 0.  1.
</event>
<event>
12    1  0.8219652E-002  0.2662483E+03  0.7818608E-02  0.1103452E+00
         21   -1    0    0  501  502  0.00000000000E+00  0.00000000000E+00  0.12039614446E+03  0.12039614446E+03  0.00000000000E+00 0. -1.
         21   -1    0    0  502  503 -0.00000000000E+00 -0.00000000000E+00 -0.58871370425E+03  0.58871370425E+03  0.00000000000E+00 0. -1.
         -6    2    1    2    0  503 -0.58452921963E+02  0.19529265748E+03 -0.23579842628E+03  0.35565296772E+03  0.17126636991E+03 0.  0.
        -24    2    3    3    0    0 -0.59719679091E+02  0.19220754116E+03 -0.25578480858E+03  0.33485229241E+03  0.78676619675E+02 0.  0.
          6    2    1    2  501    0  0.58452921963E+02 -0.19529265748E+03 -0.23251913351E+03  0.35345688099E+03  0.17120354294E+03 0.  0.
         24    2    5    5    0    0  0.13275320025E+02 -0.18913864388E+03 -0.14287857160E+03  0.25277715145E+03  0.86789062345E+02 0.  0.
          5    1    5    5  501    0  0.45177601938E+02 -0.61540136036E+01 -0.89640561908E+02  0.10067972954E+03  0.47000000000E+01 0. -1.
        -11    1    6    6    0    0 -0.32942110905E+02 -0.37332798892E+02 -0.36481709870E+02  0.61723866527E+02  0.00000000000E+00 0.  1.
         12    1    6    6    0    0  0.46217430930E+02 -0.15180584498E+03 -0.10639686173E+03  0.19105328492E+03  0.00000000000E+00 0. -1.
         -5    1    3    3    0  503  0.12667571283E+01  0.30851163204E+01  0.19986382296E+02  0.20800675316E+02  0.47000000000E+01 0.  1.
         11    1    4    4    0    0 -0.11668259595E+02  0.50752092758E+02 -0.12826920710E+03  0.13843739628E+03  0.00000000000E+00 0. -1.
        -12    1    4    4    0    0 -0.48051419496E+02  0.14145544840E+03 -0.12751560148E+03  0.19641489612E+03  0.00000000000E+00 0.  1.
</event>
<event>
12    1  0.8219652E-002  0.1833848E+03  0.7818608E-02  0.1164694E+00
         21   -1    0    0  501  502  0.00000000000E+00  0.00000000000E+00  0.12702228747E+04  0.12702228747E+04  0.00000000000E+00 0. -1.
         21   -1    0    0  502  503 -0.00000000000E+00 -0.00000000000E+00 -0.26588584478E+02  0.26588584478E+02  0.00000000000E+00 0. -1.
         -6    2    1    2    0  503  0.55388706846E+02  0.33929433613E+02  0.67759643703E+03  0.70197358195E+03  0.17149595614E+03 0.  0.
        -24    2    3    3    0    0 -0.16390837703E+02 -0.24311747269E+02  0.24450768492E+03  0.25910532235E+03  0.80571952098E+02 0.  0.
          6    2    1    2  501    0 -0.55388706846E+02 -0.33929433613E+02  0.56603785319E+03  0.59483787723E+03  0.17092142530E+03 0.  0.
         24    2    5    5    0    0 -0.51316488555E+02 -0.73970387617E+01  0.55813091713E+03  0.56646252567E+03  0.81740896395E+02 0.  0.
          5    1    5    5  501    0 -0.40722182907E+01 -0.26532394851E+02  0.79069360576E+01  0.28375351560E+02  0.47000000000E+01 0. -1.
        -11    1    6    6    0    0 -0.45008292485E+02  0.33062684680E+02  0.32044280202E+03  0.32527292675E+03  0.00000000000E+00 0.  1.
         12    1    6    6    0    0 -0.63081960705E+01 -0.40459723441E+02  0.23768811512E+03  0.24118959892E+03  0.00000000000E+00 0. -1.
         -5    1    3    3    0  503  0.71779544550E+02  0.58241180881E+02  0.43308875211E+03  0.44286825961E+03  0.47000000000E+01 0.  1.
         11    1    4    4    0    0  0.12907376722E+02  0.15792246388E+02  0.15834527297E+03  0.15965343997E+03  0.00000000000E+00 0. -1.
        -12    1    4    4    0    0 -0.29298214425E+02 -0.40103993657E+02  0.86162411950E+02  0.99451882379E+02  0.00000000000E+00 0.  1.
</event>
<event>
12    1  0.8219652E-002  0.1874268E+03  0.7818608E-02  0.1161082E+00
         21   -1    0    0  501  502  0.00000000000E+00  0.00000000000E+00  0.46795199312E+02  0.46795199312E+02  0.00000000000E+00 0.  1.
         21   -1    0    0  502  503 -0.00000000000E+00 -0.00000000000E+00 -0.10200670771E+04  0.10200670771E+04  0.00000000000E+00 0. -1.
         -6    2    1    2    0  503 -0.22933588151E+02 -0.71170894329E+02 -0.76205787236E+03  0.78447925864E+03  0.17054108228E+03 0.  0.
        -24    2    3    3    0    0  0.21758759294E+02 -0.99998261271E+02 -0.59629833349E+03  0.61033352159E+03  0.80387867207E+02 0.  0.
          6    2    1    2  501    0  0.22933588151E+02  0.71170894329E+02 -0.21121400543E+03  0.28238301778E+03  0.17186496726E+03 0.  0.
         24    2    5    5    0    0  0.51223915540E+02  0.81078054215E+01 -0.18328673855E+03  0.20768818501E+03  0.82769122462E+02 0.  0.
          5    1    5    5  501    0 -0.28290327389E+02  0.63063088908E+02 -0.27927266884E+02  0.74694832766E+02  0.47000000000E+01 0. -1.
        -11    1    6    6    0    0 -0.25723605387E+01 -0.21699859151E+02 -0.10424509129E+02  0.24210975125E+02  0.00000000000E+00 0.  1.
         12    1    6    6    0    0  0.53796276079E+02  0.29807664573E+02 -0.17286222942E+03  0.18347720989E+03  0.00000000000E+00 0. -1.
         -5    1    3    3    0  503 -0.44692347445E+02  0.28827366942E+02 -0.16575953887E+03  0.17414573705E+03  0.47000000000E+01 0.  1.
         13    1    4    4    0    0  0.21525355951E+02  0.67006859916E+01 -0.13387900435E+03  0.13576386835E+03  0.00000000000E+00 0. -1.
        -14    1    4    4    0    0  0.23340334301E+00 -0.10669894726E+03 -0.46241932914E+03  0.47456965325E+03  0.00000000000E+00 0.  1.
</event>
<event>
12    1  0.8219652E-002  0.1889198E+03  0.7818608E-02  0.1159447E+00
         21   -1    0    0  501  502  0.00000000000E+00  0.00000000000E+00  0.54115750601E+02  0.54115750601E+02  0.00000000000E+00 0.  1.
         21   -1    0    0  502  503 -0.00000000000E+00 -0.00000000000E+00 -0.68433623992E+03  0.68433623992E+03  0.00000000000E+00 0.  1.
         -6    2    1    2    0  503  0.35217232314E+02  0.70830078292E+02 -0.24466719484E+03  0.30911601636E+03  0.17156200598E+03 0.  0.
        -24    2    3    3    0    0  0.21320468616E+02 -0.29288215600E+02 -0.97690679155E+02  0.13067560901E+03  0.78868777352E+02 0.  0.
          6    2    1    2  501    0 -0.35217232314E+02 -0.70830078292E+02 -0.38555329448E+03  0.42933597416E+03  0.17152516545E+03 0.  0.
         24    2    5    5    0    0 -0.33378488783E+01 -0.59548565751E+02 -0.38435392419E+03  0.39517318589E+03  0.69833622863E+02 0.  0.
          5    1    5    5  501    0 -0.31879383436E+02 -0.11281512541E+02 -0.11993702826E+01  0.34162788272E+02  0.47000000000E+01 0. -1.
        -11    1    6    6    0    0  0.20817951463E+02 -0.80735498324E+01 -0.22258226706E+03  0.22369942986E+03  0.00000000000E+00 0.  1.
         12    1    6    6    0    0 -0.24155800341E+02 -0.51475015919E+02 -0.16177165713E+03  0.17147375602E+03  0.00000000000E+00 0. -1.
         -5    1    3    3    0  503  0.13896763698E+02  0.10011829389E+03 -0.14697651569E+03  0.17844040735E+03  0.47000000000E+01 0.  1.
         11    1    4    4    0    0  0.19464200489E+02 -0.24488547732E+02 -0.11157030982E+03  0.11587268057E+03  0.00000000000E+00 0. -1.
        -12    1    4    4    0    0  0.18562681272E+01 -0.47996678673E+01  0.13879630661E+02  0.14802928436E+02  0.00000000000E+00 0.  1.
</event>
<event>
12    1  0.8219652E-002  0.1898472E+03  0.7818608E-02  0.1158866E+00
         21   -1    0    0  501  502  0.00000000000E+00  0.00000000000E+00  0.40382750452E+02  0.40382750452E+02  0.00000000000E+00 0. -1.
         21   -1    0    0  502  503 -0.00000000000E+00 -0.00000000000E+00 -0.10008581346E+04  0.10008581346E+04  0.00000000000E+00 0. -1.
         -6    2    1    2    0  503  0.61543968507E+02 -0.45859497641E+02 -0.65452348330E+03  0.68117350850E+03  0.17235314013E+03 0.  0.
        -24    2    3    3    0    0  0.42121581347E+02  0.24402981340E+02 -0.51668517892E+03  0.52517500457E+03  0.80470355999E+02 0.  0.
          6    2    1    2  501    0 -0.61543968507E+02  0.45859497641E+02 -0.30595190085E+03  0.36006737655E+03  0.17364099873E+03 0.  0.
         24    2    5    5    0    0 -0.86597617520E+02  0.52564526409E+02 -0.30767213652E+03  0.33365351749E+03  0.80002183406E+02 0.  0.
          5    1    5    5  501    0  0.25053649014E+02 -0.67050287686E+01  0.17202356637E+01  0.26413859060E+02  0.47000000000E+01 0. -1.
        -11    1    6    6    0    0 -0.28371306137E+02 -0.18183698524E+02 -0.12251691423E+03  0.12706680203E+03  0.00000000000E+00 0.  1.
         12    1    6    6    0    0 -0.58226311384E+02  0.70748224933E+02 -0.18515522229E+03  0.20658671547E+03  0.00000000000E+00 0. -1.
         -5    1    3    3    0  503  0.19422387159E+02 -0.70262478981E+02 -0.13783830438E+03  0.15599850393E+03  0.47000000000E+01 0.  1.
         11    1    4    4    0    0 -0.47462655053E+01 -0.24464993922E+02 -0.18302437835E+03  0.18471325355E+03  0.00000000000E+00 0. -1.
        -12    1    4    4    0    0  0.46867846853E+02  0.48867975262E+02 -0.33366080057E+03  0.34046175103E+03  0.00000000000E+00 0.  1.
</event>
<event>
12    1  0.8219652E-002  0.2084699E+03  0.7818608E-02  0.1143874E+00
         21   -1    0    0  501  502  0.00000000000E+00  0.00000000000E+00  0.34854761876E+03  0.34854761876E+03  0.00000000000E+00 0. -1.
         21   -1    0    0  502  503 -0.00000000000E+00 -0.00000000000E+00 -0.15715984548E+03  0.15715984548E+03  0.00000000000E+00 0. -1.
         -6    2    1    2    0  503  0.91361757092E+02 -0.58231467095E+02 -0.25728772888E+02  0.20471027374E+03  0.17177442184E+03 0.  0.
        -24    2    3    3    0    0  0.10224135062E+03 -0.94547224433E+02 -0.13381727771E+02  0.16456380055E+03  0.86658539027E+02 0.  0.
          6    2    1    2  501    0 -0.91361757092E+02  0.58231467095E+02  0.21711654616E+03  0.30099719050E+03  0.17810625945E+03 0.  0.
         24    2    5    5    0    0 -0.83942763020E+01 -0.10196399994E+02 -0.82976890488E+01  0.51197984543E+02  0.48764244383E+02 0.  0.
          5    1    5    5  501    0 -0.82967480790E+02  0.68427867089E+02  0.22541423521E+03  0.24979920596E+03  0.47000000000E+01 0. -1.
        -13    1    6    6    0    0  0.20451903947E+02 -0.41672752188E+01 -0.13211414294E+01  0.20913918152E+02  0.00000000000E+00 0.  1.
         14    1    6    6    0    0 -0.28846180248E+02 -0.60291247748E+01 -0.69765476194E+01  0.30284066391E+02  0.00000000000E+00 0. -1.
         -5    1    3    3    0  503 -0.10879593533E+02  0.36315757338E+02 -0.12347045116E+02  0.40146473190E+02  0.47000000000E+01 0.  1.
         11    1    4    4    0    0  0.37881957155E+02 -0.92049228173E+02 -0.10496502596E+02  0.10009135653E+03  0.00000000000E+00 0. -1.
        -12    1    4    4    0    0  0.64359393470E+02 -0.24979962601E+01 -0.28852251755E+01  0.64472444017E+02  0.00000000000E+00 0.  1.
</event>
<event>
12    1  0.8219652E-002  0.2110994E+03  0.7818608E-02  0.1140809E+00
         21   -1    0    0  501  502  0.00000000000E+00  0.00000000000E+00  0.30144228478E+03  0.30144228478E+03  0.00000000000E+00 0. -1.
         21   -1    0    0  502  503 -0.00000000000E+00 -0.00000000000E+00 -0.22591297717E+03  0.22591297717E+03  0.00000000000E+00 0. -1.
         -6    2    1    2    0  503  0.88281896043E+02 -0.83951923917E+02 -0.11760694036E+03  0.24164922399E+03  0.17239877128E+03 0.  0.
        -24    2    3    3    0    0  0.39071516561E+02  0.14551455583E+01 -0.19481455665E+01  0.89612794879E+02  0.80609905594E+02 0.  0.
          6    2    1    2  501    0 -0.88281896043E+02  0.83951923917E+02  0.19313624797E+03  0.28570603796E+03  0.17171112705E+03 0.  0.
         24    2    5    5    0    0 -0.20966233357E+02  0.10591562413E+03  0.94654907187E+02  0.16432042493E+03  0.79899613386E+02 0.  0.
          5    1    5    5  501    0 -0.67315662686E+02 -0.21963700209E+02  0.98481340782E+02  0.12138561304E+03  0.47000000000E+01 0. -1.
        -13    1    6    6    0    0  0.17436835357E+02  0.57548189049E+01  0.39814072293E+02  0.43844287204E+02  0.00000000000E+00 0.  1.
         14    1    6    6    0    0 -0.38403068714E+02  0.10016080522E+03  0.54840834894E+02  0.12047613772E+03  0.00000000000E+00 0. -1.
         -5    1    3    3    0  503  0.49210379482E+02 -0.85407069475E+02 -0.11565879479E+03  0.15203642911E+03  0.47000000000E+01 0.  1.
         11    1    4    4    0    0 -0.11399471375E+02 -0.79965208395E+00 -0.29804871453E+02  0.31920491122E+02  0.00000000000E+00 0. -1.
        -12    1    4    4    0    0  0.50470987936E+02  0.22547976422E+01  0.27856725887E+02  0.57692303757E+02  0.00000000000E+00 0.  1.
</event>
<event>
12    1  0.8219652E-002  0.1960793E+03  0.7818608E-02  0.1153484E+00
         21   -1    0    0  503  502  0.00000000000E+00  0.00000000000E+00  0.20920648355E+04  0.20920648355E+04  0.00000000000E+00 0.  1.
         21   -1    0    0  501  503 -0.00000000000E+00 -0.00000000000E+00 -0.19262217917E+02  0.19262217917E+02  0.00000000000E+00 0.  1.
          6    2    1    2  501    0  0.52541392791E+02  0.81701185774E+02  0.79399732292E+03  0.81785014040E+03  0.17032739543E+03 0.  0.
         24    2    3    3    0    0  0.18552639446E+01  0.96289065075E+02  0.37244343224E+03  0.39298349941E+03  0.80292555883E+02 0.  0.
         -6    2    1    2    0  502 -0.52541392791E+02 -0.81701185774E+02  0.12788052947E+04  0.12934769130E+04  0.16823751408E+03 0.  0.
        -24    2    5    5    0    0 -0.73306135855E+02 -0.29683628839E+01  0.81291445879E+03  0.82050081118E+03  0.83720147607E+02 0.  0.
          5    1    3    3  501    0  0.50686128847E+02 -0.14587879301E+02  0.42155389068E+03  0.42486664099E+03  0.47000000000E+01 0. -1.
        -13    1    4    4    0    0  0.47630659789E-01  0.32259647779E+02  0.27164753525E+03  0.27355633890E+03  0.00000000000E+00 0.  1.
         14    1    4    4    0    0  0.18076332848E+01  0.64029417296E+02  0.10079589699E+03  0.11942716051E+03  0.00000000000E+00 0. -1.
         -5    1    5    5    0  502  0.20764743063E+02 -0.78732822890E+02  0.46589083591E+03  0.47297610187E+03  0.47000000000E+01 0.  1.
         13    1    6    6    0    0 -0.86662844316E+02 -0.20201653405E+02  0.61877159234E+03  0.62513745598E+03  0.00000000000E+00 0. -1.
        -14    1    6    6    0    0  0.13356708461E+02  0.17233290521E+02  0.19414286645E+03  0.19536335521E+03  0.00000000000E+00 0.  1.
</event>
<event>
12    1  0.8219652E-002  0.2013321E+03  0.7818608E-02  0.1149277E+00
         21   -1    0    0  503  502  0.00000000000E+00  0.00000000000E+00  0.36560280484E+03  0.36560280484E+03  0.00000000000E+00 0. -1.
         21   -1    0    0  501  503 -0.00000000000E+00 -0.00000000000E+00 -0.11922694591E+03  0.11922694591E+03  0.00000000000E+00 0. -1.
          6    2    1    2  501    0 -0.35316918614E+02 -0.96148051466E+02  0.53636245613E+02  0.20835412799E+03  0.17332877219E+03 0.  0.
         24    2    3    3    0    0 -0.72466360713E+02 -0.49174066075E+02 -0.12707080278E+02  0.11885461268E+03  0.79344104102E+02 0.  0.
         -6    2    1    2    0  502  0.35316918614E+02  0.96148051466E+02  0.19273961331E+03  0.27647562275E+03  0.16970114582E+03 0.  0.
        -24    2    5    5    0    0  0.83380436484E+01  0.13039915923E+03  0.16456147279E+03  0.22434985483E+03  0.78606076962E+02 0.  0.
          5    1    3    3  501    0  0.37149442100E+02 -0.46973985391E+02  0.66343325891E+02  0.89499515318E+02  0.47000000000E+01 0. -1.
        -11    1    4    4    0    0  0.17601688221E+01 -0.36174746209E+02  0.14109780200E+02  0.38868963902E+02  0.00000000000E+00 0.  1.
         12    1    4    4    0    0 -0.74226529535E+02 -0.12999319866E+02 -0.26816860478E+02  0.79985648774E+02  0.00000000000E+00 0. -1.
         -5    1    5    5    0  502  0.26978874965E+02 -0.34251107769E+02  0.28178140525E+02  0.52125767920E+02  0.47000000000E+01 0.  1.
         13    1    6    6    0    0  0.41764646168E+02  0.79591243687E+02  0.80975644319E+02  0.12097977812E+03  0.00000000000E+00 0. -1.
        -14    1    6    6    0    0 -0.33426602519E+02  0.50807915548E+02  0.83585828469E+02  0.10337007671E+03  0.00000000000E+00 0.  1.
</event>
<event>
12    1  0.8219652E-002  0.1836791E+03  0.7818608E-02  0.1164549E+00
         21   -1    0    0  501  502  0.00000000000E+00  0.00000000000E+00  0.13086876788E+03  0.13086876788E+03  0.00000000000E+00 0. -1.
         21   -1    0    0  502  503 -0.00000000000E+00 -0.00000000000E+00 -0.25776759470E+03  0.25776759470E+03  0.00000000000E+00 0. -1.
         -6    2    1    2    0  503  0.20549197227E+02  0.63689250180E+02 -0.78496397483E+02  0.19974909102E+03  0.17105386534E+03 0.  0.
        -24    2    3    3    0    0 -0.40130406759E+01 -0.29710168077E+02 -0.22199566150E+02  0.87864426831E+02  0.79552109856E+02 0.  0.
          6    2    1    2  501    0 -0.20549197227E+02 -0.63689250180E+02 -0.48402429333E+02  0.18888727156E+03  0.16987352971E+03 0.  0.
         24    2    5    5    0    0  0.30848684601E+02  0.16088718685E+02 -0.30973190956E+02  0.92284295813E+02  0.79665327998E+02 0.  0.
          5    1    5    5  501    0 -0.51397881828E+02 -0.79777968865E+02 -0.17429238376E+02  0.96602975746E+02  0.47000000000E+01 0. -1.
        -13    1    6    6    0    0 -0.71372494681E+01  0.63979410907E+01 -0.48430878844E+02  0.49370274516E+02  0.00000000000E+00 0.  1.
         14    1    6    6    0    0  0.37985934069E+02  0.96907775946E+01  0.17457687887E+02  0.42914021297E+02  0.00000000000E+00 0. -1.
         -5    1    3    3    0  503  0.24562237903E+02  0.93399418257E+02 -0.56296831333E+02  0.11188466418E+03  0.47000000000E+01 0.  1.
         13    1    4    4    0    0  0.21786563810E+02  0.17517202048E+02  0.35972884665E+01  0.28185940015E+02  0.00000000000E+00 0. -1.
        -14    1    4    4    0    0 -0.25799604486E+02 -0.47227370125E+02 -0.25796854616E+02  0.59678486816E+02  0.00000000000E+00 0.  1.
</event>
<event>
12    1  0.8219652E-002  0.2346190E+03  0.7818608E-02  0.1123492E+00
         21   -1    0    0  501  502  0.00000000000E+00  0.00000000000E+00  0.12407138356E+03  0.12407138356E+03  0.00000000000E+00 0.  1.
         21   -1    0    0  502  503 -0.00000000000E+00 -0.00000000000E+00 -0.45587859840E+03  0.45587859840E+03  0.00000000000E+00 0.  1.
         -6    2    1    2    0  503  0.24220395758E+02 -0.15673722648E+03 -0.21479401739E+03  0.31809206419E+03  0.17289564962E+03 0.  0.
        -24    2    3    3    0    0  0.25649972080E+02 -0.15886043998E+02 -0.43391042983E+02  0.96186298311E+02  0.80366248575E+02 0.  0.
          6    2    1    2  501    0 -0.24220395758E+02  0.15673722648E+03 -0.11701319745E+03  0.26185791777E+03  0.17240735189E+03 0.  0.
         24    2    5    5    0    0 -0.44623735779E+02  0.42112254880E+02 -0.99382567524E+02  0.14401009424E+03  0.84245431394E+02 0.  0.
          5    1    5    5  501    0  0.20403340021E+02  0.11462497160E+03 -0.17630629926E+02  0.11784782353E+03  0.47000000000E+01 0. -1.
        -11    1    6    6    0    0 -0.15601466330E+02  0.23561644568E+02  0.94971661260E+01  0.29811960868E+02  0.00000000000E+00 0.  1.
         12    1    6    6    0    0 -0.29022269450E+02  0.18550610312E+02 -0.10887973365E+03  0.11419813338E+03  0.00000000000E+00 0. -1.
         -5    1    3    3    0  503 -0.14295763213E+01 -0.14085118248E+03 -0.17140297441E+03  0.22190576588E+03  0.47000000000E+01 0.  1.
         11    1    4    4    0    0  0.56359818628E+01  0.61981770032E+01  0.22423833056E+02  0.23937626838E+02  0.00000000000E+00 0. -1.
        -12    1    4    4    0    0  0.20013990217E+02 -0.22084221001E+02 -0.65814876039E+02  0.72248671473E+02  0.00000000000E+00 0.  1.
</event>
<event>
12    1  0.8219652E-002  0.1959989E+03  0.7818608E-02  0.1153207E+00
         21   -1    0    0  501  502  0.00000000000E+00  0.00000000000E+00  0.55940952791E+03  0.55940952791E+03  0.00000000000E+00 0. -1.
         21   -1    0    0  502  503 -0.00000000000E+00 -0.00000000000E+00 -0.69526710392E+02  0.69526710392E+02  0.00000000000E+00 0. -1.
         -6    2    1    2    0  503 -0.17763241393E+02  0.91695177026E+02  0.20866776470E+03  0.28628274878E+03  0.17231377772E+03 0.  0.
        -24    2    3    3    0    0  0.45755869328E+02  0.12970281441E+02  0.76265906173E+02  0.11959553046E+03  0.78897241286E+02 0.  0.
          6    2    1    2  501    0  0.17763241393E+02 -0.91695177026E+02  0.28121505282E+03  0.34265348952E+03  0.17206385360E+03 0.  0.
         24    2    5    5    0    0 -0.24697588182E+02  0.14583046113E+02  0.12762677203E+03  0.15105643120E+03  0.75543473391E+02 0.  0.
          5    1    5    5  501    0  0.42460829575E+02 -0.10627822314E+03  0.15358828079E+03  0.19159705832E+03  0.47000000000E+01 0. -1.
        -11    1    6    6    0    0 -0.42824226191E+02 -0.26456980091E+01  0.35783362610E+02  0.55869160603E+02  0.00000000000E+00 0.  1.
         12    1    6    6    0    0  0.18126638009E+02  0.17228744123E+02  0.91843409424E+02  0.95187270600E+02  0.00000000000E+00 0. -1.
         -5    1    3    3    0  503 -0.63519110721E+02  0.78724895585E+02  0.13240185853E+03  0.16668721833E+03  0.47000000000E+01 0.  1.
         11    1    4    4    0    0 -0.50613621926E+01  0.27145415761E+02  0.93666190838E+00  0.27629120862E+02  0.00000000000E+00 0. -1.
        -12    1    4    4    0    0  0.50817231521E+02 -0.14175134321E+02  0.75329244265E+02  0.91966409596E+02  0.00000000000E+00 0.  1.
</event>
<event>
12    1  0.8219652E-002  0.3207640E+03  0.7818608E-02  0.1075304E+00
         21   -1    0    0  503  502  0.00000000000E+00  0.00000000000E+00  0.49804255420E+03  0.49804255420E+03  0.00000000000E+00 0. -1.
         21   -1    0    0  501  503 -0.00000000000E+00 -0.00000000000E+00 -0.52757380441E+03  0.52757380441E+03  0.00000000000E+00 0.  1.
          6    2    1    2  501    0  0.18010973216E+03  0.20279443840E+03 -0.41478388117E+03  0.52434267095E+03  0.17124388642E+03 0.  0.
         24    2    3    3    0    0  0.96469187143E+02  0.18852485447E+03 -0.23376249477E+03  0.32436718712E+03  0.75638900713E+02 0.  0.
         -6    2    1    2    0  502 -0.18010973216E+03 -0.20279443840E+03  0.38525263096E+03  0.50127368766E+03  0.17114502742E+03 0.  0.
        -24    2    5    5    0    0 -0.17336344026E+03 -0.10386798871E+03  0.30090294020E+03  0.37100889873E+03  0.79130158724E+02 0.  0.
          5    1    3    3  501    0  0.83640545019E+02  0.14269583928E+02 -0.18102138640E+03  0.19997548383E+03  0.47000000000E+01 0. -1.
        -11    1    4    4    0    0 -0.43793647018E+01  0.23599055426E+02 -0.59276533484E+02  0.63951557245E+02  0.00000000000E+00 0.  1.
         12    1    4    4    0    0  0.10084855184E+03  0.16492579905E+03 -0.17448596128E+03  0.26041562988E+03  0.00000000000E+00 0. -1.
         -5    1    5    5    0  502 -0.67462919032E+01 -0.98926449690E+02  0.84349690756E+02  0.13026478892E+03  0.47000000000E+01 0.  1.
         11    1    6    6    0    0 -0.17043204697E+03 -0.95896543925E+02  0.24032101953E+03  0.30983450776E+03  0.00000000000E+00 0. -1.
        -12    1    6    6    0    0 -0.29313932899E+01 -0.79714447849E+01  0.60581920673E+02  0.61174390974E+02  0.00000000000E+00 0.  1.
</event>
<event>
12    1  0.8219652E-002  0.1740829E+03  0.7818608E-02  0.1174282E+00
         21   -1    0    0  501  502  0.00000000000E+00  0.00000000000E+00  0.50711797589E+03  0.50711797589E+03  0.00000000000E+00 0.  1.
         21   -1    0    0  502  503 -0.00000000000E+00 -0.00000000000E+00 -0.13152141752E+03  0.13152141752E+03  0.00000000000E+00 0.  1.
         -6    2    1    2    0  503  0.21642396217E+02  0.25410938264E+01 -0.50048430542E+02  0.17877147118E+03  0.17023378935E+03 0.  0.
        -24    2    3    3    0    0 -0.27683051501E+01 -0.25751109149E+02  0.32229804142E+02  0.88283190206E+02  0.78002424719E+02 0.  0.
          6    2    1    2  501    0 -0.21642396217E+02 -0.25410938264E+01  0.42564498891E+03  0.45986792223E+03  0.17271363246E+03 0.  0.
         24    2    5    5    0    0  0.41435645017E+02  0.19478937586E+02  0.33411259948E+03  0.34644839400E+03  0.79365728649E+02 0.  0.
          5    1    5    5  501    0 -0.63078041234E+02 -0.22020031412E+02  0.91532389431E+02  0.11341952823E+03  0.47000000000E+01 0. -1.
        -11    1    6    6    0    0  0.14621720891E+02  0.42364660771E+02  0.26604770840E+03  0.26979611255E+03  0.00000000000E+00 0.  1.
         12    1    6    6    0    0  0.26813924126E+02 -0.22885723185E+02  0.68064891082E+02  0.76652281445E+02  0.00000000000E+00 0. -1.
         -5    1    3    3    0  503  0.24410701367E+02  0.28292202975E+02 -0.82278234684E+02  0.90488280971E+02  0.47000000000E+01 0.  1.
         13    1    4    4    0    0  0.34242835918E+02  0.33876014409E+01  0.19222902536E+02  0.39415322365E+02  0.00000000000E+00 0. -1.
        -14    1    4    4    0    0 -0.37011141068E+02 -0.29138710590E+02  0.13006901606E+02  0.48867867841E+02  0.00000000000E+00 0.  1.
</event>
<event>
12    1  0.8219652E-002  0.1786020E+03  0.7818608E-02  0.1171560E+00
         21   -1    0    0  503  502  0.00000000000E+00  0.00000000000E+00  0.92706389463E+03  0.92706389463E+03  0.00000000000E+00 0.  1.
         21   -1    0    0  501  503 -0.00000000000E+00 -0.00000000000E+00 -0.41187659051E+02  0.41187659051E+02  0.00000000000E+00 0.  1.
          6    2    1    2  501    0 -0.34527955345E+02 -0.37958004654E+02  0.23152018296E+03  0.29240431097E+03  0.17107219569E+03 0.  0.
         24    2    3    3    0    0 -0.12340661321E+02  0.32480499793E+02  0.18492807610E+03  0.20495848005E+03  0.81254602472E+02 0.  0.
         -6    2    1    2    0  502  0.34527955345E+02  0.37958004654E+02  0.65435605262E+03  0.67584724271E+03  0.16110450665E+03 0.  0.
        -24    2    5    5    0    0  0.76922208426E+02  0.52609137391E+02  0.48031566447E+03  0.49605826893E+03  0.81767482262E+02 0.  0.
          5    1    3    3  501    0 -0.22187294024E+02 -0.70438504447E+02  0.46592106855E+02  0.87445830924E+02  0.47000000000E+01 0. -1.
        -13    1    4    4    0    0 -0.38757941702E+02 -0.81603205425E+01  0.91501993574E+02  0.99706487774E+02  0.00000000000E+00 0.  1.
         14    1    4    4    0    0  0.26417280381E+02  0.40640820335E+02  0.93426082529E+02  0.10525199227E+03  0.00000000000E+00 0. -1.
         -5    1    5    5    0  502 -0.42394253081E+02 -0.14651132737E+02  0.17404038815E+03  0.17978897378E+03  0.47000000000E+01 0.  1.
         13    1    6    6    0    0  0.24246835542E+02  0.26794429377E+02  0.36398357985E+03  0.36577301278E+03  0.00000000000E+00 0. -1.
        -14    1    6    6    0    0  0.52675372884E+02  0.25814708014E+02  0.11633208462E+03  0.13028525615E+03  0.00000000000E+00 0.  1.
</event>
<event>
12    1  0.8219652E-002  0.2014162E+03  0.7818608E-02  0.1149071E+00
         21   -1    0    0  503  502  0.00000000000E+00  0.00000000000E+00  0.34748337592E+03  0.34748337592E+03  0.00000000000E+00 0.  1.
         21   -1    0    0  501  503 -0.00000000000E+00 -0.00000000000E+00 -0.12730289183E+03  0.12730289183E+03  0.00000000000E+00 0.  1.
          6    2    1    2  501    0  0.70352104386E+02 -0.79383915963E+02  0.36633971650E+02  0.20228341314E+03  0.16830123781E+03 0.  0.
         24    2    3    3    0    0  0.88878833004E+02 -0.43115448871E+02 -0.23293659567E+02  0.12967451313E+03  0.80712427116E+02 0.  0.
         -6    2    1    2    0  502 -0.70352104386E+02  0.79383915963E+02  0.18354651244E+03  0.27250285461E+03  0.17122283386E+03 0.  0.
        -24    2    5    5    0    0 -0.94675935658E+02  0.10579633162E+03  0.13621791416E+03  0.21290964456E+03  0.81356007955E+02 0.  0.
          5    1    3    3  501    0 -0.18526728618E+02 -0.36268467092E+02  0.59927631218E+02  0.72608900018E+02  0.47000000000E+01 0. -1.
        -13    1    4    4    0    0  0.92871546139E+02 -0.36746500074E+02  0.53898338684E+01  0.10002239579E+03  0.00000000000E+00 0.  1.
         14    1    4    4    0    0 -0.39927131354E+01 -0.63689487962E+01 -0.28683493436E+02  0.29652117338E+02  0.00000000000E+00 0. -1.
         -5    1    5    5    0  502  0.24323831273E+02 -0.26412415659E+02  0.47328598277E+02  0.59593210046E+02  0.47000000000E+01 0.  1.
         13    1    6    6    0    0  0.13381419116E+02  0.10255529576E+02  0.41954593206E+01  0.17373547230E+02  0.00000000000E+00 0. -1.
        -14    1    6    6    0    0 -0.10805735477E+03  0.95540802046E+02  0.13202245484E+03  0.19553609733E+03  0.00000000000E+00 0.  1.
</event>
<event>
12    1  0.8219652E-002  0.2048547E+03  0.7818608E-02  0.1146308E+00
         21   -1    0    0  503  502  0.00000000000E+00  0.00000000000E+00  0.11641450389E+04  0.11641450389E+04  0.00000000000E+00 0.  1.
         21   -1    0    0  501  503 -0.00000000000E+00 -0.00000000000E+00 -0.42680127787E+02  0.42680127787E+02  0.00000000000E+00 0.  1.
          6    2    1    2  501    0  0.71057941957E+02 -0.85691956898E+02  0.31052881299E+03  0.37041450623E+03  0.16848269981E+03 0.  0.
         24    2    3    3    0    0  0.32628444743E+02 -0.57340059949E+02  0.63034190913E+02  0.11831068977E+03  0.75310106942E+02 0.  0.
         -6    2    1    2    0  502 -0.71057941957E+02  0.85691956898E+02  0.81093609810E+03  0.83641066044E+03  0.17196829679E+03 0.  0.
        -24    2    5    5    0    0 -0.20589073064E+02  0.17571815476E+02  0.17190537469E+03  0.19176361293E+03  0.80555240482E+02 0.  0.
          5    1    3    3  501    0  0.38429497214E+02 -0.28351896949E+02  0.24749462208E+03  0.25210381646E+03  0.47000000000E+01 0. -1.
        -13    1    4    4    0    0  0.19744396506E+02  0.13451349659E+02  0.20309983776E+01  0.23977175718E+02  0.00000000000E+00 0.  1.
         14    1    4    4    0    0  0.12884048237E+02 -0.70791409607E+02  0.61003192535E+02  0.94333514048E+02  0.00000000000E+00 0. -1.
         -5    1    5    5    0  502 -0.50468868893E+02  0.68120141422E+02  0.63903072341E+03  0.64464704751E+03  0.47000000000E+01 0.  1.
         11    1    6    6    0    0 -0.36611924612E+02  0.15855910454E+02  0.17103362864E+03  0.17562558198E+03  0.00000000000E+00 0. -1.
        -12    1    6    6    0    0  0.16022851548E+02  0.17159050219E+01  0.87174604617E+00  0.16138030950E+02  0.00000000000E+00 0.  1.
</event>
<event>
12    1  0.8219652E-002  0.2615126E+03  0.7818608E-02  0.1106766E+00
         21   -1    0    0  501  502  0.00000000000E+00  0.00000000000E+00  0.13574513659E+03  0.13574513659E+03  0.00000000000E+00 0. -1.
         21   -1    0    0  502  503 -0.00000000000E+00 -0.00000000000E+00 -0.72705260096E+03  0.72705260096E+03  0.00000000000E+00 0.  1.
         -6    2    1    2    0  503  0.73465972755E+02  0.18277868955E+03 -0.53966210984E+03  0.59968663285E+03  0.17199873929E+03 0.  0.
        -24    2    3    3    0    0  0.77323283745E+02  0.80575435830E+02 -0.18274560831E+03  0.22837562711E+03  0.79298036755E+02 0.  0.
          6    2    1    2  501    0 -0.73465972755E+02 -0.18277868955E+03 -0.51645354530E+02  0.26311110469E+03  0.16659805599E+03 0.  0.
         24    2    5    5    0    0 -0.55374146395E+02 -0.34018182056E+02 -0.46020633915E+02  0.11307534144E+03  0.80278274131E+02 0.  0.
          5    1    5    5  501    0 -0.18091826360E+02 -0.14876050749E+03 -0.56247206144E+01  0.15003576325E+03  0.47000000000E+01 0. -1.
        -11    1    6    6    0    0 -0.69829350718E+02 -0.23208584098E+02 -0.55981629450E+02  0.92459285274E+02  0.00000000000E+00 0.  1.
         12    1    6    6    0    0  0.14455204323E+02 -0.10809597958E+02  0.99609955342E+01  0.20616056171E+02  0.00000000000E+00 0. -1.
         -5    1    3    3    0  503 -0.38573109899E+01  0.10220325372E+03 -0.35691650153E+03  0.37131100574E+03  0.47000000000E+01 0.  1.
         11    1    4    4    0    0 -0.12512346675E+02  0.30490867999E+02 -0.32420866200E+02  0.46231638689E+02  0.00000000000E+00 0. -1.
        -12    1    4    4    0    0  0.89835630421E+02  0.50084567831E+02 -0.15032474211E+03  0.18214398842E+03  0.00000000000E+00 0.  1.
</event>
<event>
12    1  0.8219652E-002  0.2291788E+03  0.7818608E-02  0.1127890E+00
         21   -1    0    0  501  502  0.00000000000E+00  0.00000000000E+00  0.87430777884E+03  0.87430777884E+03  0.00000000000E+00 0. -1.
         21   -1    0    0  502  503 -0.00000000000E+00 -0.00000000000E+00 -0.11657802644E+03  0.11657802644E+03  0.00000000000E+00 0. -1.
         -6    2    1    2    0  503 -0.14097928233E+02  0.15451460095E+03  0.72518056689E+03  0.75940717694E+03  0.16352031160E+03 0.  0.
        -24    2    3    3    0    0  0.45435508237E+02  0.13468180631E+03  0.53501392367E+03  0.55909988303E+03  0.78416875223E+02 0.  0.
          6    2    1    2  501    0  0.14097928233E+02 -0.15451460095E+03  0.32549185512E+02  0.23147862835E+03  0.16866947684E+03 0.  0.
         24    2    5    5    0    0 -0.53669732726E+02 -0.78448014998E+02  0.40269354794E+02  0.12920315532E+03  0.77700084560E+02 0.  0.
          5    1    5    5  501    0  0.67767660959E+02 -0.76066585950E+02 -0.77201692821E+01  0.10227547303E+03  0.47000000000E+01 0. -1.
        -11    1    6    6    0    0  0.13668158435E+02  0.39786115561E+01  0.13120484433E+02  0.19359623360E+02  0.00000000000E+00 0.  1.
         12    1    6    6    0    0 -0.67337891161E+02 -0.82426626554E+02  0.27148870361E+02  0.10984353196E+03  0.00000000000E+00 0. -1.
         -5    1    3    3    0  503 -0.59533436470E+02  0.19832794634E+02  0.19016664322E+03  0.20030729391E+03  0.47000000000E+01 0.  1.
         13    1    4    4    0    0 -0.21883629128E+02  0.46100844585E+02  0.17444921779E+03  0.18176003599E+03  0.00000000000E+00 0. -1.
        -14    1    4    4    0    0  0.67319137365E+02  0.88580961728E+02  0.36056470588E+03  0.37733984704E+03  0.00000000000E+00 0.  1.
</event>
<event>
12    1  0.8219652E-002  0.2040866E+03  0.7818608E-02  0.1146535E+00
         21   -1    0    0  503  502  0.00000000000E+00  0.00000000000E+00  0.20737622514E+03  0.20737622514E+03  0.00000000000E+00 0. -1.
         21   -1    0    0  501  503 -0.00000000000E+00 -0.00000000000E+00 -0.26749614304E+03  0.26749614304E+03  0.00000000000E+00 0. -1.
          6    2    1    2  501    0  0.31760595080E+02  0.10516960059E+03 -0.14936183494E+03  0.25212706672E+03  0.17084999194E+03 0.  0.
         24    2    3    3    0    0 -0.39231479397E+02  0.94224954749E+02 -0.75727342711E+02  0.14915236906E+03  0.78066303167E+02 0.  0.
         -6    2    1    2    0  502 -0.31760595080E+02 -0.10516960059E+03  0.89241917031E+02  0.22274530146E+03  0.17199409664E+03 0.  0.
        -24    2    5    5    0    0 -0.41532786861E+02 -0.11985377874E+03  0.19418618701E+02  0.15057533673E+03  0.78777843445E+02 0.  0.
          5    1    3    3  501    0  0.70992074478E+02  0.10944645846E+02 -0.73634492224E+02  0.10297469765E+03  0.47000000000E+01 0. -1.
        -11    1    4    4    0    0 -0.51303706914E+02  0.23803981529E+02 -0.27010552694E+02  0.62675911134E+02  0.00000000000E+00 0.  1.
         12    1    4    4    0    0  0.12072227516E+02  0.70420973220E+02 -0.48716790017E+02  0.86476457929E+02  0.00000000000E+00 0. -1.
         -5    1    5    5    0  502  0.97721917808E+01  0.14684178141E+02  0.69823298330E+02  0.72169964733E+02  0.47000000000E+01 0.  1.
         11    1    6    6    0    0 -0.21514844638E+02 -0.56361988034E+02  0.49005051215E+02  0.77724238687E+02  0.00000000000E+00 0. -1.
        -12    1    6    6    0    0 -0.20017942223E+02 -0.63491790702E+02 -0.29586432514E+02  0.72851098045E+02  0.00000000000E+00 0.  1.
</event>
<event>
12    1  0.8219652E-002  0.1918576E+03  0.7818608E-02  0.1157120E+00
         21   -1    0    0  501  502  0.00000000000E+00  0.00000000000E+00  0.48036852696E+03  0.48036852696E+03  0.00000000000E+00 0.  1.
         21   -1    0    0  502  503 -0.00000000000E+00 -0.00000000000E+00 -0.10815007340E+03  0.10815007340E+03  0.00000000000E+00 0. -1.
         -6    2    1    2    0  503 -0.60569648698E+02  0.54098636010E+02  0.26293048047E+02  0.19365089500E+03  0.17382174777E+03 0.  0.
        -24    2    3    3    0    0 -0.10005534049E+03  0.54748730266E+02  0.46674958773E+02  0.14896247632E+03  0.83682572555E+02 0.  0.
          6    2    1    2  501    0  0.60569648698E+02 -0.54098636010E+02  0.34592540551E+03  0.39486770536E+03  0.17222303505E+03 0.  0.
         24    2    5    5    0    0  0.10065054233E+03 -0.41076217107E+02  0.18769617838E+03  0.23105488613E+03  0.79616064606E+02 0.  0.
          5    1    5    5  501    0 -0.40080893628E+02 -0.13022418903E+02  0.15822922712E+03  0.16381281923E+03  0.47000000000E+01 0. -1.
        -11    1    6    6    0    0  0.13972167384E+02  0.23024079657E+02  0.38581192354E+02  0.47051441093E+02  0.00000000000E+00 0.  1.
         12    1    6    6    0    0  0.86678374942E+02 -0.64100296763E+02  0.14911498603E+03  0.18400344504E+03  0.00000000000E+00 0. -1.
         -5    1    3    3    0  503  0.39485691793E+02 -0.65009425615E+00 -0.20381910726E+02  0.44688418676E+02  0.47000000000E+01 0.  1.
         11    1    4    4    0    0 -0.31721117935E+02  0.49028547599E+02 -0.10924004478E+02  0.59408431023E+02  0.00000000000E+00 0. -1.
        -12    1    4    4    0    0 -0.68334222556E+02  0.57201826668E+01  0.57598963252E+02  0.89554045301E+02  0.00000000000E+00 0.  1.
</event>
<event>
12    1  0.8219652E-002  0.1996912E+03  0.7818608E-02  0.1150417E+00
         21   -1    0    0  501  502  0.00000000000E+00  0.00000000000E+00  0.70582098497E+03  0.70582098497E+03  0.00000000000E+00 0. -1.
         21   -1    0    0  502  503 -0.00000000000E+00 -0.00000000000E+00 -0.67162026984E+02  0.67162026984E+02  0.00000000000E+00 0. -1.
         -6    2    1    2    0  503  0.54206595462E+01  0.95103705358E+02  0.16004686224E+03  0.25438287634E+03  0.17326728295E+03 0.  0.
        -24    2    3    3    0    0  0.34229244177E+02  0.19835199680E+02  0.14628143986E+03  0.17248745920E+03  0.82392885795E+02 0.  0.
          6    2    1    2  501    0 -0.54206595462E+01 -0.95103705358E+02  0.47861209575E+03  0.51860013562E+03  0.17550630798E+03 0.  0.
         24    2    5    5    0    0  0.16968802840E+02  0.16219447852E+01  0.11441276232E+03  0.14108141569E+03  0.80765801534E+02 0.  0.
          5    1    5    5  501    0 -0.22389462386E+02 -0.96725650143E+02  0.36419933343E+03  0.37751871993E+03  0.47000000000E+01 0. -1.
        -11    1    6    6    0    0 -0.16154925786E+01  0.32258479166E+02  0.94973698314E+02  0.10031561526E+03  0.00000000000E+00 0.  1.
         12    1    6    6    0    0  0.18584295419E+02 -0.30636534381E+02  0.19439064005E+02  0.40765800427E+02  0.00000000000E+00 0. -1.
         -5    1    3    3    0  503 -0.28808584631E+02  0.75268505678E+02  0.13765422375E+02  0.81895417141E+02  0.47000000000E+01 0.  1.
         13    1    4    4    0    0 -0.15831383871E+02 -0.74515681555E+01  0.23242629981E+01  0.17651084435E+02  0.00000000000E+00 0. -1.
        -14    1    4    4    0    0  0.50060628048E+02  0.27286767835E+02  0.14395717686E+03  0.15483637476E+03  0.00000000000E+00 0.  1.
</event>
<event>
12    1  0.8219652E-002  0.1903487E+03  0.7818608E-02  0.1158160E+00
         21   -1    0    0  503  502  0.00000000000E+00  0.00000000000E+00  0.17934245576E+03  0.17934245576E+03  0.00000000000E+00 0. -1.
         21   -1    0    0  501  503 -0.00000000000E+00 -0.00000000000E+00 -0.64818621582E+03  0.64818621582E+03  0.00000000000E+00 0. -1.
          6    2    1    2  501    0 -0.77688318634E+02  0.21932819795E+02 -0.57771209483E+03  0.60824589827E+03  0.17232319871E+03 0.  0.
         24    2    3    3    0    0 -0.10265799121E+03  0.32850062535E+02 -0.55909186931E+03  0.57490712901E+03  0.79477662810E+02 0.  0.
         -6    2    1    2    0  502  0.77688318634E+02 -0.21932819795E+02  0.10886833478E+03  0.21928277331E+03  0.17238357496E+03 0.  0.
        -24    2    5    5    0    0  0.98343151003E+02  0.23917355788E+02  0.10829941009E+03  0.16877263199E+03  0.80697111630E+02 0.  0.
          5    1    3    3  501    0  0.24969672575E+02 -0.10917242741E+02 -0.18620225515E+02  0.33338769260E+02  0.47000000000E+01 0. -1.
        -13    1    4    4    0    0 -0.22206608449E+02 -0.85602801258E+01 -0.30806092474E+02  0.38928488130E+02  0.00000000000E+00 0.  1.
         14    1    4    4    0    0 -0.80451382760E+02  0.41410342661E+02 -0.52828577684E+03  0.53597864088E+03  0.00000000000E+00 0. -1.
         -5    1    5    5    0  502 -0.20654832369E+02 -0.45850175583E+02  0.56892468900E+00  0.50510141323E+02  0.47000000000E+01 0.  1.
         11    1    6    6    0    0 -0.13172522199E+02  0.83825043968E+01  0.21676009081E+02  0.26713874498E+02  0.00000000000E+00 0. -1.
        -12    1    6    6    0    0  0.11151567320E+03  0.15534851392E+02  0.86623401006E+02  0.14205875749E+03  0.00000000000E+00 0.  1.
</event>
<event>
12    1  0.8219652E-002  0.1864293E+03  0.7818608E-02  0.1161791E+00
         21   -1    0    0  501  502  0.00000000000E+00  0.00000000000E+00  0.17926096547E+02  0.17926096547E+02  0.00000000000E+00 0.  1.
         21   -1    0    0  502  503 -0.00000000000E+00 -0.00000000000E+00 -0.19848283166E+04  0.19848283166E+04  0.00000000000E+00 0.  1.
         -6    2    1    2    0  503 -0.60848083774E+02 -0.36568466936E+02 -0.82521262327E+03  0.84594370667E+03  0.17206144011E+03 0.  0.
        -24    2    3    3    0    0 -0.90250587603E+02 -0.59827668681E+02 -0.47674697651E+03  0.49543565445E+03  0.80276332661E+02 0.  0.
          6    2    1    2  501    0  0.60848083774E+02  0.36568466936E+02 -0.11416895968E+04  0.11568107064E+04  0.17238368006E+03 0.  0.
         24    2    5    5    0    0 -0.23080159411E+02 -0.17981290086E+02 -0.56392393075E+03  0.57041930064E+03  0.80696705754E+02 0.  0.
          5    1    5    5  501    0  0.83928243185E+02  0.54549757022E+02 -0.57776566600E+03  0.58639140580E+03  0.47000000000E+01 0. -1.
        -13    1    6    6    0    0  0.17312145234E+02 -0.22620634796E+02 -0.41705274312E+03  0.41802439406E+03  0.00000000000E+00 0.  1.
         14    1    6    6    0    0 -0.40392304645E+02  0.46393447098E+01 -0.14687118764E+03  0.15239490658E+03  0.00000000000E+00 0. -1.
         -5    1    3    3    0  503  0.29402503828E+02  0.23259201745E+02 -0.34846564676E+03  0.35050805222E+03  0.47000000000E+01 0.  1.
         11    1    4    4    0    0 -0.38765028168E+01 -0.26383130456E+02 -0.23573495360E+03  0.23723841425E+03  0.00000000000E+00 0. -1.
        -12    1    4    4    0    0 -0.86374084786E+02 -0.33444538225E+02 -0.24101202291E+03  0.25819724020E+03  0.00000000000E+00 0.  1.
</event>
<event>
12    1  0.8219652E-002  0.1751322E+03  0.7818608E-02  0.1172756E+00
         21   -1    0    0  501  502  0.00000000000E+00  0.00000000000E+00  0.26411991707E+02  0.26411991707E+02  0.00000000000E+00 0.  1.
         21   -1    0    0  502  503 -0.00000000000E+00 -0.00000000000E+00 -0.11573964033E+04  0.11573964033E+04  0.00000000000E+00 0.  1.
         -6    2    1    2    0  503 -0.29866499197E+02 -0.66572766335E+01 -0.55554429983E+03  0.58230810965E+03  0.17180494283E+03 0.  0.
        -24    2    3    3    0    0  0.44851461260E+02  0.14363583137E+02 -0.36777123050E+03  0.37907064822E+03  0.78872759966E+02 0.  0.
          6    2    1    2  501    0  0.29866499197E+02  0.66572766335E+01 -0.57544011171E+03  0.60150028531E+03  0.17243823228E+03 0.  0.
         24    2    5    5    0    0  0.19169864379E+02  0.51723959649E+02 -0.19574607414E+03  0.21896260601E+03  0.81149526106E+02 0.  0.
          5    1    5    5  501    0  0.10696634819E+02 -0.45066683016E+02 -0.37969403757E+03  0.38253767930E+03  0.47000000000E+01 0. -1.
        -11    1    6    6    0    0  0.38519369521E+02 -0.43486123596E+01 -0.80496103245E+02  0.89343577807E+02  0.00000000000E+00 0.  1.
         12    1    6    6    0    0 -0.19349505142E+02  0.56072572009E+02 -0.11524997090E+03  0.12961902820E+03  0.00000000000E+00 0. -1.
         -5    1    3    3    0  503 -0.74717960457E+02 -0.21020859770E+02 -0.18777306933E+03  0.20323746143E+03  0.47000000000E+01 0.  1.
         11    1    4    4    0    0  0.38855224837E+02  0.35428169024E+02 -0.12911385027E+03  0.13941043716E+03  0.00000000000E+00 0. -1.
        -12    1    4    4    0    0  0.59962364232E+01 -0.21064585887E+02 -0.23865738022E+03  0.23966021106E+03  0.00000000000E+00 0.  1.
</event>
<event>
12    1  0.8219652E-002  0.2242755E+03  0.7818608E-02  0.1131025E+00
         21   -1    0    0  503  502  0.00000000000E+00  0.00000000000E+00  0.16151520059E+03  0.16151520059E+03  0.00000000000E+00 0.  1.
         21   -1    0    0  501  503 -0.00000000000E+00 -0.00000000000E+00 -0.31607549043E+03  0.31607549043E+03  0.00000000000E+00 0.  1.
          6    2    1    2  501    0 -0.13736385378E+03  0.34125254123E+02 -0.11272115694E+03  0.25100911592E+03  0.17397170965E+03 0.  0.
         24    2    3    3    0    0 -0.34134362837E+02  0.37095626540E+02  0.24811662767E+01  0.96222759330E+02  0.81923275034E+02 0.  0.
         -6    2    1    2    0  502  0.13736385378E+03 -0.34125254123E+02 -0.41839132912E+02  0.22658157510E+03  0.17191665375E+03 0.  0.
        -24    2    5    5    0    0  0.10713172956E+03 -0.54879326486E+02  0.27283171309E+02  0.14819346506E+03  0.82024287230E+02 0.  0.
          5    1    3    3  501    0 -0.10322949095E+03 -0.29703724169E+01 -0.11520232321E+03  0.15478635659E+03  0.47000000000E+01 0. -1.
        -11    1    4    4    0    0 -0.45780664283E+02  0.18374018762E+02 -0.29424973449E+02  0.57439558234E+02  0.00000000000E+00 0.  1.
         12    1    4    4    0    0  0.11646301445E+02  0.18721607777E+02  0.31906139725E+02  0.38783201096E+02  0.00000000000E+00 0. -1.
         -5    1    5    5    0  502  0.30232124228E+02  0.20754072363E+02 -0.69122304220E+02  0.78388110041E+02  0.47000000000E+01 0.  1.
         13    1    6    6    0    0 -0.44355924777E+01  0.11018825440E+02  0.13352539625E+02  0.17871186562E+02  0.00000000000E+00 0. -1.
        -14    1    6    6    0    0  0.11156732203E+03 -0.65898151926E+02  0.13930631684E+02  0.13032227849E+03  0.00000000000E+00 0.  1.
</event>
<event>
12    1  0.8219652E-002  0.2422530E+03  0.7818608E-02  0.1118372E+00
         21   -1    0    0  503  502  0.00000000000E+00  0.00000000000E+00  0.50913385979E+03  0.50913385979E+03  0.00000000000E+00 0.  1.
         21   -1    0    0  501  503 -0.00000000000E+00 -0.00000000000E+00 -0.11937854759E+03  0.11937854759E+03  0.00000000000E+00 0.  1.
          6    2    1    2  501    0 -0.16955544108E+03  0.83019335213E+01  0.13495355111E+03  0.27692964734E+03  0.17221962407E+03 0.  0.
         24    2    3    3    0    0 -0.19178453808E+03 -0.47782255832E+00  0.14158667636E+03  0.25168474249E+03  0.80727227877E+02 0.  0.
         -6    2    1    2    0  502  0.16955544108E+03 -0.83019335213E+01  0.25480176109E+03  0.35158276004E+03  0.17282514285E+03 0.  0.
        -24    2    5    5    0    0  0.52778057063E+02  0.23749884535E+02  0.42963004991E+02  0.10752943585E+03  0.79794607929E+02 0.  0.
          5    1    3    3  501    0  0.22229096994E+02  0.87797560796E+01 -0.66331252529E+01  0.25244904844E+02  0.47000000000E+01 0. -1.
        -11    1    4    4    0    0 -0.16208392175E+02  0.68919592742E+01 -0.94309631095E+01  0.19978842426E+02  0.00000000000E+00 0.  1.
         12    1    4    4    0    0 -0.17557614590E+03 -0.73697818326E+01  0.15101763947E+03  0.23170590006E+03  0.00000000000E+00 0. -1.
         -5    1    5    5    0  502  0.11677738402E+03 -0.32051818057E+02  0.21183875610E+03  0.24405332419E+03  0.47000000000E+01 0.  1.
         11    1    6    6    0    0 -0.19088982625E+02  0.15351870466E+02  0.24885688247E+01  0.24622391420E+02  0.00000000000E+00 0. -1.
        -12    1    6    6    0    0  0.71867039688E+02  0.83980140697E+01  0.40474436166E+02  0.82907044434E+02  0.00000000000E+00 0.  1.
</event>
<event>
12    1  0.8219652E-002  0.2414582E+03  0.7818608E-02  0.1118865E+00
         21   -1    0    0  503  502  0.00000000000E+00  0.00000000000E+00  0.18637078319E+03  0.18637078319E+03  0.00000000000E+00 0.  1.
         21   -1    0    0  501  503 -0.00000000000E+00 -0.00000000000E+00 -0.45466894820E+03  0.45466894820E+03  0.00000000000E+00 0. -1.
          6    2    1    2  501    0  0.16772797789E+03 -0.25336237189E+02 -0.31341468342E+03  0.39563979747E+03  0.17183563680E+03 0.  0.
         24    2    3    3    0    0  0.18643062675E+03  0.76220897850E+01 -0.25847815273E+03  0.32873574082E+03  0.80260557022E+02 0.  0.
         -6    2    1    2    0  502 -0.16772797789E+03  0.25336237189E+02  0.45116518413E+02  0.24539993392E+03  0.17149643684E+03 0.  0.
        -24    2    5    5    0    0 -0.54056549539E+02 -0.37930718499E+02 -0.10232571682E+02  0.10394494786E+03  0.79617816527E+02 0.  0.
          5    1    3    3  501    0 -0.18702648857E+02 -0.32958326974E+02 -0.54936530693E+02  0.66904056647E+02  0.47000000000E+01 0. -1.
        -13    1    4    4    0    0  0.17436862491E+02  0.92044210817E+01  0.23069241050E+00  0.19718487771E+02  0.00000000000E+00 0.  1.
         14    1    4    4    0    0  0.16899376426E+03 -0.15823312967E+01 -0.25870884514E+03  0.30901725305E+03  0.00000000000E+00 0. -1.
         -5    1    5    5    0  502 -0.11367142835E+03  0.63266955689E+02  0.55349090095E+02  0.14145498606E+03  0.47000000000E+01 0.  1.
         11    1    6    6    0    0 -0.55911544234E+02 -0.46683106858E+02 -0.32640167982E+02  0.79817252586E+02  0.00000000000E+00 0. -1.
        -12    1    6    6    0    0  0.18549946947E+01  0.87523883583E+01  0.22407596300E+02  0.24127695274E+02  0.00000000000E+00 0.  1.
</event>
<event>
12    1  0.8219652E-002  0.3045294E+03  0.7818608E-02  0.1083414E+00
         21   -1    0    0  501  502  0.00000000000E+00  0.00000000000E+00  0.12233375447E+04  0.12233375447E+04  0.00000000000E+00 0. -1.
         21   -1    0    0  502  503 -0.00000000000E+00 -0.00000000000E+00 -0.13185605094E+03  0.13185605094E+03  0.00000000000E+00 0. -1.
         -6    2    1    2    0  503 -0.19434011159E+03 -0.15387759746E+03  0.10240660984E+03  0.32128693316E+03  0.17689484365E+03 0.  0.
        -24    2    3    3    0    0 -0.10941788979E+03 -0.47477721677E+02 -0.11529189353E+02  0.14370266117E+03  0.79316605824E+02 0.  0.
          6    2    1    2  501    0  0.19434011159E+03  0.15387759746E+03  0.98907488396E+03  0.10339066625E+04  0.17101890760E+03 0.  0.
         24    2    5    5    0    0  0.95196550237E+02  0.34334002685E+02  0.63103910007E+03  0.64360955857E+03  0.76037564054E+02 0.  0.
          5    1    5    5  501    0  0.99143561350E+02  0.11954359477E+03  0.35803578388E+03  0.39029710395E+03  0.47000000000E+01 0. -1.
        -13    1    6    6    0    0  0.17291386579E+02 -0.10167623596E+02  0.29870321922E+03  0.29937599402E+03  0.00000000000E+00 0.  1.
         14    1    6    6    0    0  0.77905163657E+02  0.44501626281E+02  0.33233588085E+03  0.34423356456E+03  0.00000000000E+00 0. -1.
         -5    1    3    3    0  503 -0.84922221799E+02 -0.10639987578E+03  0.11393579919E+03  0.17758427199E+03  0.47000000000E+01 0.  1.
         13    1    4    4    0    0 -0.10938916502E+03 -0.51221769030E+02  0.10606592843E+02  0.12125245919E+03  0.00000000000E+00 0. -1.
        -14    1    4    4    0    0 -0.28724763010E-01  0.37440473529E+01 -0.22135782196E+02  0.22450201984E+02  0.00000000000E+00 0.  1.
</event>
<event>
12    1  0.8219652E-002  0.2024130E+03  0.7818608E-02  0.1148734E+00
         21   -1    0    0  501  502  0.00000000000E+00  0.00000000000E+00  0.42407198312E+03  0.42407198312E+03  0.00000000000E+00 0. -1.
         21   -1    0    0  502  503 -0.00000000000E+00 -0.00000000000E+00 -0.14922243819E+03  0.14922243819E+03  0.00000000000E+00 0.  1.
         -6    2    1    2    0  503  0.90984749354E+02 -0.36237408527E+02 -0.35384626486E+02  0.20548256152E+03  0.17714298435E+03 0.  0.
        -24    2    3    3    0    0  0.39792127100E+02  0.18900523158E+02  0.39529527094E+02  0.99204170063E+02  0.79613068593E+02 0.  0.
          6    2    1    2  501    0 -0.90984749354E+02  0.36237408527E+02  0.31023417141E+03  0.36781185980E+03  0.17160695995E+03 0.  0.
         24    2    5    5    0    0 -0.76757813388E+02 -0.37295694600E+02  0.14515166017E+03  0.18647281689E+03  0.80127250286E+02 0.  0.
          5    1    5    5  501    0 -0.14226935966E+02  0.73533103126E+02  0.16508251125E+03  0.18133904291E+03  0.47000000000E+01 0. -1.
        -13    1    6    6    0    0  0.74062332870E+01 -0.17801870290E+02  0.67880886471E+02  0.70566094021E+02  0.00000000000E+00 0.  1.
         14    1    6    6    0    0 -0.84164046675E+02 -0.19493824310E+02  0.77270773695E+02  0.11590672287E+03  0.00000000000E+00 0. -1.
         -5    1    3    3    0  503  0.51192622254E+02 -0.55137931685E+02 -0.74914153580E+02  0.10627839145E+03  0.47000000000E+01 0.  1.
         13    1    4    4    0    0  0.46905538862E+02 -0.16965321741E+02  0.71990952564E+01  0.50396217023E+02  0.00000000000E+00 0. -1.
        -14    1    4    4    0    0 -0.71134117616E+01  0.35865844899E+02  0.32330431837E+02  0.48807953040E+02  0.00000000000E+00 0.  1.
</event>
<event>
12    1  0.8219652E-002  0.2025695E+03  0.7818608E-02  0.1148114E+00
         21   -1    0    0  501  502  0.00000000000E+00  0.00000000000E+00  0.11386527871E+03  0.11386527871E+03  0.00000000000E+00 0. -1.
         21   -1    0    0  502  503 -0.00000000000E+00 -0.00000000000E+00 -0.44707360663E+03  0.44707360663E+03  0.00000000000E+00 0. -1.
         -6    2    1    2    0  503  0.79088517609E+02  0.65472868611E+02 -0.29407584562E+03  0.35709241112E+03  0.17462158218E+03 0.  0.
        -24    2    3    3    0    0  0.28031845264E+01  0.29304848140E+02 -0.49966185740E+02  0.98753111375E+02  0.79930753286E+02 0.  0.
          6    2    1    2  501    0 -0.79088517609E+02 -0.65472868611E+02 -0.39132482303E+02  0.20384647422E+03  0.17169840925E+03 0.  0.
         24    2    5    5    0    0 -0.44567981729E+02 -0.75404432593E+02  0.32565040821E+02  0.12351635420E+03  0.80769266564E+02 0.  0.
          5    1    5    5  501    0 -0.34520535880E+02  0.99315639822E+01 -0.71697523123E+02  0.80330120021E+02  0.47000000000E+01 0. -1.
        -13    1    6    6    0    0 -0.11017686714E+02  0.15623998404E+02 -0.45375626519E+01  0.19649127754E+02  0.00000000000E+00 0.  1.
         14    1    6    6    0    0 -0.33550295014E+02 -0.91028430997E+02  0.37102603472E+02  0.10386722645E+03  0.00000000000E+00 0. -1.
         -5    1    3    3    0  503  0.76285333083E+02  0.36168020471E+02 -0.24410965988E+03  0.25833929975E+03  0.47000000000E+01 0.  1.
         11    1    4    4    0    0  0.13589372801E+01  0.44810852128E+02 -0.63764000629E+02  0.77946821328E+02  0.00000000000E+00 0. -1.
        -12    1    4    4    0    0  0.14442472463E+01 -0.15506003988E+02  0.13797814889E+02  0.20806290047E+02  0.00000000000E+00 0.  1.
</event>
<event>
12    1  0.8219652E-002  0.2048536E+03  0.7818608E-02  0.1148195E+00
         21   -1    0    0  503  502  0.00000000000E+00  0.00000000000E+00  0.11214043581E+03  0.11214043581E+03  0.00000000000E+00 0.  1.
         21   -1    0    0  501  503 -0.00000000000E+00 -0.00000000000E+00 -0.43333513102E+03  0.43333513102E+03  0.00000000000E+00 0.  1.
          6    2    1    2  501    0  0.43530601339E+02 -0.76295679129E+02 -0.27411484317E+03  0.33528158140E+03  0.17192686722E+03 0.  0.
         24    2    3    3    0    0  0.52440949027E+02  0.69786628190E+01 -0.85251562589E+02  0.12862863786E+03  0.80490637240E+02 0.  0.
         -6    2    1    2    0  502 -0.43530601339E+02  0.76295679129E+02 -0.47079852031E+02  0.21019398543E+03  0.18506500247E+03 0.  0.
        -24    2    5    5    0    0 -0.63334851756E+01  0.12080726129E+03 -0.39594330575E+02  0.15151665225E+03  0.82189278382E+02 0.  0.
          5    1    3    3  501    0 -0.89103476879E+01 -0.83274341948E+02 -0.18886328058E+03  0.20665294354E+03  0.47000000000E+01 0. -1.
        -11    1    4    4    0    0  0.73290334653E+02 -0.10806953516E+01 -0.58594888358E+02  0.93840300499E+02  0.00000000000E+00 0.  1.
         12    1    4    4    0    0 -0.20849385626E+02  0.80593581707E+01 -0.26656674230E+02  0.34788337358E+02  0.00000000000E+00 0. -1.
         -5    1    5    5    0  502 -0.37197116164E+02 -0.44511582163E+02 -0.74855214563E+01  0.58677333179E+02  0.47000000000E+01 0.  1.
         13    1    6    6    0    0 -0.10698152003E+02  0.94401872664E+02  0.96238685367E+01  0.95492318353E+02  0.00000000000E+00 0. -1.
        -14    1    6    6    0    0  0.43646668271E+01  0.26405388627E+02 -0.49218199112E+02  0.56024333899E+02  0.00000000000E+00 0.  1.
</event>
<event>
12    1  0.8219652E-002  0.2104055E+03  0.7818608E-02  0.1141585E+00
         21   -1    0    0  503  502  0.00000000000E+00  0.00000000000E+00  0.23545359160E+03  0.23545359160E+03  0.00000000000E+00 0. -1.
         21   -1    0    0  501  503 -0.00000000000E+00 -0.00000000000E+00 -0.20562795678E+03  0.20562795678E+03  0.00000000000E+00 0. -1.
          6    2    1    2  501    0 -0.11782062128E+03  0.99133823432E+00 -0.52412482814E+02  0.21517545546E+03  0.17225192808E+03 0.  0.
         24    2    3    3    0    0 -0.28970945115E+02  0.40554083424E+02 -0.55936057723E+02  0.11773839197E+03  0.90826962112E+02 0.  0.
         -6    2    1    2    0  502  0.11782062128E+03 -0.99133823432E+00  0.82238117637E+02  0.22590609293E+03  0.17432089169E+03 0.  0.
        -24    2    5    5    0    0  0.46109338869E+02 -0.17023064534E+01 -0.24380543613E+02  0.97326769448E+02  0.82153028952E+02 0.  0.
          5    1    3    3  501    0 -0.88849676163E+02 -0.39562745189E+02  0.35235749087E+01  0.97437063489E+02  0.47000000000E+01 0. -1.
        -13    1    4    4    0    0 -0.23316495097E+02  0.19008116506E+02  0.21620600243E+02  0.37046157582E+02  0.00000000000E+00 0.  1.
         14    1    4    4    0    0 -0.56544500180E+01  0.21545966918E+02 -0.77556657966E+02  0.80692234387E+02  0.00000000000E+00 0. -1.
         -5    1    5    5    0  502  0.71711282408E+02  0.71096821909E+00  0.10661866125E+03  0.12857932348E+03  0.47000000000E+01 0.  1.
         13    1    6    6    0    0  0.61019861899E+02 -0.24482045369E+02 -0.98982908223E+01  0.66488873151E+02  0.00000000000E+00 0. -1.
        -14    1    6    6    0    0 -0.14910523030E+02  0.22779738916E+02 -0.14482252790E+02  0.30837896296E+02  0.00000000000E+00 0.  1.
</event>
<event>
12    1  0.8219652E-002  0.1823069E+03  0.7818608E-02  0.1166288E+00
         21   -1    0    0  503  502  0.00000000000E+00  0.00000000000E+00  0.96258782644E+02  0.96258782644E+02  0.00000000000E+00 0.  1.
         21   -1    0    0  501  503 -0.00000000000E+00 -0.00000000000E+00 -0.36798807490E+03  0.36798807490E+03  0.00000000000E+00 0. -1.
          6    2    1    2  501    0  0.58616723934E+02  0.91294200496E+00 -0.70594623174E+02  0.19278607642E+03  0.16954679782E+03 0.  0.
         24    2    3    3    0    0  0.40367546414E+02 -0.37993942536E+02  0.12324614550E+02  0.99274215515E+02  0.81427239112E+02 0.  0.
         -6    2    1    2    0  502 -0.58616723934E+02 -0.91294200496E+00 -0.20113466908E+03  0.27146078113E+03  0.17262400411E+03 0.  0.
        -24    2    5    5    0    0 -0.75708470684E+02  0.45417147924E+02 -0.84956498567E+02  0.14513555663E+03  0.77796100740E+02 0.  0.
          5    1    3    3  501    0  0.18249177521E+02  0.38906884541E+02 -0.82919237724E+02  0.93511860903E+02  0.47000000000E+01 0. -1.
        -11    1    4    4    0    0  0.88123792524E+01  0.25761240660E+02  0.58088392294E+01  0.27839579049E+02  0.00000000000E+00 0.  1.
         12    1    4    4    0    0  0.31555167161E+02 -0.63755183196E+02  0.65157753207E+01  0.71434636466E+02  0.00000000000E+00 0. -1.
         -5    1    5    5    0  502  0.17091746750E+02 -0.46330089929E+02 -0.11617817052E+03  0.12632522450E+03  0.47000000000E+01 0.  1.
         13    1    6    6    0    0 -0.89714501383E+02  0.28520855164E+02 -0.58808695597E+02  0.11099816942E+03  0.00000000000E+00 0. -1.
        -14    1    6    6    0    0  0.14006030699E+02  0.16896292760E+02 -0.26147802970E+02  0.34137387204E+02  0.00000000000E+00 0.  1.
</event>
<event>
12    1  0.8219652E-002  0.2301177E+03  0.7818608E-02  0.1126776E+00
         21   -1    0    0  503  502  0.00000000000E+00  0.00000000000E+00  0.32025509062E+03  0.32025509062E+03  0.00000000000E+00 0. -1.
         21   -1    0    0  501  503 -0.00000000000E+00 -0.00000000000E+00 -0.17653622724E+03  0.17653622724E+03  0.00000000000E+00 0.  1.
          6    2    1    2  501    0  0.86673047286E+02  0.12619480495E+03  0.70665987867E+01  0.23022622709E+03  0.17180463585E+03 0.  0.
         24    2    3    3    0    0  0.97978545591E+02  0.54062511482E+02 -0.40138976266E+02  0.14315534579E+03  0.79748135213E+02 0.  0.
         -6    2    1    2    0  502 -0.86673047286E+02 -0.12619480495E+03  0.13665226459E+03  0.26656509078E+03  0.17013453583E+03 0.  0.
        -24    2    5    5    0    0 -0.12033904195E+03 -0.81523319203E+02  0.13200176866E+03  0.21023873862E+03  0.75155330454E+02 0.  0.
          5    1    3    3  501    0 -0.11305498305E+02  0.72132293468E+02  0.47205575053E+02  0.87070881292E+02  0.47000000000E+01 0. -1.
        -11    1    4    4    0    0  0.33505574582E+02 -0.17589809674E+02 -0.25571287327E+02  0.45671825757E+02  0.00000000000E+00 0.  1.
         12    1    4    4    0    0  0.64472971009E+02  0.71652321156E+02 -0.14567688939E+02  0.97483520037E+02  0.00000000000E+00 0. -1.
         -5    1    5    5    0  502  0.33665994660E+02 -0.44671485746E+02  0.46504959297E+01  0.56326352160E+02  0.47000000000E+01 0.  1.
         11    1    6    6    0    0 -0.10574195822E+02 -0.19000060202E+02  0.62248393548E+02  0.65936927470E+02  0.00000000000E+00 0. -1.
        -12    1    6    6    0    0 -0.10976484612E+03 -0.62523259001E+02  0.69753375115E+02  0.14430181115E+03  0.00000000000E+00 0.  1.
</event>
<event>
12    1  0.8219652E-002  0.2809726E+03  0.7818608E-02  0.1095331E+00
         21   -1    0    0  501  502  0.00000000000E+00  0.00000000000E+00  0.93145867397E+03  0.93145867397E+03  0.00000000000E+00 0.  1.
         21   -1    0    0  502  503 -0.00000000000E+00 -0.00000000000E+00 -0.87878325246E+02  0.87878325246E+02  0.00000000000E+00 0.  1.
         -6    2    1    2    0  503 -0.23423129067E+02 -0.21982604550E+03  0.31911567764E+03  0.42435063318E+03  0.17136659799E+03 0.  0.
        -24    2    3    3    0    0 -0.19324293505E+02 -0.73661478952E+02  0.22017589138E+03  0.24773791486E+03  0.84244937610E+02 0.  0.
          6    2    1    2  501    0  0.23423129067E+02  0.21982604550E+03  0.52446467108E+03  0.59498636604E+03  0.17341698676E+03 0.  0.
         24    2    5    5    0    0  0.45772337764E+02  0.23498586770E+03  0.48765944093E+03  0.54909494739E+03  0.79875315338E+02 0.  0.
          5    1    5    5  501    0 -0.22349208697E+02 -0.15159822197E+02  0.36805230156E+02  0.45891418645E+02  0.47000000000E+01 0. -1.
        -11    1    6    6    0    0  0.63134572003E+02  0.18195636164E+03  0.41471552093E+03  0.45725600600E+03  0.00000000000E+00 0.  1.
         12    1    6    6    0    0 -0.17362234240E+02  0.53029506064E+02  0.72943919995E+02  0.91838941388E+02  0.00000000000E+00 0. -1.
         -5    1    3    3    0  503 -0.40988355622E+01 -0.14616456655E+03  0.98939786267E+02  0.17661271833E+03  0.47000000000E+01 0.  1.
         11    1    4    4    0    0 -0.39070163721E+02 -0.77510301194E+02  0.13715165695E+03  0.16231112558E+03  0.00000000000E+00 0. -1.
        -12    1    4    4    0    0  0.19745870216E+02  0.38488222412E+01  0.83024234426E+02  0.85426789272E+02  0.00000000000E+00 0.  1.
</event>
<event>
12    1  0.8219652E-002  0.1805223E+03  0.7818608E-02  0.1170664E+00
         21   -1    0    0  503  502  0.00000000000E+00  0.00000000000E+00  0.85649031099E+02  0.85649031099E+02  0.00000000000E+00 0. -1.
         21   -1    0    0  501  503 -0.00000000000E+00 -0.00000000000E+00 -0.37271076989E+03  0.37271076989E+03  0.00000000000E+00 0. -1.
          6    2    1    2  501    0 -0.16127940380E+02  0.50524753134E+02 -0.20173382531E+03  0.27071175467E+03  0.17255566262E+03 0.  0.
         24    2    3    3    0    0  0.42589668717E+02 -0.79646568906E+01 -0.14242716077E+03  0.16869146668E+03  0.79334728610E+02 0.  0.
         -6    2    1    2    0  502  0.16127940380E+02 -0.50524753134E+02 -0.85327913481E+02  0.18764804632E+03  0.15848683014E+03 0.  0.
        -24    2    5    5    0    0 -0.11141656783E+02  0.26179787902E+01  0.43711317026E+01  0.79778729122E+02  0.78832407671E+02 0.  0.
          5    1    3    3  501    0 -0.58717609097E+02  0.58489410024E+02 -0.59306664537E+02  0.10202028799E+03  0.47000000000E+01 0. -1.
        -13    1    4    4    0    0 -0.91896579252E+01 -0.60045192016E+01 -0.10299267260E+03  0.10357603329E+03  0.00000000000E+00 0.  1.
         14    1    4    4    0    0  0.51779326643E+02 -0.19601376890E+01 -0.39434488169E+02  0.65115433381E+02  0.00000000000E+00 0. -1.
         -5    1    5    5    0  502  0.27269597162E+02 -0.53142731924E+02 -0.89699045183E+02  0.10786931720E+03  0.47000000000E+01 0.  1.
         11    1    6    6    0    0  0.41702009197E+01 -0.18403660912E+02 -0.30749076582E+02  0.36077569504E+02  0.00000000000E+00 0. -1.
        -12    1    6    6    0    0 -0.15311857702E+02  0.21021639702E+02  0.35120208284E+02  0.43701159618E+02  0.00000000000E+00 0.  1.
</event>
<event>
12    1  0.8219652E-002  0.2215624E+03  0.7818608E-02  0.1133471E+00
         21   -1    0    0  501  502  0.00000000000E+00  0.00000000000E+00  0.23137736480E+03  0.23137736480E+03  0.00000000000E+00 0. -1.
         21   -1    0    0  502  503 -0.00000000000E+00 -0.00000000000E+00 -0.20839082436E+03  0.20839082436E+03  0.00000000000E+00 0. -1.
         -6    2    1    2    0  503 -0.91648015189E+02  0.10509879075E+03  0.83025210113E+01  0.22171788921E+03  0.17217658388E+03 0.  0.
        -24    2    3    3    0    0 -0.76699547551E+02  0.54850082172E+02 -0.57014828711E+02  0.13783204074E+03  0.82798723746E+02 0.  0.
          6    2    1    2  501    0  0.91648015189E+02 -0.10509879075E+03  0.14684019429E+02  0.21805029995E+03  0.16698861751E+03 0.  0.
         24    2    5    5    0    0  0.39310353806E+02 -0.10683399128E+03 -0.36965929408E+02  0.14434786489E+03  0.80690895098E+02 0.  0.
          5    1    5    5  501    0  0.52337661383E+02  0.17352005307E+01  0.51649948837E+02  0.73702435067E+02  0.47000000000E+01 0. -1.
        -13    1    6    6    0    0 -0.16454277083E+02 -0.56672093457E+01 -0.21714067803E+02  0.27827346921E+02  0.00000000000E+00 0.  1.
         14    1    6    6    0    0  0.55764630889E+02 -0.10116678193E+03 -0.15251861605E+02  0.11652051797E+03  0.00000000000E+00 0. -1.
         -5    1    3    3    0  503 -0.14948467638E+02  0.50248708576E+02  0.65317349723E+02  0.83885848467E+02  0.47000000000E+01 0.  1.
         11    1    4    4    0    0 -0.35540897164E+02 -0.17630754008E+02 -0.60455880194E+01  0.40131633316E+02  0.00000000000E+00 0. -1.
        -12    1    4    4    0    0 -0.41158650388E+02  0.72480836180E+02 -0.50969240692E+02  0.97700407429E+02  0.00000000000E+00 0.  1.
</event>
<event>
12    1  0.8219652E-002  0.2268738E+03  0.7818608E-02  0.1129209E+00
         21   -1    0    0  501  502  0.00000000000E+00  0.00000000000E+00  0.69915202383E+02  0.69915202383E+02  0.00000000000E+00 0. -1.
         21   -1    0    0  502  503 -0.00000000000E+00 -0.00000000000E+00 -0.12265005884E+04  0.12265005884E+04  0.00000000000E+00 0.  1.
         -6    2    1    2    0  503 -0.12209824115E+03  0.77541902363E+02 -0.99223041815E+03  0.10178373767E+04  0.17478843110E+03 0.  0.
        -24    2    3    3    0    0 -0.10944997314E+03  0.88403897628E+02 -0.98601115203E+03  0.99943273340E+03  0.82784364053E+02 0.  0.
          6    2    1    2  501    0  0.12209824115E+03 -0.77541902363E+02 -0.16435496789E+03  0.27857841408E+03  0.17225751132E+03 0.  0.
         24    2    5    5    0    0  0.90520589365E+02 -0.11562225652E+03 -0.90477704223E+02  0.18954358072E+03  0.78600704361E+02 0.  0.
          5    1    5    5  501    0  0.31577651782E+02  0.38080354162E+02 -0.73877263665E+02  0.89034833362E+02  0.47000000000E+01 0. -1.
        -13    1    6    6    0    0  0.96496381098E+01 -0.23134532811E+02 -0.56904763506E+02  0.62180979677E+02  0.00000000000E+00 0.  1.
         14    1    6    6    0    0  0.80870951255E+02 -0.92487723714E+02 -0.33572940717E+02  0.12736260104E+03  0.00000000000E+00 0. -1.
         -5    1    3    3    0  503 -0.12648268004E+02 -0.10861995266E+02 -0.62192661138E+01  0.18404643318E+02  0.47000000000E+01 0.  1.
         11    1    4    4    0    0  0.30441222354E+01 -0.11148613040E+02 -0.42730195532E+02  0.44265425143E+02  0.00000000000E+00 0. -1.
        -12    1    4    4    0    0 -0.11249409538E+03  0.99552510668E+02 -0.94328095650E+03  0.95516730826E+03  0.00000000000E+00 0.  1.
</event>
<event>
12    1  0.8219652E-002  0.1740788E+03  0.7818608E-02  0.1174284E+00
         21   -1    0    0  503  502  0.00000000000E+00  0.00000000000E+00  0.12337670501E+03  0.12337670501E+03  0.00000000000E+00 0. -1.
         21   -1    0    0  501  503 -0.00000000000E+00 -0.00000000000E+00 -0.42741631972E+03  0.42741631972E+03  0.00000000000E+00 0. -1.
          6    2    1    2  501    0 -0.55981252345E+01  0.32822439081E+02 -0.33271026193E+03  0.37436897811E+03  0.16836674811E+03 0.  0.
         24    2    3    3    0    0 -0.58061239008E+02  0.25346078711E+02 -0.12919763668E+03  0.16401747964E+03  0.78715774308E+02 0.  0.
         -6    2    1    2    0  502  0.55981252345E+01 -0.32822439081E+02  0.28670647219E+02  0.17642404662E+03  0.17086481996E+03 0.  0.
        -24    2    5    5    0    0 -0.25457212039E+02  0.38666672180E+02  0.31096787010E+02  0.98301686461E+02  0.80950788856E+02 0.  0.
          5    1    3    3  501    0  0.52463113774E+02  0.74763603695E+01 -0.20351262525E+03  0.21035149847E+03  0.47000000000E+01 0. -1.
        -13    1    4    4    0    0  0.21402656345E+01  0.36669018068E+02 -0.29979573999E+02  0.47412788150E+02  0.00000000000E+00 0.  1.
         14    1    4    4    0    0 -0.60201504643E+02 -0.11322939357E+02 -0.99218062677E+02  0.11660469149E+03  0.00000000000E+00 0. -1.
         -5    1    5    5    0  502  0.31055337273E+02 -0.71489111261E+02 -0.24261397914E+01  0.78122360156E+02  0.47000000000E+01 0.  1.
         11    1    6    6    0    0 -0.51757509176E+02  0.25729745925E+02  0.32798888233E+01  0.57893153759E+02  0.00000000000E+00 0. -1.
        -12    1    6    6    0    0  0.26300297137E+02  0.12936926255E+02  0.27816898187E+02  0.40408532702E+02  0.00000000000E+00 0.  1.
</event>
<event>
12    1  0.8219652E-002  0.3595933E+03  0.7818608E-02  0.1058804E+00
         21   -1    0    0  501  502  0.00000000000E+00  0.00000000000E+00  0.64965518735E+03  0.64965518735E+03  0.00000000000E+00 0.  1.
         21   -1    0    0  502  503 -0.00000000000E+00 -0.00000000000E+00 -0.22218013297E+03  0.22218013297E+03  0.00000000000E+00 0.  1.
         -6    2    1    2    0  503  0.27394699332E+03 -0.15534682244E+03  0.35557939632E+03  0.50571143373E+03  0.17357349084E+03 0.  0.
        -24    2    3    3    0    0  0.23979113849E+03 -0.17920210923E+03  0.34224275460E+03  0.46171537550E+03  0.80235894969E+02 0.  0.
          6    2    1    2  501    0 -0.27394699332E+03  0.15534682244E+03  0.71895658066E+02  0.36612388659E+03  0.17233143733E+03 0.  0.
         24    2    5    5    0    0 -0.19179276748E+03  0.33443360301E+02  0.56206787207E+02  0.21821174519E+03  0.80958253464E+02 0.  0.
          5    1    5    5  501    0 -0.82154225844E+02  0.12190346214E+03  0.15688870859E+02  0.14791214141E+03  0.47000000000E+01 0. -1.
        -11    1    6    6    0    0 -0.11740041975E+03  0.27446159319E+02  0.74029185785E+02  0.14147957650E+03  0.00000000000E+00 0.  1.
         12    1    6    6    0    0 -0.74392347728E+02  0.59972009814E+01 -0.17822398578E+02  0.76732168685E+02  0.00000000000E+00 0. -1.
         -5    1    3    3    0  503  0.34155854836E+02  0.23855286792E+02  0.13336641713E+02  0.43996058229E+02  0.47000000000E+01 0.  1.
         13    1    4    4    0    0  0.13068207541E+03 -0.14041603692E+03  0.24002424107E+03  0.30725576408E+03  0.00000000000E+00 0. -1.
        -14    1    4    4    0    0  0.10910906308E+03 -0.38786072317E+02  0.10221851353E+03  0.15445961142E+03  0.00000000000E+00 0.  1.
</event>
<event>
12    1  0.8219652E-002  0.1991059E+03  0.7818608E-02  0.1150678E+00
         21   -1    0    0  501  502  0.00000000000E+00  0.00000000000E+00  0.62510068924E+02  0.62510068924E+02  0.00000000000E+00 0.  1.
         21   -1    0    0  502  503 -0.00000000000E+00 -0.00000000000E+00 -0.66255290188E+03  0.66255290188E+03  0.00000000000E+00 0. -1.
         -6    2    1    2    0  503 -0.30311790009E+02 -0.95410813628E+02 -0.37794815686E+03  0.42678593249E+03  0.17111222905E+03 0.  0.
        -24    2    3    3    0    0 -0.36329812602E+02 -0.13195042263E+03 -0.32446415078E+03  0.36156332500E+03  0.81977335452E+02 0.  0.
          6    2    1    2  501    0  0.30311790009E+02  0.95410813628E+02 -0.22209467609E+03  0.29827703831E+03  0.17210786868E+03 0.  0.
         24    2    5    5    0    0  0.27533461524E+01  0.30238873168E+02 -0.26551239761E+02  0.90271809660E+02  0.80759277616E+02 0.  0.
          5    1    5    5  501    0  0.27558443856E+02  0.65171940460E+02 -0.19554343633E+03  0.20800522865E+03  0.47000000000E+01 0. -1.
        -13    1    6    6    0    0 -0.24981680396E+02 -0.14569798783E+02  0.42533829253E+01  0.29231056401E+02  0.00000000000E+00 0.  1.
         14    1    6    6    0    0  0.27735026549E+02  0.44808671951E+02 -0.30804622686E+02  0.61040753260E+02  0.00000000000E+00 0. -1.
         -5    1    3    3    0  503  0.60180225933E+01  0.36539609002E+02 -0.53484006078E+02  0.65222607492E+02  0.47000000000E+01 0.  1.
         11    1    4    4    0    0 -0.30605677997E+02 -0.58251527297E+02 -0.24213996180E+03  0.25092171899E+03  0.00000000000E+00 0. -1.
        -12    1    4    4    0    0 -0.57241346044E+01 -0.73698895333E+02 -0.82324188980E+02  0.11064160601E+03  0.00000000000E+00 0.  1.
</event>
<event>
12    1  0.8219652E-002  0.2440974E+03  0.7818608E-02  0.1117457E+00
         21   -1    0    0  503  502  0.00000000000E+00  0.00000000000E+00  0.84709909524E+03  0.84709909524E+03  0.00000000000E+00 0. -1.
         21   -1    0    0  501  503 -0.00000000000E+00 -0.00000000000E+00 -0.19328598053E+03  0.19328598053E+03  0.00000000000E+00 0.  1.
          6    2    1    2  501    0  0.10682497140E+03  0.13649885595E+03 -0.88511661769E+02  0.25964945612E+03  0.17187208501E+03 0.  0.
         24    2    3    3    0    0  0.28675811999E+01  0.84731255221E+02 -0.84147601221E+02  0.14333884402E+03  0.79231286630E+02 0.  0.
         -6    2    1    2    0  502 -0.10682497140E+03 -0.13649885595E+03  0.74232477648E+03  0.78073561965E+03  0.16869653768E+03 0.  0.
        -24    2    5    5    0    0 -0.13952755706E+03 -0.97902477285E+02  0.52788120613E+03  0.56035577842E+03  0.79291843136E+02 0.  0.
          5    1    3    3  501    0  0.10395739020E+03  0.51767600726E+02 -0.43640605474E+01  0.11631061210E+03  0.47000000000E+01 0. -1.
        -11    1    4    4    0    0  0.46824399215E+01 -0.13464232510E+02 -0.24750746500E+02  0.28562392284E+02  0.00000000000E+00 0.  1.
         12    1    4    4    0    0 -0.18148587215E+01  0.98195487730E+02 -0.59396854721E+02  0.11477645174E+03  0.00000000000E+00 0. -1.
         -5    1    5    5    0  502  0.32702585665E+02 -0.38596378662E+02  0.21444357036E+03  0.22037984123E+03  0.47000000000E+01 0.  1.
         11    1    6    6    0    0 -0.80338135614E+02 -0.73755138835E+02  0.42872796877E+03  0.44238185739E+03  0.00000000000E+00 0. -1.
        -12    1    6    6    0    0 -0.59189421450E+02 -0.24147338450E+02  0.99153237356E+02  0.11797392103E+03  0.00000000000E+00 0.  1.
</event>
<event>
12    1  0.8219652E-002  0.2635129E+03  0.7818608E-02  0.1105249E+00
         21   -1    0    0  503  502  0.00000000000E+00  0.00000000000E+00  0.65900540913E+03  0.65900540913E+03  0.00000000000E+00 0. -1.
         21   -1    0    0  501  503 -0.00000000000E+00 -0.00000000000E+00 -0.13768035080E+03  0.13768035080E+03  0.00000000000E+00 0.  1.
          6    2    1    2  501    0 -0.87521607348E+02 -0.17793108395E+03  0.65597659200E+02  0.27025768069E+03  0.17151285284E+03 0.  0.
         24    2    3    3    0    0 -0.30712055522E+02 -0.16422399217E+03  0.48607138795E+01  0.18584040716E+03  0.81242109980E+02 0.  0.
         -6    2    1    2    0  502  0.87521607348E+02  0.17793108395E+03  0.45572739914E+03  0.52642807925E+03  0.17354987153E+03 0.  0.
        -24    2    5    5    0    0  0.52396025445E+02  0.54132149579E+02  0.98967974256E+02  0.14714011490E+03  0.78612469651E+02 0.  0.
          5    1    3    3  501    0 -0.56809551826E+02 -0.13707091779E+02  0.60736945321E+02  0.84417273532E+02  0.47000000000E+01 0. -1.
        -13    1    4    4    0    0 -0.30413534170E+02 -0.81701631465E+02 -0.35311790112E+02  0.94058822902E+02  0.00000000000E+00 0.  1.
         14    1    4    4    0    0 -0.29852135241E+00 -0.82522360704E+02  0.40172503992E+02  0.91781584254E+02  0.00000000000E+00 0. -1.
         -5    1    5    5    0  502  0.35125581903E+02  0.12379893437E+03  0.35675942488E+03  0.37928796434E+03  0.47000000000E+01 0.  1.
         13    1    6    6    0    0  0.42727106676E+02  0.41427035567E+01  0.83563665881E+02  0.93944951398E+02  0.00000000000E+00 0. -1.
        -14    1    6    6    0    0  0.96689187690E+01  0.49989446022E+02  0.15404308375E+02  0.53195163504E+02  0.00000000000E+00 0.  1.
</event>
<event>
12    1  0.8219652E-002  0.2061055E+03  0.7818608E-02  0.1144793E+00
         21   -1    0    0  503  502  0.00000000000E+00  0.00000000000E+00  0.70104310814E+03  0.70104310814E+03  0.00000000000E+00 0.  1.
         21   -1    0    0  501  503 -0.00000000000E+00 -0.00000000000E+00 -0.13010381179E+03  0.13010381179E+03  0.00000000000E+00 0.  1.
          6    2    1    2  501    0  0.77950446346E+02 -0.82243024755E+02 -0.18450614800E+02  0.20692966630E+03  0.17216060642E+03 0.  0.
         24    2    3    3    0    0  0.62666089763E+02 -0.86133472411E+02 -0.71886399374E+02  0.15101705402E+03  0.79325168230E+02 0.  0.
         -6    2    1    2    0  502 -0.77950446346E+02  0.82243024755E+02  0.58938991115E+03  0.62421725362E+03  0.17154161345E+03 0.  0.
        -24    2    5    5    0    0  0.40792988008E+01  0.59243526755E+02  0.44176314809E+03  0.45370740883E+03  0.84671705314E+02 0.  0.
          5    1    3    3  501    0  0.15284356583E+02  0.38904476558E+01  0.53435784574E+02  0.55912612282E+02  0.47000000000E+01 0. -1.
        -11    1    4    4    0    0  0.76517360820E+02 -0.51567865898E+02 -0.65691942122E+02  0.11326774722E+03  0.00000000000E+00 0.  1.
         12    1    4    4    0    0 -0.13851271057E+02 -0.34565606513E+02 -0.61944572520E+01  0.37749306803E+02  0.00000000000E+00 0. -1.
         -5    1    5    5    0  502 -0.82029745147E+02  0.22999498000E+02  0.14762676307E+03  0.17050984479E+03  0.47000000000E+01 0.  1.
         11    1    6    6    0    0  0.30215651235E+02 -0.80120684286E+01  0.13554245722E+03  0.13910045481E+03  0.00000000000E+00 0. -1.
        -12    1    6    6    0    0 -0.26136352434E+02  0.67255595184E+02  0.30622069087E+03  0.31460695402E+03  0.00000000000E+00 0.  1.
</event>
<event>
12    1  0.8219652E-002  0.2097427E+03  0.7818608E-02  0.1141905E+00
         21   -1    0    0  501  502  0.00000000000E+00  0.00000000000E+00  0.21952916007E+03  0.21952916007E+03  0.00000000000E+00 0. -1.
         21   -1    0    0  502  503 -0.00000000000E+00 -0.00000000000E+00 -0.30897538438E+03  0.30897538438E+03  0.00000000000E+00 0. -1.
         -6    2    1    2    0  503  0.36005225264E+00 -0.11886032962E+03 -0.20189112394E+03  0.29112198582E+03  0.17281225971E+03 0.  0.
        -24    2    3    3    0    0  0.43879430066E+02 -0.62552133082E+02 -0.45915238154E+02  0.11961362978E+03  0.79756113241E+02 0.  0.
          6    2    1    2  501    0 -0.36005225264E+00  0.11886032962E+03  0.11244489963E+03  0.23738255863E+03  0.17198463911E+03 0.  0.
         24    2    5    5    0    0 -0.21412794678E+02  0.44694668555E+01  0.75432903317E+01  0.80682446687E+02  0.77293415402E+02 0.  0.
          5    1    5    5  501    0  0.21052742426E+02  0.11439086277E+03  0.10490160930E+03  0.15670011194E+03  0.47000000000E+01 0. -1.
        -11    1    6    6    0    0 -0.11650891217E+01 -0.97711290367E+01  0.39245649040E+02  0.40460516110E+02  0.00000000000E+00 0.  1.
         12    1    6    6    0    0 -0.20247705557E+02  0.14240595892E+02 -0.31702358708E+02  0.40221930577E+02  0.00000000000E+00 0. -1.
         -5    1    3    3    0  503 -0.43519377813E+02 -0.56308196543E+02 -0.15597588578E+03  0.17150835603E+03  0.47000000000E+01 0.  1.
         11    1    4    4    0    0  0.19718781102E+02 -0.22764051307E+02 -0.63159870019E+02  0.69972862889E+02  0.00000000000E+00 0. -1.
        -12    1    4    4    0    0  0.24160648964E+02 -0.39788081775E+02  0.17244631865E+02  0.49640766894E+02  0.00000000000E+00 0.  1.
</event>
<event>
12    1  0.8219652E-002  0.2033328E+03  0.7818608E-02  0.1147132E+00
         21   -1    0    0  501  502  0.00000000000E+00  0.00000000000E+00  0.60411230633E+02  0.60411230633E+02  0.00000000000E+00 0. -1.
         21   -1    0    0  502  503 -0.00000000000E+00 -0.00000000000E+00 -0.68245605390E+03  0.68245605390E+03  0.00000000000E+00 0. -1.
         -6    2    1    2    0  503  0.10672340010E+03 -0.24224376998E+02 -0.29800100666E+03  0.36076143402E+03  0.17136950644E+03 0.  0.
        -24    2    3    3    0    0  0.42551892651E+02 -0.46596318595E+02 -0.72124321634E+02  0.12483590980E+03  0.80001288303E+02 0.  0.
          6    2    1    2  501    0 -0.10672340010E+03  0.24224376998E+02 -0.32404381660E+03  0.38210585051E+03  0.17036367378E+03 0.  0.
         24    2    5    5    0    0 -0.38527641469E+02  0.58028404165E+02 -0.10161419846E+03  0.14696674535E+03  0.80138031315E+02 0.  0.
          5    1    5    5  501    0 -0.68195758633E+02 -0.33804027166E+02 -0.22242961814E+03  0.23513910515E+03  0.47000000000E+01 0. -1.
        -11    1    6    6    0    0  0.21873507267E+01 -0.16435217128E+02 -0.29786008969E+01  0.16845561094E+02  0.00000000000E+00 0.  1.
         12    1    6    6    0    0 -0.40714992196E+02  0.74463621293E+02 -0.98635597568E+02  0.13012118426E+03  0.00000000000E+00 0. -1.
         -5    1    3    3    0  503  0.64171507451E+02  0.22371941597E+02 -0.22587668503E+03  0.23592552422E+03  0.47000000000E+01 0.  1.
         13    1    4    4    0    0  0.79829208879E+00 -0.39639109148E+02  0.17588122142E+01  0.39686139454E+02  0.00000000000E+00 0. -1.
        -14    1    4    4    0    0  0.41753600562E+02 -0.69572094467E+01 -0.73883133848E+02  0.85149770349E+02  0.00000000000E+00 0.  1.
</event>
<event>
12    1  0.8219652E-002  0.2225608E+03  0.7818608E-02  0.1132260E+00
         21   -1    0    0  503  502  0.00000000000E+00  0.00000000000E+00  0.10334659830E+03  0.10334659830E+03  0.00000000000E+00 0. -1.
         21   -1    0    0  501  503 -0.00000000000E+00 -0.00000000000E+00 -0.77511616121E+03  0.77511616121E+03  0.00000000000E+00 0.  1.
          6    2    1    2  501    0 -0.13425223157E+03  0.40123955166E+02 -0.60936538635E+03  0.64873684664E+03  0.17291538002E+03 0.  0.
         24    2    3    3    0    0 -0.92468557402E+02  0.86378042183E+02 -0.31568718321E+03  0.34847980178E+03  0.75948497829E+02 0.  0.
         -6    2    1    2    0  502  0.13425223157E+03 -0.40123955166E+02 -0.62404176556E+02  0.22972591287E+03  0.17101497108E+03 0.  0.
        -24    2    5    5    0    0  0.12140756907E+03  0.10347604978E+02  0.34093302687E+01  0.14566717496E+03  0.79752313906E+02 0.  0.
          5    1    3    3  501    0 -0.41783674167E+02 -0.46254087016E+02 -0.29367820314E+03  0.30025704486E+03  0.47000000000E+01 0. -1.
        -13    1    4    4    0    0 -0.10584686506E+03  0.74332506607E+02 -0.27024769758E+03  0.29960423634E+03  0.00000000000E+00 0.  1.
         14    1    4    4    0    0  0.13378307655E+02  0.12045535575E+02 -0.45439485628E+02  0.48875565440E+02  0.00000000000E+00 0. -1.
         -5    1    5    5    0  502  0.12844662501E+02 -0.50471560144E+02 -0.65813506825E+02  0.84058737908E+02  0.47000000000E+01 0.  1.
         11    1    6    6    0    0  0.86101653844E+02 -0.25349076890E+02  0.21509545929E+02  0.92296972106E+02  0.00000000000E+00 0. -1.
        -12    1    6    6    0    0  0.35305915224E+02  0.35696681868E+02 -0.18100215660E+02  0.53370202858E+02  0.00000000000E+00 0.  1.
</event>
<event>
12    1  0.8219652E-002  0.2233119E+03  0.7818608E-02  0.1131583E+00
         21   -1    0    0  503  502  0.00000000000E+00  0.00000000000E+00  0.73107803830E+03  0.73107803830E+03  0.00000000000E+00 0. -1.
         21   -1    0    0  501  503 -0.00000000000E+00 -0.00000000000E+00 -0.81105323201E+02  0.81105323201E+02  0.00000000000E+00 0. -1.
          6    2    1    2  501    0 -0.83738663290E+02 -0.11318266457E+03  0.16108058916E+03  0.27470430903E+03  0.17231663271E+03 0.  0.
         24    2    3    3    0    0 -0.60333754545E+02 -0.72693865772E+02  0.18403971457E+03  0.22239423332E+03  0.81633439326E+02 0.  0.
         -6    2    1    2    0  502  0.83738663290E+02  0.11318266457E+03  0.48889212594E+03  0.53747905247E+03  0.17333707552E+03 0.  0.
        -24    2    5    5    0    0  0.87373318745E+02  0.14047203986E+02  0.21845614794E+03  0.24938400138E+03  0.81473129339E+02 0.  0.
          5    1    3    3  501    0 -0.23404908744E+02 -0.40488798798E+02 -0.22959125409E+02  0.52310075712E+02  0.47000000000E+01 0. -1.
        -13    1    4    4    0    0 -0.57263597032E+01 -0.10418137440E+02 -0.72627491950E+01  0.13931127342E+02  0.00000000000E+00 0.  1.
         14    1    4    4    0    0 -0.54607394842E+02 -0.62275728332E+02  0.19130246377E+03  0.20846310598E+03  0.00000000000E+00 0. -1.
         -5    1    5    5    0  502 -0.36346554552E+01  0.99135460584E+02  0.27043597799E+03  0.28809505108E+03  0.47000000000E+01 0.  1.
         13    1    6    6    0    0  0.10164463002E+03  0.15759079230E+02  0.20645409921E+03  0.23065835010E+03  0.00000000000E+00 0. -1.
        -14    1    6    6    0    0 -0.14271311273E+02 -0.17118752447E+01  0.12002048735E+02  0.18725651288E+02  0.00000000000E+00 0.  1.
</event>
<event>
12    1  0.8219652E-002  0.1939131E+03  0.7818608E-02  0.1155536E+00
         21   -1    0    0  503  502  0.00000000000E+00  0.00000000000E+00  0.74597913107E+02  0.74597913107E+02  0.00000000000E+00 0.  1.
         21   -1    0    0  501  503 -0.00000000000E+00 -0.00000000000E+00 -0.61999245780E+03  0.61999245780E+03  0.00000000000E+00 0.  1.
          6    2    1    2  501    0 -0.72502107525E+02 -0.50634811259E+02 -0.42560870700E+03  0.46666290053E+03  0.16973818530E+03 0.  0.
         24    2    3    3    0    0 -0.75309176174E+02 -0.79493497219E+02 -0.41281469537E+03  0.43462417204E+03  0.80569908075E+02 0.  0.
         -6    2    1    2    0  502  0.72502107525E+02  0.50634811259E+02 -0.11978583770E+03  0.22792747038E+03  0.17257417285E+03 0.  0.
        -24    2    5    5    0    0  0.13133940915E+02  0.89544953886E+02 -0.78712073101E+02  0.14578294808E+03  0.82863009416E+02 0.  0.
          5    1    3    3  501    0  0.28070686491E+01  0.28858685960E+02 -0.12794011624E+02  0.32038728489E+02  0.47000000000E+01 0. -1.
        -13    1    4    4    0    0 -0.17627920307E+02 -0.53429555516E+02 -0.30031991009E+03  0.30554461110E+03  0.00000000000E+00 0.  1.
         14    1    4    4    0    0 -0.57681255867E+02 -0.26063941703E+02 -0.11249478529E+03  0.12907956094E+03  0.00000000000E+00 0. -1.
         -5    1    5    5    0  502  0.59368166610E+02 -0.38910142627E+02 -0.41073764601E+02  0.82144522303E+02  0.47000000000E+01 0.  1.
         11    1    6    6    0    0  0.41680646675E+02  0.28684060056E+02 -0.54414438306E+02  0.74303315570E+02  0.00000000000E+00 0. -1.
        -12    1    6    6    0    0 -0.28546705760E+02  0.60860893830E+02 -0.24297634795E+02  0.71479632512E+02  0.00000000000E+00 0.  1.
</event>
<event>
12    1  0.8219652E-002  0.1954248E+03  0.7818608E-02  0.1153676E+00
         21   -1    0    0  503  502  0.00000000000E+00  0.00000000000E+00  0.32986664240E+03  0.32986664240E+03  0.00000000000E+00 0.  1.
         21   -1    0    0  501  503 -0.00000000000E+00 -0.00000000000E+00 -0.14981205123E+03  0.14981205123E+03  0.00000000000E+00 0. -1.
          6    2    1    2  501    0 -0.13905456086E+02 -0.91412534287E+02 -0.24387223173E+02  0.19685841549E+03  0.17207232770E+03 0.  0.
         24    2    3    3    0    0  0.44179759042E+02 -0.87642994561E+02 -0.44763633158E+02  0.13500868040E+03  0.81181373022E+02 0.  0.
         -6    2    1    2    0  502  0.13905456086E+02  0.91412534287E+02  0.20444181434E+03  0.28282027815E+03  0.17216631827E+03 0.  0.
        -24    2    5    5    0    0  0.66689507759E+02  0.65788921872E+02  0.95193147644E+02  0.15872319196E+03  0.85765048957E+02 0.  0.
          5    1    3    3  501    0 -0.58085215127E+02 -0.37695397255E+01  0.20376409985E+02  0.61849735084E+02  0.47000000000E+01 0. -1.
        -13    1    4    4    0    0 -0.17478648637E+02 -0.10316593731E+02  0.92678208838E+01  0.22312054327E+02  0.00000000000E+00 0.  1.
         14    1    4    4    0    0  0.61658407678E+02 -0.77326400830E+02 -0.54031454042E+02  0.11269662607E+03  0.00000000000E+00 0. -1.
         -5    1    5    5    0  502 -0.52784051674E+02  0.25623612415E+02  0.10924866669E+03  0.12409708618E+03  0.47000000000E+01 0.  1.
         11    1    6    6    0    0  0.67198427920E+02  0.74687325973E+02  0.10510108809E+03  0.14539623136E+03  0.00000000000E+00 0. -1.
        -12    1    6    6    0    0 -0.50892016122E+00 -0.88984041003E+01 -0.99079404411E+01  0.13326960608E+02  0.00000000000E+00 0.  1.
</event>
<event>
12    1  0.8219652E-002  0.1890256E+03  0.7818608E-02  0.1159723E+00
         21   -1    0    0  501  502  0.00000000000E+00  0.00000000000E+00  0.17386217266E+03  0.17386217266E+03  0.00000000000E+00 0.  1.
         21   -1    0    0  502  503 -0.00000000000E+00 -0.00000000000E+00 -0.84005661461E+03  0.84005661461E+03  0.00000000000E+00 0. -1.
         -6    2    1    2    0  503 -0.57414174335E+02  0.51554508401E+02 -0.77397110208E+03  0.79632630829E+03  0.17073390893E+03 0.  0.
        -24    2    3    3    0    0 -0.79981304729E+02  0.16939349206E+02 -0.71193841193E+03  0.72164278087E+03  0.85017940097E+02 0.  0.
          6    2    1    2  501    0  0.57414174335E+02 -0.51554508401E+02  0.10777666013E+03  0.21759247898E+03  0.17255846455E+03 0.  0.
         24    2    5    5    0    0  0.67664902234E+02  0.27305248172E+02  0.93784417641E+02  0.13671101337E+03  0.67603761821E+02 0.  0.
          5    1    5    5  501    0 -0.10250727899E+02 -0.78859756574E+02  0.13992242491E+02  0.80881465610E+02  0.47000000000E+01 0. -1.
        -11    1    6    6    0    0  0.45335553450E+02  0.41796662230E+01  0.95056597396E+01  0.46509564430E+02  0.00000000000E+00 0.  1.
         12    1    6    6    0    0  0.22329348784E+02  0.23125581949E+02  0.84278757902E+02  0.90201448941E+02  0.00000000000E+00 0. -1.
         -5    1    3    3    0  503  0.22567130394E+02  0.34615159195E+02 -0.62032690154E+02  0.74683527421E+02  0.47000000000E+01 0.  1.
         11    1    4    4    0    0 -0.26562809711E+01  0.37672186098E+02 -0.24410922450E+03  0.24701328491E+03  0.00000000000E+00 0. -1.
        -12    1    4    4    0    0 -0.77325023758E+02 -0.20732836893E+02 -0.46782918742E+03  0.47462949596E+03  0.00000000000E+00 0.  1.
</event>
<event>
12    1  0.8219652E-002  0.2164689E+03  0.7818608E-02  0.1137433E+00
         21   -1    0    0  503  502  0.00000000000E+00  0.00000000000E+00  0.25608610997E+03  0.25608610997E+03  0.00000000000E+00 0. -1.
         21   -1    0    0  501  503 -0.00000000000E+00 -0.00000000000E+00 -0.17919455845E+03  0.17919455845E+03  0.00000000000E+00 0.  1.
          6    2    1    2  501    0 -0.16355554395E+02  0.13106160738E+03  0.32869258379E+02  0.21438076600E+03  0.16563235069E+03 0.  0.
         24    2    3    3    0    0  0.30303943402E+02  0.13456926634E+03  0.22164002702E+02  0.16615105622E+03  0.89931718762E+02 0.  0.
         -6    2    1    2    0  502  0.16355554395E+02 -0.13106160738E+03  0.44022293137E+02  0.22089990242E+03  0.17150555533E+03 0.  0.
        -24    2    5    5    0    0 -0.38268903718E+02 -0.13041587988E+03  0.51028719683E+02  0.16562397275E+03  0.79715490332E+02 0.  0.
          5    1    3    3  501    0 -0.46659497797E+02 -0.35076589591E+01  0.10705255677E+02  0.48229709777E+02  0.47000000000E+01 0. -1.
        -13    1    4    4    0    0  0.19346483720E+02  0.13801659745E+03 -0.20167852483E+01  0.13938054035E+03  0.00000000000E+00 0.  1.
         14    1    4    4    0    0  0.10957459682E+02 -0.34473311110E+01  0.24180787950E+02  0.26770515878E+02  0.00000000000E+00 0. -1.
         -5    1    5    5    0  502  0.54624458113E+02 -0.64572749729E+00 -0.70064265461E+01  0.55275929672E+02  0.47000000000E+01 0.  1.
         13    1    6    6    0    0 -0.55328951033E+02 -0.48505940741E+02  0.29137386910E+02  0.79139790406E+02  0.00000000000E+00 0. -1.
        -14    1    6    6    0    0  0.17060047315E+02 -0.81909939143E+02  0.21891332773E+02  0.86484182342E+02  0.00000000000E+00 0.  1.
</event>
<event>
12    1  0.8219652E-002  0.2164155E+03  0.7818608E-02  0.1136587E+00
         21   -1    0    0  503  502  0.00000000000E+00  0.00000000000E+00  0.60459947706E+02  0.60459947706E+02  0.00000000000E+00 0.  1.
         21   -1    0    0  501  503 -0.00000000000E+00 -0.00000000000E+00 -0.10543822136E+04  0.10543822136E+04  0.00000000000E+00 0.  1.
          6    2    1    2  501    0 -0.12592963001E+03 -0.38954725578E+02 -0.78411246500E+03  0.81342978734E+03  0.17163891985E+03 0.  0.
         24    2    3    3    0    0 -0.40418339222E+02 -0.73495204518E+02 -0.33302345275E+03  0.35298585751E+03  0.81603972292E+02 0.  0.
         -6    2    1    2    0  502  0.12592963001E+03  0.38954725578E+02 -0.20980980090E+03  0.30141237397E+03  0.17162029096E+03 0.  0.
        -24    2    5    5    0    0  0.83466387482E+02 -0.40286431303E+02 -0.14991931332E+03  0.19328629750E+03  0.79335729081E+02 0.  0.
          5    1    3    3  501    0 -0.85511290790E+02  0.34540478940E+02 -0.45108901225E+03  0.46044392983E+03  0.47000000000E+01 0. -1.
        -13    1    4    4    0    0 -0.57670826706E+02 -0.79610884761E+02 -0.29076630962E+03  0.30693462502E+03  0.00000000000E+00 0.  1.
         14    1    4    4    0    0  0.17252487484E+02  0.61156802427E+01 -0.42257143126E+02  0.46051232496E+02  0.00000000000E+00 0. -1.
         -5    1    5    5    0  502  0.42463242530E+02  0.79241156881E+02 -0.59890487576E+02  0.10812607647E+03  0.47000000000E+01 0.  1.
         11    1    6    6    0    0 -0.42305569429E+01  0.86664004799E+01  0.32053342669E+01  0.10162592046E+02  0.00000000000E+00 0. -1.
        -12    1    6    6    0    0  0.87696944425E+02 -0.48952831783E+02 -0.15312464759E+03  0.18312370546E+03  0.00000000000E+00 0.  1.
</event>
<event>
12    1  0.8219652E-002  0.1838423E+03  0.7818608E-02  0.1164762E+00
         21   -1    0    0  501  502  0.00000000000E+00  0.00000000000E+00  0.23482227701E+03  0.23482227701E+03  0.00000000000E+00 0.  1.
         21   -1    0    0  502  503 -0.00000000000E+00 -0.00000000000E+00 -0.66334653369E+03  0.66334653369E+03  0.00000000000E+00 0.  1.
         -6    2    1    2    0  503 -0.66357775418E+02  0.18510928203E+02 -0.61276707671E+03  0.63975111919E+03  0.17044645900E+03 0.  0.
        -24    2    3    3    0    0 -0.81187348707E+02  0.21108150721E+02 -0.61283526933E+03  0.62397910413E+03  0.82133522036E+02 0.  0.
          6    2    1    2  501    0  0.66357775418E+02 -0.18510928203E+02  0.18424282004E+03  0.25841769151E+03  0.16759557790E+03 0.  0.
         24    2    5    5    0    0  0.67702381900E+02  0.42881025561E+02  0.14413408774E+03  0.18492224703E+03  0.83661265408E+02 0.  0.
          5    1    5    5  501    0 -0.13446064827E+01 -0.61391953764E+02  0.40108732299E+02  0.73495444486E+02  0.47000000000E+01 0. -1.
        -11    1    6    6    0    0  0.55607161731E+02  0.25845755665E+02  0.28863486094E+02  0.67773596269E+02  0.00000000000E+00 0.  1.
         12    1    6    6    0    0  0.12095220169E+02  0.17035269896E+02  0.11527060164E+03  0.11714865076E+03  0.00000000000E+00 0. -1.
         -5    1    3    3    0  503  0.14829573290E+02 -0.25972225178E+01  0.68192621652E-01  0.15772015058E+02  0.47000000000E+01 0.  1.
         11    1    4    4    0    0 -0.82857405476E+02 -0.10678261672E+02 -0.38722748024E+03  0.39613696668E+03  0.00000000000E+00 0. -1.
        -12    1    4    4    0    0  0.16700567687E+01  0.31786412393E+02 -0.22560778909E+03  0.22784213746E+03  0.00000000000E+00 0.  1.
</event>
<event>
12    1  0.8219652E-002  0.1813277E+03  0.7818608E-02  0.1166607E+00
         21   -1    0    0  501  502  0.00000000000E+00  0.00000000000E+00  0.39255770431E+02  0.39255770431E+02  0.00000000000E+00 0.  1.
         21   -1    0    0  502  503 -0.00000000000E+00 -0.00000000000E+00 -0.16138725568E+04  0.16138725568E+04  0.00000000000E+00 0.  1.
         -6    2    1    2    0  503  0.38395110392E+02 -0.43124168088E+02 -0.13607719742E+04  0.13727547491E+04  0.17152654844E+03 0.  0.
        -24    2    3    3    0    0  0.22585743405E+02 -0.71829609149E+02 -0.54887055087E+03  0.56017862973E+03  0.82895156931E+02 0.  0.
          6    2    1    2  501    0 -0.38395110392E+02  0.43124168088E+02 -0.21384481208E+03  0.28037357813E+03  0.17188909587E+03 0.  0.
         24    2    5    5    0    0  0.63736047470E+00  0.87479107330E+02 -0.11708013384E+03  0.16689940761E+03  0.80589416640E+02 0.  0.
          5    1    5    5  501    0 -0.39032470866E+02 -0.44354939242E+02 -0.96764678249E+02  0.11347417051E+03  0.47000000000E+01 0. -1.
        -11    1    6    6    0    0 -0.17556105027E+02  0.96638646819E+02 -0.91874543008E+02  0.13449229173E+03  0.00000000000E+00 0.  1.
         12    1    6    6    0    0  0.18193465502E+02 -0.91595394885E+01 -0.25205590828E+02  0.32407115879E+02  0.00000000000E+00 0. -1.
         -5    1    3    3    0  503  0.15809366987E+02  0.28705441060E+02 -0.81190142337E+03  0.81257611933E+03  0.47000000000E+01 0.  1.
         11    1    4    4    0    0  0.95479546745E+01  0.14344264406E+02 -0.19394513749E+03  0.19470911051E+03  0.00000000000E+00 0. -1.
        -12    1    4    4    0    0  0.13037788730E+02 -0.86173873554E+02 -0.35492541338E+03  0.36546951922E+03  0.00000000000E+00 0.  1.
</event>
<event>
12    1  0.8219652E-002  0.5044228E+03  0.7818608E-02  0.1012649E+00
         21   -1    0    0  501  502  0.00000000000E+00  0.00000000000E+00  0.67743813509E+03  0.67743813509E+03  0.00000000000E+00 0.  1.
         21   -1    0    0  502  503 -0.00000000000E+00 -0.00000000000E+00 -0.50878473764E+03  0.50878473764E+03  0.00000000000E+00 0. -1.
         -6    2    1    2    0  503 -0.43060361023E+03  0.19753544114E+03 -0.21939645036E+03  0.54980707637E+03  0.17237545982E+03 0.  0.
        -24    2    3    3    0    0 -0.43207650705E+03  0.20920703823E+03 -0.22465917586E+03  0.53608913617E+03  0.80387336241E+02 0.  0.
          6    2    1    2  501    0  0.43060361023E+03 -0.19753544114E+03  0.38804984780E+03  0.63641579636E+03  0.17321276462E+03 0.  0.
         24    2    5    5    0    0  0.78528778932E+02 -0.49635594333E+02  0.76450459801E+02  0.14351893076E+03  0.78246720929E+02 0.  0.
          5    1    5    5  501    0  0.35207483129E+03 -0.14789984681E+03  0.31159938800E+03  0.49289686560E+03  0.47000000000E+01 0. -1.
        -11    1    6    6    0    0  0.20954265640E+02  0.70576542792E+01  0.55944724645E+02  0.60155664305E+02  0.00000000000E+00 0.  1.
         12    1    6    6    0    0  0.57574513292E+02 -0.56693248612E+02  0.20505735156E+02  0.83363266451E+02  0.00000000000E+00 0. -1.
         -5    1    3    3    0  503  0.14728968239E+01 -0.11671597089E+02  0.52627255032E+01  0.13717940202E+02  0.47000000000E+01 0.  1.
         11    1    4    4    0    0 -0.39886273448E+03  0.18528854027E+03 -0.17916522105E+03  0.47489314646E+03  0.00000000000E+00 0. -1.
        -12    1    4    4    0    0 -0.33213772566E+02  0.23918497958E+02 -0.45493954807E+02  0.61195989710E+02  0.00000000000E+00 0.  1.
</event>
<event>
12    1  0.8219652E-002  0.1916635E+03  0.7818608E-02  0.1156993E+00
         21   -1    0    0  501  502  0.00000000000E+00  0.00000000000E+00  0.27873360279E+03  0.27873360279E+03  0.00000000000E+00 0. -1.
         21   -1    0    0  502  503 -0.00000000000E+00 -0.00000000000E+00 -0.13396339148E+03  0.13396339148E+03  0.00000000000E+00 0. -1.
         -6    2    1    2    0  503  0.77465619855E+02  0.33919482568E+02  0.45651166643E+02  0.19692056066E+03  0.17187851710E+03 0.  0.
        -24    2    3    3    0    0  0.40081248116E+02 -0.36430572345E+02 -0.14317768107E+02  0.97095290259E+02  0.79301978884E+02 0.  0.
          6    2    1    2  501    0 -0.77465619855E+02 -0.33919482568E+02  0.99119044670E+02  0.21577643361E+03  0.17199834513E+03 0.  0.
         24    2    5    5    0    0 -0.54833340022E+02  0.45827725190E+02  0.71186513805E+02  0.12817418754E+03  0.79083671071E+02 0.  0.
          5    1    5    5  501    0 -0.22632279833E+02 -0.79747207757E+02  0.27932530864E+02  0.87602246067E+02  0.47000000000E+01 0. -1.
        -13    1    6    6    0    0 -0.18919968645E+02 -0.42755827338E+01  0.63084202894E+02  0.65998958144E+02  0.00000000000E+00 0.  1.
         14    1    6    6    0    0 -0.35913371377E+02  0.50103307923E+02  0.81023109109E+01  0.62175229397E+02  0.00000000000E+00 0. -1.
         -5    1    3    3    0  503  0.37384371739E+02  0.70350054913E+02  0.59968934749E+02  0.99825270406E+02  0.47000000000E+01 0.  1.
         11    1    4    4    0    0  0.28232654364E+02  0.18508808423E+02 -0.22110491868E+02  0.40355081617E+02  0.00000000000E+00 0. -1.
        -12    1    4    4    0    0  0.11848593752E+02 -0.54939380768E+02  0.77927237616E+01  0.56740208642E+02  0.00000000000E+00 0.  1.
</event>
<event>
12    1  0.8219652E-002  0.1767400E+03  0.7818608E-02  0.1171485E+00
         21   -1    0    0  503  502  0.00000000000E+00  0.00000000000E+00  0.50686652993E+02  0.50686652993E+02  0.00000000000E+00 0.  1.
         21   -1    0    0  501  503 -0.00000000000E+00 -0.00000000000E+00 -0.61197001310E+03  0.61197001310E+03  0.00000000000E+00 0.  1.
          6    2    1    2  501    0  0.21543470580E+02 -0.30518303545E+02 -0.30347099894E+03  0.35118609005E+03  0.17274702507E+03 0.  0.
         24    2    3    3    0    0  0.32960608428E+02  0.45107952988E+02 -0.19715563864E+03  0.22013370530E+03  0.80419980286E+02 0.  0.
         -6    2    1    2    0  502 -0.21543470580E+02  0.30518303545E+02 -0.25781236117E+03  0.31147057604E+03  0.17073727828E+03 0.  0.
        -24    2    5    5    0    0 -0.29006372099E+02 -0.42349088714E+02 -0.10142479226E+03  0.13871492936E+03  0.79498605044E+02 0.  0.
          5    1    3    3  501    0 -0.11417137848E+02 -0.75626256534E+02 -0.10631536030E+03  0.13105238475E+03  0.47000000000E+01 0. -1.
        -13    1    4    4    0    0 -0.81765299623E+01 -0.12918652054E+02 -0.64475071996E+01  0.16592696050E+02  0.00000000000E+00 0.  1.
         14    1    4    4    0    0  0.41137138391E+02  0.58026605042E+02 -0.19070813144E+03  0.20354100925E+03  0.00000000000E+00 0. -1.
         -5    1    5    5    0  502  0.74629015187E+01  0.72867392259E+02 -0.15638756890E+03  0.17275564668E+03  0.47000000000E+01 0.  1.
         11    1    6    6    0    0  0.17961616712E+01 -0.25068755964E+02  0.58251328364E+01  0.25799242137E+02  0.00000000000E+00 0. -1.
        -12    1    6    6    0    0 -0.30802533770E+02 -0.17280332750E+02 -0.10724992510E+03  0.11291568722E+03  0.00000000000E+00 0.  1.
</event>
<event>
12    1  0.8219652E-002  0.2316000E+03  0.7818608E-02  0.1125541E+00
         21   -1    0    0  501  502  0.00000000000E+00  0.00000000000E+00  0.11966098304E+04  0.11966098304E+04  0.00000000000E+00 0.  1.
         21   -1    0    0  502  503 -0.00000000000E+00 -0.00000000000E+00 -0.45459190760E+02  0.45459190760E+02  0.00000000000E+00 0.  1.
         -6    2    1    2    0  503  0.96005351656E+01  0.15480768192E+03  0.65049300825E+03  0.69049235392E+03  0.17199112879E+03 0.  0.
        -24    2    3    3    0    0  0.51800954669E+02  0.34673240623E+02  0.24744082131E+03  0.26777931320E+03  0.81198694634E+02 0.  0.
          6    2    1    2  501    0 -0.96005351656E+01 -0.15480768192E+03  0.50065763135E+03  0.55157666720E+03  0.17181724976E+03 0.  0.
         24    2    5    5    0    0 -0.15654395490E+02 -0.11566749420E+03  0.19428483713E+03  0.24261876950E+03  0.86563503035E+02 0.  0.
          5    1    5    5  501    0  0.60538603248E+01 -0.39140187714E+02  0.30637279422E+03  0.30895789771E+03  0.47000000000E+01 0. -1.
        -13    1    6    6    0    0 -0.32018658734E+02 -0.81282396118E+02  0.18319042919E+03  0.20295505851E+03  0.00000000000E+00 0.  1.
         14    1    6    6    0    0  0.16364263243E+02 -0.34385098086E+02  0.11094407943E+02  0.39663710990E+02  0.00000000000E+00 0. -1.
         -5    1    3    3    0  503 -0.42200419504E+02  0.12013444130E+03  0.40305218694E+03  0.42271304072E+03  0.47000000000E+01 0.  1.
         11    1    4    4    0    0  0.41147628569E+02 -0.20558835985E+02  0.10494513029E+03  0.11458304170E+03  0.00000000000E+00 0. -1.
        -12    1    4    4    0    0  0.10653326100E+02  0.55232076609E+02  0.14249569102E+03  0.15319627151E+03  0.00000000000E+00 0.  1.
</event>
<event>
12    1  0.8219652E-002  0.1738212E+03  0.7818608E-02  0.1174458E+00
         21   -1    0    0  501  502  0.00000000000E+00  0.00000000000E+00  0.29619975338E+03  0.29619975338E+03  0.00000000000E+00 0.  1.
         21   -1    0    0  502  503 -0.00000000000E+00 -0.00000000000E+00 -0.14437464113E+03  0.14437464113E+03  0.00000000000E+00 0.  1.
         -6    2    1    2    0  503 -0.35267298152E+00  0.14062151116E+02 -0.44824136025E+02  0.17950769300E+03  0.17325109005E+03 0.  0.
        -24    2    3    3    0    0 -0.55113712353E+02  0.83203050272E+01  0.14366155880E+02  0.98530406769E+02  0.79969405763E+02 0.  0.
          6    2    1    2  501    0  0.35267298152E+00 -0.14062151116E+02  0.19664924828E+03  0.26106670151E+03  0.17113452987E+03 0.  0.
         24    2    5    5    0    0 -0.29415748470E+02  0.57530930520E+01  0.20672687059E+03  0.22361738524E+03  0.79814482513E+02 0.  0.
          5    1    5    5  501    0  0.29768421452E+02 -0.19815244168E+02 -0.10077622316E+02  0.37449316265E+02  0.47000000000E+01 0. -1.
        -11    1    6    6    0    0 -0.42159748357E+02  0.21487704843E+02  0.64717853929E+02  0.80172105237E+02  0.00000000000E+00 0.  1.
         12    1    6    6    0    0  0.12743999887E+02 -0.15734611791E+02  0.14200901667E+03  0.14344528000E+03  0.00000000000E+00 0. -1.
         -5    1    3    3    0  503  0.54761039372E+02  0.57418460885E+01 -0.59190291905E+02  0.80977286231E+02  0.47000000000E+01 0.  1.
         13    1    4    4    0    0 -0.99577924168E+01  0.37495994831E+02 -0.91353126684E+01  0.39856758470E+02  0.00000000000E+00 0. -1.
        -14    1    4    4    0    0 -0.45155919936E+02 -0.29175689803E+02  0.23501468549E+02  0.58673648299E+02  0.00000000000E+00 0.  1.
</event>
<event>
12    1  0.8219652E-002  0.2055417E+03  0.7818608E-02  0.1145366E+00
         21   -1    0    0  501  502  0.00000000000E+00  0.00000000000E+00  0.75911227882E+03  0.75911227882E+03  0.00000000000E+00 0. -1.
         21   -1    0    0  502  503 -0.00000000000E+00 -0.00000000000E+00 -0.67121883970E+02  0.67121883970E+02  0.00000000000E+00 0. -1.
         -6    2    1    2    0  503 -0.19093434514E+02  0.11209630614E+03  0.17382799232E+03  0.26919053762E+03  0.17122275999E+03 0.  0.
        -24    2    3    3    0    0 -0.45584822379E+02  0.13848514094E+03  0.13589970835E+03  0.21572270655E+03  0.82531479450E+02 0.  0.
          6    2    1    2  501    0  0.19093434514E+02 -0.11209630614E+03  0.51816240253E+03  0.55704362517E+03  0.16992699568E+03 0.  0.
         24    2    5    5    0    0  0.43023615070E+02 -0.11056217609E+01  0.23115851728E+03  0.24836109294E+03  0.79979488130E+02 0.  0.
          5    1    5    5  501    0 -0.23930180556E+02 -0.11099068437E+03  0.28700388524E+03  0.30868253223E+03  0.47000000000E+01 0. -1.
        -11    1    6    6    0    0  0.20429495102E+02  0.19118642220E+02  0.18480749217E+02  0.33532444618E+02  0.00000000000E+00 0.  1.
         12    1    6    6    0    0  0.22594119969E+02 -0.20224263981E+02  0.21267776807E+03  0.21482864832E+03  0.00000000000E+00 0. -1.
         -5    1    3    3    0  503  0.26491387865E+02 -0.26388834807E+02  0.37928283974E+02  0.53467831064E+02  0.47000000000E+01 0.  1.
         13    1    4    4    0    0 -0.11635501585E+02  0.11525684457E+03  0.62613909629E+02  0.13168153552E+03  0.00000000000E+00 0. -1.
        -14    1    4    4    0    0 -0.33949320795E+02  0.23228296371E+02  0.73285798720E+02  0.84041171034E+02  0.00000000000E+00 0.  1.
</event>
<event>
12    1  0.8219652E-002  0.1872331E+03  0.7818608E-02  0.1161268E+00
         21   -1    0    0  501  502  0.00000000000E+00  0.00000000000E+00  0.65843019492E+03  0.65843019492E+03  0.00000000000E+00 0. -1.
         21   -1    0    0  502  503 -0.00000000000E+00 -0.00000000000E+00 -0.53088808207E+02  0.53088808207E+02  0.00000000000E+00 0. -1.
         -6    2    1    2    0  503  0.73243310519E+02  0.18292647809E+01  0.32553037066E+03  0.37553460700E+03  0.17230290213E+03 0.  0.
        -24    2    3    3    0    0  0.99424472767E+02  0.11774688059E+02  0.32248698810E+03  0.34697384933E+03  0.79806801487E+02 0.  0.
          6    2    1    2  501    0 -0.73243310519E+02 -0.18292647809E+01  0.27981101605E+03  0.33598439614E+03  0.17094847468E+03 0.  0.
         24    2    5    5    0    0 -0.10224807191E+03 -0.11211591526E+02  0.27541445894E+03  0.30482795293E+03  0.80539361177E+02 0.  0.
          5    1    5    5  501    0  0.29004761395E+02  0.93823267454E+01  0.43965571122E+01  0.31156443204E+02  0.47000000000E+01 0. -1.
        -13    1    6    6    0    0 -0.10724584535E+03 -0.20477352325E+02  0.19299400571E+03  0.22173786222E+03  0.00000000000E+00 0.  1.
         14    1    6    6    0    0  0.49977734397E+01  0.92657607991E+01  0.82420453234E+02  0.83090090708E+02  0.00000000000E+00 0. -1.
         -5    1    3    3    0  503 -0.26181162248E+02 -0.99454232777E+01  0.30433825624E+01  0.28560757662E+02  0.47000000000E+01 0.  1.
         11    1    4    4    0    0 -0.73803717667E+01  0.38752721353E+01  0.96876182235E+02  0.97234162237E+02  0.00000000000E+00 0. -1.
        -12    1    4    4    0    0  0.10680484453E+03  0.78994159234E+01  0.22561080587E+03  0.24973968710E+03  0.00000000000E+00 0.  1.
</event>
<event>
12    1  0.8219652E-002  0.2198793E+03  0.7818608E-02  0.1134003E+00
         21   -1    0    0  501  502  0.00000000000E+00  0.00000000000E+00  0.42981118465E+02  0.42981118465E+02  0.00000000000E+00 0.  1.
         21   -1    0    0  502  503 -0.00000000000E+00 -0.00000000000E+00 -0.11881188230E+04  0.11881188230E+04  0.00000000000E+00 0.  1.
         -6    2    1    2    0  503 -0.12472302573E+03 -0.56114808632E+02 -0.71535135946E+03  0.74833373483E+03  0.17196251424E+03 0.  0.
        -24    2    3    3    0    0 -0.81743799741E+02  0.11924289064E+02 -0.24805177952E+03  0.27413175244E+03  0.82427513067E+02 0.  0.
          6    2    1    2  501    0  0.12472302573E+03  0.56114808632E+02 -0.42978634505E+03  0.48276620661E+03  0.17216911152E+03 0.  0.
         24    2    5    5    0    0  0.92442767154E+02  0.66501151525E+02 -0.42632137695E+03  0.44835709130E+03  0.79410934541E+02 0.  0.
          5    1    5    5  501    0  0.32280258575E+02 -0.10386342893E+02 -0.34649680991E+01  0.34409115308E+02  0.47000000000E+01 0. -1.
        -11    1    6    6    0    0  0.36649384244E+02  0.36905404764E+02 -0.74182052895E+02  0.90598914111E+02  0.00000000000E+00 0.  1.
         12    1    6    6    0    0  0.55793382910E+02  0.29595746761E+02 -0.35213932406E+03  0.35775817719E+03  0.00000000000E+00 0. -1.
         -5    1    3    3    0  503 -0.42979225988E+02 -0.68039097696E+02 -0.46729957994E+03  0.47420198239E+03  0.47000000000E+01 0.  1.
         13    1    4    4    0    0 -0.79498482371E+02 -0.11907203625E+02 -0.12389163957E+03  0.14768523471E+03  0.00000000000E+00 0. -1.
        -14    1    4    4    0    0 -0.22453173699E+01  0.23831492689E+02 -0.12416013995E+03  0.12644651773E+03  0.00000000000E+00 0.  1.
</event>
<event>
12    1  0.8219652E-002  0.2441028E+03  0.7818608E-02  0.1117168E+00
         21   -1    0    0  501  502  0.00000000000E+00  0.00000000000E+00  0.68501856833E+03  0.68501856833E+03  0.00000000000E+00 0. -1.
         21   -1    0    0  502  503 -0.00000000000E+00 -0.00000000000E+00 -0.98213461258E+02  0.98213461258E+02  0.00000000000E+00 0. -1.
         -6    2    1    2    0  503 -0.16184177218E+03 -0.53406917159E+02  0.16023142385E+03  0.29199363005E+03  0.17476015786E+03 0.  0.
        -24    2    3    3    0    0 -0.13396096364E+03 -0.39072983205E+02  0.18863740348E+03  0.24942849377E+03  0.84606534709E+02 0.  0.
          6    2    1    2  501    0  0.16184177218E+03  0.53406917159E+02  0.42657368322E+03  0.49123839954E+03  0.17408331323E+03 0.  0.
         24    2    5    5    0    0  0.16559313013E+02  0.49310749559E+02  0.13216742388E+03  0.16287745931E+03  0.79718742758E+02 0.  0.
          5    1    5    5  501    0  0.14528245916E+03  0.40961676003E+01  0.29440625935E+03  0.32836094023E+03  0.47000000000E+01 0. -1.
        -13    1    6    6    0    0  0.17034214177E+02  0.58727705062E+02  0.13858228672E+03  0.15147329133E+03  0.00000000000E+00 0.  1.
         14    1    6    6    0    0 -0.47490116429E+00 -0.94169555028E+01 -0.64148628393E+01  0.11404167979E+02  0.00000000000E+00 0. -1.
         -5    1    3    3    0  503 -0.27880808538E+02 -0.14333933954E+02 -0.28405979634E+02  0.42565136277E+02  0.47000000000E+01 0.  1.
         11    1    4    4    0    0 -0.53443078211E+02  0.12690754250E+02  0.11897050131E+03  0.13103891801E+03  0.00000000000E+00 0. -1.
        -12    1    4    4    0    0 -0.80517885428E+02 -0.51763737455E+02  0.69666902171E+02  0.11838957575E+03  0.00000000000E+00 0.  1.
</event>
<event>
12    1  0.8219652E-002  0.2253475E+03  0.7818608E-02  0.1130344E+00
         21   -1    0    0  501  502  0.00000000000E+00  0.00000000000E+00  0.87213128176E+02  0.87213128176E+02  0.00000000000E+00 0. -1.
         21   -1    0    0  502  503 -0.00000000000E+00 -0.00000000000E+00 -0.61224693547E+03  0.61224693547E+03  0.00000000000E+00 0. -1.
         -6    2    1    2    0  503 -0.12957163749E+03  0.59633317262E+02 -0.17953213359E+03  0.28812025434E+03  0.17446074687E+03 0.  0.
        -24    2    3    3    0    0 -0.13026807972E+03  0.56044241888E+02 -0.20504642974E+03  0.26192033445E+03  0.80296286371E+02 0.  0.
          6    2    1    2  501    0  0.12957163749E+03 -0.59633317262E+02 -0.34550167370E+03  0.41133980931E+03  0.17170931956E+03 0.  0.
         24    2    5    5    0    0  0.53419563892E+01 -0.40647181142E+02 -0.94893943262E+02  0.13094756337E+03  0.80384538631E+02 0.  0.
          5    1    5    5  501    0  0.12422968110E+03 -0.18986136120E+02 -0.25060773043E+03  0.28039224594E+03  0.47000000000E+01 0. -1.
        -13    1    6    6    0    0 -0.11543216419E+01 -0.32079859718E+02  0.32058719521E+01  0.32260308010E+02  0.00000000000E+00 0.  1.
         14    1    6    6    0    0  0.64962780311E+01 -0.85673214245E+01 -0.98099815214E+02  0.98687255356E+02  0.00000000000E+00 0. -1.
         -5    1    3    3    0  503  0.69644223754E+00  0.35890753735E+01  0.25514296151E+02  0.26199919883E+02  0.47000000000E+01 0.  1.
         11    1    4    4    0    0 -0.44846436456E+02 -0.18842293835E+02 -0.50536023349E+02  0.70143599534E+02  0.00000000000E+00 0. -1.
        -12    1    4    4    0    0 -0.85421643267E+02  0.74886535723E+02 -0.15451040640E+03  0.19177673492E+03  0.00000000000E+00 0.  1.
</event>
<event>
12    1  0.8219652E-002  0.2058755E+03  0.7818608E-02  0.1145174E+00
         21   -1    0    0  501  502  0.00000000000E+00  0.00000000000E+00  0.15452465891E+03  0.15452465891E+03  0.00000000000E+00 0. -1.
         21   -1    0    0  502  503 -0.00000000000E+00 -0.00000000000E+00 -0.27481373713E+03  0.27481373713E+03  0.00000000000E+00 0.  1.
         -6    2    1    2    0  503 -0.58582567718E+02  0.94124432689E+02 -0.39539699976E+02  0.20819318706E+03  0.17172562183E+03 0.  0.
        -24    2    3    3    0    0  0.28716044907E+02  0.13343250810E+02 -0.73085771037E+01  0.84874160167E+02  0.78406340225E+02 0.  0.
          6    2    1    2  501    0  0.58582567718E+02 -0.94124432689E+02 -0.80749378244E+02  0.22114520897E+03  0.17347453789E+03 0.  0.
         24    2    5    5    0    0  0.87916493452E+01 -0.60368236030E+02 -0.11403141906E+03  0.15223656941E+03  0.80319309726E+02 0.  0.
          5    1    5    5  501    0  0.49790918373E+02 -0.33756196658E+02  0.33282040813E+02  0.68908639559E+02  0.47000000000E+01 0. -1.
        -11    1    6    6    0    0 -0.31064998805E+02 -0.10054342366E+02 -0.19687240023E+02  0.38127567073E+02  0.00000000000E+00 0.  1.
         12    1    6    6    0    0  0.39856648150E+02 -0.50313893664E+02 -0.94344179034E+02  0.11410900234E+03  0.00000000000E+00 0. -1.
         -5    1    3    3    0  503 -0.87298612625E+02  0.80781181879E+02 -0.32231122872E+02  0.12331902689E+03  0.47000000000E+01 0.  1.
         13    1    4    4    0    0 -0.53844219500E+01 -0.23336761730E+02  0.16835996437E+02  0.29275368892E+02  0.00000000000E+00 0. -1.
        -14    1    4    4    0    0  0.34100466857E+02  0.36680012539E+02 -0.24144573540E+02  0.55598791275E+02  0.00000000000E+00 0.  1.
</event>
<event>
12    1  0.8219652E-002  0.1765830E+03  0.7818608E-02  0.1171174E+00
         21   -1    0    0  501  502  0.00000000000E+00  0.00000000000E+00  0.24036293543E+03  0.24036293543E+03  0.00000000000E+00 0. -1.
         21   -1    0    0  502  503 -0.00000000000E+00 -0.00000000000E+00 -0.14200438143E+03  0.14200438143E+03  0.00000000000E+00 0. -1.
         -6    2    1    2    0  503  0.19046030388E+02  0.32105164323E+02 -0.71968105518E+01  0.17664054226E+03  0.17250099779E+03 0.  0.
        -24    2    3    3    0    0  0.29116945157E+02  0.47687497807E+02 -0.63029633807E+02  0.11761828719E+03  0.82094048516E+02 0.  0.
          6    2    1    2  501    0 -0.19046030388E+02 -0.32105164323E+02  0.10555536455E+03  0.20572677459E+03  0.17259223027E+03 0.  0.
         24    2    5    5    0    0 -0.45569056057E+01  0.12505074798E+02 -0.12570640958E+02  0.78542454219E+02  0.76379014240E+02 0.  0.
          5    1    5    5  501    0 -0.14489124782E+02 -0.44610239121E+02  0.11812600551E+03  0.12718432037E+03  0.47000000000E+01 0. -1.
        -13    1    6    6    0    0 -0.38047005833E+02  0.18929572739E+02 -0.91833020930E+00  0.42505843213E+02  0.00000000000E+00 0.  1.
         14    1    6    6    0    0  0.33490100227E+02 -0.64244979408E+01 -0.11652310749E+02  0.36036611006E+02  0.00000000000E+00 0. -1.
         -5    1    3    3    0  503 -0.10070914769E+02 -0.15582333484E+02  0.55832823256E+02  0.59022255072E+02  0.47000000000E+01 0.  1.
         13    1    4    4    0    0 -0.12840138506E+02  0.30885264365E+02 -0.64217633163E+02  0.72406305809E+02  0.00000000000E+00 0. -1.
        -14    1    4    4    0    0  0.41957083663E+02  0.16802233442E+02  0.11879993558E+01  0.45211981384E+02  0.00000000000E+00 0.  1.
</event>
<event>
12    1  0.8219652E-002  0.1732231E+03  0.7818608E-02  0.1174767E+00
         21   -1    0    0  501  502  0.00000000000E+00  0.00000000000E+00  0.18911342895E+03  0.18911342895E+03  0.00000000000E+00 0.  1.
         21   -1    0    0  502  503 -0.00000000000E+00 -0.00000000000E+00 -0.26651920408E+03  0.26651920408E+03  0.00000000000E+00 0.  1.
         -6    2    1    2    0  503 -0.30828215917E+01  0.80251607013E+01 -0.18413816243E+03  0.25216756472E+03  0.17206891306E+03 0.  0.
        -24    2    3    3    0    0 -0.59215374041E+02 -0.15080709069E+02 -0.15296021899E+03  0.18376508801E+03  0.81479388004E+02 0.  0.
          6    2    1    2  501    0  0.30828215917E+01 -0.80251607013E+01  0.10673238729E+03  0.20346506831E+03  0.17300960821E+03 0.  0.
         24    2    5    5    0    0  0.25269103386E+02 -0.35213077998E+02 -0.18632944094E+02  0.73196229899E+02  0.55964390623E+02 0.  0.
          5    1    5    5  501    0 -0.22186281795E+02  0.27187917296E+02  0.12536533139E+03  0.13026883841E+03  0.47000000000E+01 0. -1.
        -13    1    6    6    0    0 -0.16458415351E+02 -0.19106218970E+02 -0.13783069561E+01  0.25255232512E+02  0.00000000000E+00 0.  1.
         14    1    6    6    0    0  0.41727518737E+02 -0.16106859028E+02 -0.17254637138E+02  0.47940997387E+02  0.00000000000E+00 0. -1.
         -5    1    3    3    0  503  0.56132552450E+02  0.23105869770E+02 -0.31177943436E+02  0.68402476704E+02  0.47000000000E+01 0.  1.
         13    1    4    4    0    0 -0.13687331820E+00 -0.31805397993E+02 -0.20702710835E+02  0.37950023870E+02  0.00000000000E+00 0. -1.
        -14    1    4    4    0    0 -0.59078500723E+02  0.16724688924E+02 -0.13225750816E+03  0.14581506414E+03  0.00000000000E+00 0.  1.
</event>
<event>
12    1  0.8219652E-002  0.2149488E+03  0.7818608E-02  0.1137797E+00
         21   -1    0    0  503  502  0.00000000000E+00  0.00000000000E+00  0.18656963467E+03  0.18656963467E+03  0.00000000000E+00 0. -1.
         21   -1    0    0  501  503 -0.00000000000E+00 -0.00000000000E+00 -0.24773586292E+03  0.24773586292E+03  0.00000000000E+00 0. -1.
          6    2    1    2  501    0 -0.46154015944E+02 -0.12292042924E+03 -0.19593879475E+02  0.21584001967E+03  0.17018627696E+03 0.  0.
         24    2    3    3    0    0  0.94822728386E-01 -0.11062949584E+03  0.39601457859E+02  0.13957600401E+03  0.75327890515E+02 0.  0.
         -6    2    1    2    0  502  0.46154015944E+02  0.12292042924E+03 -0.41572348770E+02  0.21846547792E+03  0.16958561185E+03 0.  0.
        -24    2    5    5    0    0  0.30660557178E+01  0.16961883201E+02  0.25698922580E+02  0.85682573356E+02  0.79899703226E+02 0.  0.
          5    1    3    3  501    0 -0.46248838672E+02 -0.12290933402E+02 -0.59195337333E+02  0.76264015659E+02  0.47000000000E+01 0. -1.
        -13    1    4    4    0    0 -0.12541120616E+01  0.10076227422E+02  0.12051445039E+02  0.15758822407E+02  0.00000000000E+00 0.  1.
         14    1    4    4    0    0  0.13489347900E+01 -0.12070572326E+03  0.27550012819E+02  0.12381718160E+03  0.00000000000E+00 0. -1.
         -5    1    5    5    0  502  0.43087960226E+02  0.10595854604E+03 -0.67271271350E+02  0.13278290457E+03  0.47000000000E+01 0.  1.
         13    1    6    6    0    0  0.13628685173E+02  0.38606566666E+02 -0.10441730259E+02  0.42252074269E+02  0.00000000000E+00 0. -1.
        -14    1    6    6    0    0 -0.10562629455E+02 -0.21644683465E+02  0.36140652839E+02  0.43430499087E+02  0.00000000000E+00 0.  1.
</event>
<event>
12    1  0.8219652E-002  0.2876743E+03  0.7818608E-02  0.1091746E+00
         21   -1    0    0  503  502  0.00000000000E+00  0.00000000000E+00  0.15381291851E+04  0.15381291851E+04  0.00000000000E+00 0.  1.
         21   -1    0    0  501  503 -0.00000000000E+00 -0.00000000000E+00 -0.80849029193E+02  0.80849029193E+02  0.00000000000E+00 0.  1.
          6    2    1    2  501    0 -0.21458697905E+03  0.83675193139E+02  0.12001049981E+04  0.12341023054E+04  0.17235830169E+03 0.  0.
         24    2    3    3    0    0 -0.14359102846E+03 -0.11581409704E+01  0.88515940187E+03  0.90026111835E+03  0.79644144464E+02 0.  0.
         -6    2    1    2    0  502  0.21458697905E+03 -0.83675193139E+02  0.25717515780E+03  0.38487590891E+03  0.17012140941E+03 0.  0.
        -24    2    5    5    0    0  0.16725052182E+03 -0.92192956664E+02  0.11971721455E+03  0.23917049157E+03  0.79987713245E+02 0.  0.
          5    1    3    3  501    0 -0.70995950598E+02  0.84833334109E+02  0.31494559628E+03  0.33384118708E+03  0.47000000000E+01 0. -1.
        -11    1    4    4    0    0 -0.85337552910E+02 -0.19196215112E+02  0.31726672958E+03  0.32910358598E+03  0.00000000000E+00 0.  1.
         12    1    4    4    0    0 -0.58253475545E+02  0.18038074142E+02  0.56789267229E+03  0.57115753236E+03  0.00000000000E+00 0. -1.
         -5    1    5    5    0  502  0.47336457235E+02  0.85177635250E+01  0.13745794325E+03  0.14570541734E+03  0.47000000000E+01 0.  1.
         13    1    6    6    0    0  0.16452889360E+03 -0.91385949281E+02  0.12984648670E+03  0.22865095378E+03  0.00000000000E+00 0. -1.
        -14    1    6    6    0    0  0.27216282198E+01 -0.80700738295E+00 -0.10129272149E+02  0.10519537791E+02  0.00000000000E+00 0.  1.
</event>
<event>
12    1  0.8219652E-002  0.3221716E+03  0.7818608E-02  0.1074758E+00
         21   -1    0    0  503  502  0.00000000000E+00  0.00000000000E+00  0.80351215010E+03  0.80351215010E+03  0.00000000000E+00 0. -1.
         21   -1    0    0  501  503 -0.00000000000E+00 -0.00000000000E+00 -0.23491222461E+03  0.23491222461E+03  0.00000000000E+00 0. -1.
          6    2    1    2  501    0 -0.16822903322E+03 -0.21370118930E+03 -0.64417975581E+02  0.32854867801E+03  0.17270018042E+03 0.  0.
         24    2    3    3    0    0 -0.11509977643E+03 -0.76396621506E+02  0.15651156851E+02  0.16089302427E+03  0.80976565960E+02 0.  0.
         -6    2    1    2    0  502  0.16822903322E+03  0.21370118930E+03  0.63301790107E+03  0.70987569670E+03  0.17100478286E+03 0.  0.
        -24    2    5    5    0    0  0.19332917103E+02  0.42073202825E+02  0.14400665607E+03  0.17063520594E+03  0.78959106088E+02 0.  0.
          5    1    3    3  501    0 -0.53129256786E+02 -0.13730456779E+03 -0.80069132432E+02  0.16765565374E+03  0.47000000000E+01 0. -1.
        -11    1    4    4    0    0 -0.55072566495E+02 -0.76032396956E+02  0.31116081554E+02  0.98904618186E+02  0.00000000000E+00 0.  1.
         12    1    4    4    0    0 -0.60027209937E+02 -0.36422454939E+00 -0.15464924703E+02  0.61988406080E+02  0.00000000000E+00 0. -1.
         -5    1    5    5    0  502  0.14889611611E+03  0.17162798647E+03  0.48901124500E+03  0.53924049076E+03  0.47000000000E+01 0.  1.
         13    1    6    6    0    0  0.24555661440E+02  0.64113014209E+02  0.10288595201E+03  0.12368903840E+03  0.00000000000E+00 0. -1.
        -14    1    6    6    0    0 -0.52227443363E+01 -0.22039811384E+02  0.41120704060E+02  0.46946167539E+02  0.00000000000E+00 0.  1.
</event>
<event>
12    1  0.8219652E-002  0.2283234E+03  0.7818608E-02  0.1128041E+00
         21   -1    0    0  501  502  0.00000000000E+00  0.00000000000E+00  0.10313877342E+03  0.10313877342E+03  0.00000000000E+00 0.  1.
         21   -1    0    0  502  503 -0.00000000000E+00 -0.00000000000E+00 -0.12867905293E+04  0.12867905293E+04  0.00000000000E+00 0.  1.
         -6    2    1    2    0  503 -0.10455164538E+03  0.10750578535E+03 -0.11336751864E+04  0.11562003290E+04  0.17056151999E+03 0.  0.
        -24    2    3    3    0    0 -0.53266673629E+02  0.12271519629E+03 -0.60832189893E+03  0.62810976749E+03  0.81055470994E+02 0.  0.
          6    2    1    2  501    0  0.10455164538E+03 -0.10750578535E+03 -0.49976569497E+02  0.23372897374E+03  0.17217152851E+03 0.  0.
         24    2    5    5    0    0  0.89097398701E+02 -0.53758958853E+02  0.31104965026E+02  0.13511933760E+03  0.80382488333E+02 0.  0.
          5    1    5    5  501    0  0.15454246682E+02 -0.53746826497E+02 -0.81081534524E+02  0.98609636140E+02  0.47000000000E+01 0. -1.
        -13    1    6    6    0    0 -0.24046533139E+01  0.16147065020E+02  0.31824116644E+01  0.16632432484E+02  0.00000000000E+00 0.  1.
         14    1    6    6    0    0  0.91502052015E+02 -0.69906023873E+02  0.27922553362E+02  0.11848690511E+03  0.00000000000E+00 0. -1.
         -5    1    3    3    0  503 -0.51284971755E+02 -0.15209410940E+02 -0.52535328742E+03  0.52809056147E+03  0.47000000000E+01 0.  1.
         13    1    4    4    0    0 -0.69665995884E+01  0.14010469747E+02 -0.10786260625E+02  0.19004478173E+02  0.00000000000E+00 0. -1.
        -14    1    4    4    0    0 -0.46300074041E+02  0.10870472654E+03 -0.59753563830E+03  0.60910528932E+03  0.00000000000E+00 0.  1.
</event>
<event>
12    1  0.8219652E-002  0.2818714E+03  0.7818608E-02  0.1094707E+00
         21   -1    0    0  503  502  0.00000000000E+00  0.00000000000E+00  0.13491737792E+03  0.13491737792E+03  0.00000000000E+00 0.  1.
         21   -1    0    0  501  503 -0.00000000000E+00 -0.00000000000E+00 -0.59895310520E+03  0.59895310520E+03  0.00000000000E+00 0.  1.
          6    2    1    2  501    0  0.12746357029E+03 -0.18367807964E+03 -0.18326633201E+03  0.33621133253E+03  0.17165929333E+03 0.  0.
         24    2    3    3    0    0  0.14740610515E+03 -0.18346254951E+03 -0.19161540201E+03  0.31408559820E+03  0.80908799262E+02 0.  0.
         -6    2    1    2    0  502 -0.12746357029E+03  0.18367807964E+03 -0.28076939527E+03  0.39765915059E+03  0.17122134224E+03 0.  0.
        -24    2    5    5    0    0 -0.30308351543E+02  0.94398324621E+02 -0.21654294931E+03  0.25083565946E+03  0.78727627289E+02 0.  0.
          5    1    3    3  501    0 -0.19942534860E+02 -0.21553012930E+00  0.83490700065E+01  0.22125734335E+02  0.47000000000E+01 0. -1.
        -13    1    4    4    0    0  0.87002114734E+02 -0.12410977540E+03 -0.72706443008E+02  0.16810363224E+03  0.00000000000E+00 0.  1.
         14    1    4    4    0    0  0.60403990420E+02 -0.59352774113E+02 -0.11890895901E+03  0.14598196596E+03  0.00000000000E+00 0. -1.
         -5    1    5    5    0  502 -0.97155218752E+02  0.89279755017E+02 -0.64226445961E+02  0.14682349113E+03  0.47000000000E+01 0.  1.
         13    1    6    6    0    0 -0.47302206441E+02  0.27030079431E+02 -0.12101868318E+03  0.13271641046E+03  0.00000000000E+00 0. -1.
        -14    1    6    6    0    0  0.16993854899E+02  0.67368245190E+02 -0.95524266128E+02  0.11811924900E+03  0.00000000000E+00 0.  1.
</event>
<event>
12    1  0.8219652E-002  0.2061064E+03  0.7818608E-02  0.1145051E+00
         21   -1    0    0  503  502  0.00000000000E+00  0.00000000000E+00  0.19756051263E+03  0.19756051263E+03  0.00000000000E+00 0. -1.
         21   -1    0    0  501  503 -0.00000000000E+00 -0.00000000000E+00 -0.33252299065E+03  0.33252299065E+03  0.00000000000E+00 0.  1.
          6    2    1    2  501    0  0.70132991140E+02  0.88253062316E+02 -0.22608609233E+03  0.30473183880E+03  0.17040931012E+03 0.  0.
         24    2    3    3    0    0  0.28792522920E+02  0.80615442991E+02 -0.54612539048E+02  0.12811746504E+03  0.78126156966E+02 0.  0.
         -6    2    1    2    0  502 -0.70132991140E+02 -0.88253062316E+02  0.91123614318E+02  0.22535166448E+03  0.17254744317E+03 0.  0.
        -24    2    5    5    0    0 -0.51471340577E+02  0.33677389389E+01  0.86101763857E+02  0.13159699843E+03  0.85109433618E+02 0.  0.
          5    1    3    3  501    0  0.41340468220E+02  0.76376193252E+01 -0.17147355328E+03  0.17661437376E+03  0.47000000000E+01 0. -1.
        -13    1    4    4    0    0 -0.44682482800E+01  0.45549750623E+02 -0.64200682343E+02  0.78844610709E+02  0.00000000000E+00 0.  1.
         14    1    4    4    0    0  0.33260771200E+02  0.35065692368E+02  0.95881432957E+01  0.49272854330E+02  0.00000000000E+00 0. -1.
         -5    1    5    5    0  502 -0.18661650563E+02 -0.91620801255E+02  0.50218504618E+01  0.93754666051E+02  0.47000000000E+01 0.  1.
         11    1    6    6    0    0 -0.75021784529E+02 -0.12262797781E+01  0.70640471242E+02  0.10305264719E+03  0.00000000000E+00 0. -1.
        -12    1    6    6    0    0  0.23550443953E+02  0.45940187170E+01  0.15461292614E+02  0.28544351239E+02  0.00000000000E+00 0.  1.
</event>
<event>
12    1  0.8219652E-002  0.1957289E+03  0.7818608E-02  0.1153443E+00
         21   -1    0    0  501  502  0.00000000000E+00  0.00000000000E+00  0.76790721880E+03  0.76790721880E+03  0.00000000000E+00 0.  1.
         21   -1    0    0  502  503 -0.00000000000E+00 -0.00000000000E+00 -0.90774405248E+02  0.90774405248E+02  0.00000000000E+00 0.  1.
         -6    2    1    2    0  503  0.52933340114E+02 -0.76357494945E+02  0.50328123610E+02  0.20209579028E+03  0.17227124801E+03 0.  0.
        -24    2    3    3    0    0  0.14071386328E+02 -0.30141233450E+02  0.95884938357E+02  0.12630853773E+03  0.75189277380E+02 0.  0.
          6    2    1    2  501    0 -0.52933340114E+02  0.76357494945E+02  0.62680468994E+03  0.65658583377E+03  0.17201288395E+03 0.  0.
         24    2    5    5    0    0 -0.70504304769E+02  0.10249127415E+03  0.58890448873E+03  0.60708605128E+03  0.79181175458E+02 0.  0.
          5    1    5    5  501    0  0.17570964655E+02 -0.26133779205E+02  0.37900201211E+02  0.49499782488E+02  0.47000000000E+01 0. -1.
        -11    1    6    6    0    0 -0.49927586146E+02  0.16337661336E+02  0.31103829901E+03  0.31544334910E+03  0.00000000000E+00 0.  1.
         12    1    6    6    0    0 -0.20576718624E+02  0.86153612814E+02  0.27786618971E+03  0.29164270218E+03  0.00000000000E+00 0. -1.
         -5    1    3    3    0  503  0.38861953786E+02 -0.46216261495E+02 -0.45556814747E+02  0.75787252546E+02  0.47000000000E+01 0.  1.
         13    1    4    4    0    0 -0.42837896290E+01  0.11368128391E+02 -0.68841607813E+01  0.13963411702E+02  0.00000000000E+00 0. -1.
        -14    1    4    4    0    0  0.18355175957E+02 -0.41509361841E+02  0.10276909914E+03  0.11234512603E+03  0.00000000000E+00 0.  1.
</event>
<event>
12    1  0.8219652E-002  0.2067262E+03  0.7818608E-02  0.1144394E+00
         21   -1    0    0  501  502  0.00000000000E+00  0.00000000000E+00  0.27511278878E+03  0.27511278878E+03  0.00000000000E+00 0.  1.
         21   -1    0    0  502  503 -0.00000000000E+00 -0.00000000000E+00 -0.25909552573E+03  0.25909552573E+03  0.00000000000E+00 0. -1.
         -6    2    1    2    0  503  0.10780101147E+03  0.34097202528E+02 -0.16163688372E+03  0.26241612327E+03  0.17306664116E+03 0.  0.
        -24    2    3    3    0    0  0.67283653914E+02  0.93681847007E+02 -0.11226476469E+03  0.17494222855E+03  0.68542157801E+02 0.  0.
          6    2    1    2  501    0 -0.10780101147E+03 -0.34097202528E+02  0.17765414676E+03  0.27179219125E+03  0.17183224979E+03 0.  0.
         24    2    5    5    0    0  0.41677680948E+01 -0.11403067297E+02  0.11712622167E+03  0.14241773053E+03  0.80105292776E+02 0.  0.
          5    1    5    5  501    0 -0.11196877956E+03 -0.22694135231E+02  0.60527925095E+02  0.12937446072E+03  0.47000000000E+01 0. -1.
        -11    1    6    6    0    0  0.17751733923E+02 -0.38613172322E+02  0.35719324882E+02  0.55515505078E+02  0.00000000000E+00 0.  1.
         12    1    6    6    0    0 -0.13583965828E+02  0.27210105025E+02  0.81406896788E+02  0.86902225448E+02  0.00000000000E+00 0. -1.
         -5    1    3    3    0  503  0.40517357555E+02 -0.59584644479E+02 -0.49372119023E+02  0.87473894721E+02  0.47000000000E+01 0.  1.
         11    1    4    4    0    0  0.15634542819E+02  0.77272108699E+02 -0.55179835260E+02  0.96230098884E+02  0.00000000000E+00 0. -1.
        -12    1    4    4    0    0  0.51649111095E+02  0.16409738308E+02 -0.57084929433E+02  0.78712129666E+02  0.00000000000E+00 0.  1.
</event>
<event>
12    1  0.8219652E-002  0.2092635E+03  0.7818608E-02  0.1142325E+00
         21   -1    0    0  501  502  0.00000000000E+00  0.00000000000E+00  0.63271263117E+02  0.63271263117E+02  0.00000000000E+00 0.  1.
         21   -1    0    0  502  503 -0.00000000000E+00 -0.00000000000E+00 -0.80404032061E+03  0.80404032061E+03  0.00000000000E+00 0.  1.
         -6    2    1    2    0  503  0.10812289013E+03  0.47876942779E+02 -0.53359175710E+03  0.57283976934E+03  0.17158810294E+03 0.  0.
        -24    2    3    3    0    0  0.73832342231E+02  0.83120075557E+02 -0.48358439334E+03  0.50254932537E+03  0.79635401849E+02 0.  0.
          6    2    1    2  501    0 -0.10812289013E+03 -0.47876942779E+02 -0.20717730040E+03  0.29447181439E+03  0.17265125152E+03 0.  0.
         24    2    5    5    0    0 -0.13088826026E+02 -0.48621564962E+02 -0.16669947766E+03  0.19106692120E+03  0.78628738900E+02 0.  0.
          5    1    5    5  501    0 -0.95034064101E+02  0.74462218271E+00 -0.40477822740E+02  0.10340489319E+03  0.47000000000E+01 0. -1.
        -11    1    6    6    0    0 -0.25759192265E+02 -0.32574894706E+02 -0.16545053064E+03  0.17058293537E+03  0.00000000000E+00 0.  1.
         12    1    6    6    0    0  0.12670366240E+02 -0.16046670256E+02 -0.12489470191E+01  0.20483985833E+02  0.00000000000E+00 0. -1.
         -5    1    3    3    0  503  0.34290547896E+02 -0.35243132778E+02 -0.50007363759E+02  0.70290443968E+02  0.47000000000E+01 0.  1.
         13    1    4    4    0    0 -0.64020355507E+01  0.34121891216E+02 -0.21953043565E+03  0.22225863694E+03  0.00000000000E+00 0. -1.
        -14    1    4    4    0    0  0.80234377781E+02  0.48998184341E+02 -0.26405395769E+03  0.28029068843E+03  0.00000000000E+00 0.  1.
</event>
<event>
12    1  0.8219652E-002  0.1730108E+03  0.7818608E-02  0.1174903E+00
         21   -1    0    0  503  502  0.00000000000E+00  0.00000000000E+00  0.36375116967E+03  0.36375116967E+03  0.00000000000E+00 0.  1.
         21   -1    0    0  501  503 -0.00000000000E+00 -0.00000000000E+00 -0.99892344509E+02  0.99892344509E+02  0.00000000000E+00 0.  1.
          6    2    1    2  501    0  0.15658889320E+02  0.13791217586E+02  0.33995288625E+02  0.17631910017E+03  0.17174791684E+03 0.  0.
         24    2    3    3    0    0 -0.32482241597E+01 -0.57290553055E+02  0.24073973967E+02  0.10195096491E+03  0.80756947646E+02 0.  0.
         -6    2    1    2    0  502 -0.15658889320E+02 -0.13791217586E+02  0.22986353653E+03  0.28732441401E+03  0.17112181323E+03 0.  0.
        -24    2    5    5    0    0 -0.19053756150E+02 -0.10085877345E+02  0.25143436613E+03  0.26468274100E+03  0.79830710644E+02 0.  0.
          5    1    3    3  501    0  0.18907113480E+02  0.71081770641E+02  0.99213146578E+01  0.74368135261E+02  0.47000000000E+01 0. -1.
        -13    1    4    4    0    0  0.20344261396E+02 -0.35274824142E+02 -0.21547517618E+02  0.46070573097E+02  0.00000000000E+00 0.  1.
         14    1    4    4    0    0 -0.23592485555E+02 -0.22015728913E+02  0.45621491585E+02  0.55880391809E+02  0.00000000000E+00 0. -1.
         -5    1    5    5    0  502  0.33948668295E+01 -0.37053402412E+01 -0.21570829603E+02  0.22641673014E+02  0.47000000000E+01 0.  1.
         13    1    6    6    0    0  0.84454054337E+01 -0.28345527921E+02  0.35348902991E+02  0.46090549668E+02  0.00000000000E+00 0. -1.
        -14    1    6    6    0    0 -0.27499161583E+02  0.18259650576E+02  0.21608546314E+03  0.21859219133E+03  0.00000000000E+00 0.  1.
</event>
<event>
12    1  0.8219652E-002  0.1935438E+03  0.7818608E-02  0.1155309E+00
         21   -1    0    0  503  502  0.00000000000E+00  0.00000000000E+00  0.76540961088E+02  0.76540961088E+02  0.00000000000E+00 0. -1.
         21   -1    0    0  501  503 -0.00000000000E+00 -0.00000000000E+00 -0.50747157138E+03  0.50747157138E+03  0.00000000000E+00 0. -1.
          6    2    1    2  501    0  0.65504517557E+02 -0.60754212573E+02 -0.27067111208E+03  0.33274921016E+03  0.17168945740E+03 0.  0.
         24    2    3    3    0    0  0.67633034309E+02 -0.11608263164E+02 -0.71155141419E+02  0.12720464692E+03  0.80056161194E+02 0.  0.
         -6    2    1    2    0  502 -0.65504517557E+02  0.60754212573E+02 -0.16025949821E+03  0.25126332231E+03  0.17166314166E+03 0.  0.
        -24    2    5    5    0    0 -0.61224490560E+00  0.47715190141E+02 -0.18570549594E+02  0.94806071546E+02  0.79788543511E+02 0.  0.
          5    1    3    3  501    0 -0.21285167512E+01 -0.49145949409E+02 -0.19951597066E+03  0.20554456324E+03  0.47000000000E+01 0. -1.
        -11    1    4    4    0    0  0.40176086961E+02 -0.45862513146E+02 -0.47825073936E+02  0.77490165650E+02  0.00000000000E+00 0.  1.
         12    1    4    4    0    0  0.27456947348E+02  0.34254249982E+02 -0.23330067483E+02  0.49714481274E+02  0.00000000000E+00 0. -1.
         -5    1    5    5    0  502 -0.64892272652E+02  0.13039022432E+02 -0.14168894862E+03  0.15645725077E+03  0.47000000000E+01 0.  1.
         11    1    6    6    0    0 -0.18863853434E+02  0.46503348100E+02 -0.41749007714E+02  0.65279292245E+02  0.00000000000E+00 0. -1.
        -12    1    6    6    0    0  0.18251608529E+02  0.12118420412E+01  0.23178458121E+02  0.29526779301E+02  0.00000000000E+00 0.  1.
</event>
<event>
12    1  0.8219652E-002  0.2751240E+03  0.7818608E-02  0.1098787E+00
         21   -1    0    0  503  502  0.00000000000E+00  0.00000000000E+00  0.23841030314E+03  0.23841030314E+03  0.00000000000E+00 0.  1.
         21   -1    0    0  501  503 -0.00000000000E+00 -0.00000000000E+00 -0.36220940850E+03  0.36220940850E+03  0.00000000000E+00 0. -1.
          6    2    1    2  501    0  0.19448307435E+03 -0.80953617651E+02  0.47746047450E+02  0.27639608872E+03  0.17244697271E+03 0.  0.
         24    2    3    3    0    0  0.21150396366E+03 -0.66672674937E+02  0.66130908911E+02  0.24717710297E+03  0.86856495951E+02 0.  0.
         -6    2    1    2    0  502 -0.19448307435E+03  0.80953617651E+02 -0.17154515281E+03  0.32422362291E+03  0.17696345324E+03 0.  0.
        -24    2    5    5    0    0 -0.15999298002E+03  0.83378582357E+02 -0.58849911448E+02  0.20625008992E+03  0.80783945577E+02 0.  0.
          5    1    3    3  501    0 -0.17020889315E+02 -0.14280942713E+02 -0.18384861460E+02  0.29218985759E+02  0.47000000000E+01 0. -1.
        -13    1    4    4    0    0  0.27134095951E+02  0.15584164199E+02 -0.76808316234E+01  0.32219877580E+02  0.00000000000E+00 0.  1.
         14    1    4    4    0    0  0.18436986771E+03 -0.82256839136E+02  0.73811740534E+02  0.21495722539E+03  0.00000000000E+00 0. -1.
         -5    1    5    5    0  502 -0.34490094325E+02 -0.24249647064E+01 -0.11269524137E+03  0.11797353299E+03  0.47000000000E+01 0.  1.
         13    1    6    6    0    0 -0.69481245343E+02  0.40999240982E+02  0.14903475501E+02  0.82040811779E+02  0.00000000000E+00 0. -1.
        -14    1    6    6    0    0 -0.90511734680E+02  0.42379341376E+02 -0.73753386949E+02  0.12420927814E+03  0.00000000000E+00 0.  1.
</event>
<event>
12    1  0.8219652E-002  0.1997398E+03  0.7818608E-02  0.1150254E+00
         21   -1    0    0  503  502  0.00000000000E+00  0.00000000000E+00  0.18458962139E+03  0.18458962139E+03  0.00000000000E+00 0. -1.
         21   -1    0    0  501  503 -0.00000000000E+00 -0.00000000000E+00 -0.48989446143E+03  0.48989446143E+03  0.00000000000E+00 0. -1.
          6    2    1    2  501    0 -0.69544696116E+02  0.71331570466E+02 -0.40521188515E+03  0.45115162521E+03  0.17151227176E+03 0.  0.
         24    2    3    3    0    0 -0.52105754508E+02  0.28563714702E+01 -0.10127132476E+03  0.13907002721E+03  0.79758527689E+02 0.  0.
         -6    2    1    2    0  502  0.69544696116E+02 -0.71331570466E+02  0.99907045106E+02  0.22333245760E+03  0.17312224367E+03 0.  0.
        -24    2    5    5    0    0  0.84818235501E+02 -0.37433978902E+02  0.12714691006E+03  0.17700289941E+03  0.81044764245E+02 0.  0.
          5    1    3    3  501    0 -0.17438941609E+02  0.68475198995E+02 -0.30394056039E+03  0.31208159800E+03  0.47000000000E+01 0. -1.
        -13    1    4    4    0    0 -0.10338827548E+02  0.31016486986E+02 -0.89450417616E+01  0.33895834436E+02  0.00000000000E+00 0.  1.
         14    1    4    4    0    0 -0.41766926960E+02 -0.28160115516E+02 -0.92326283001E+02  0.10517419278E+03  0.00000000000E+00 0. -1.
         -5    1    5    5    0  502 -0.15273539385E+02 -0.33897591564E+02 -0.27239864956E+02  0.46329558189E+02  0.47000000000E+01 0.  1.
         13    1    6    6    0    0  0.71754424355E+02 -0.59889827562E+02  0.11537212714E+03  0.14847968407E+03  0.00000000000E+00 0. -1.
        -14    1    6    6    0    0  0.13063811147E+02  0.22455848660E+02  0.11774782923E+02  0.28523215345E+02  0.00000000000E+00 0.  1.
</event>
<event>
12    1  0.8219652E-002  0.1820664E+03  0.7818608E-02  0.1166292E+00
         21   -1    0    0  503  502  0.00000000000E+00  0.00000000000E+00  0.81494537484E+02  0.81494537484E+02  0.00000000000E+00 0.  1.
         21   -1    0    0  501  503 -0.00000000000E+00 -0.00000000000E+00 -0.40364239717E+03  0.40364239717E+03  0.00000000000E+00 0.  1.
          6    2    1    2  501    0  0.76709674383E+01 -0.52327485037E+02 -0.17394064637E+03  0.25037420181E+03  0.17214785227E+03 0.  0.
         24    2    3    3    0    0  0.17633170062E+02  0.15367772249E+02 -0.15952082414E+03  0.18028914910E+03  0.80685728850E+02 0.  0.
         -6    2    1    2    0  502 -0.76709674383E+01  0.52327485037E+02 -0.14820721331E+03  0.23476273284E+03  0.17421582368E+03 0.  0.
        -24    2    5    5    0    0  0.44766897465E+02  0.77112006873E+02 -0.12113463420E+03  0.17058316648E+03  0.80465398591E+02 0.  0.
          5    1    3    3  501    0 -0.99622026234E+01 -0.67695257285E+02 -0.14419822231E+02  0.70085052709E+02  0.47000000000E+01 0. -1.
        -13    1    4    4    0    0  0.41819694684E+02  0.28365087025E+02 -0.67882282353E+02  0.84625464743E+02  0.00000000000E+00 0.  1.
         14    1    4    4    0    0 -0.24186524623E+02 -0.12997314777E+02 -0.91638541787E+02  0.95663684361E+02  0.00000000000E+00 0. -1.
         -5    1    5    5    0  502 -0.52437864904E+02 -0.24784521836E+02 -0.27072579112E+02  0.64179566359E+02  0.47000000000E+01 0.  1.
         11    1    6    6    0    0  0.36490627385E+02 -0.22727203733E+01 -0.59102301877E+02  0.69496857713E+02  0.00000000000E+00 0. -1.
        -12    1    6    6    0    0  0.82762700803E+01  0.79384727246E+02 -0.62032332324E+02  0.10108630877E+03  0.00000000000E+00 0.  1.
</event>
<event>
12    1  0.8219652E-002  0.1941530E+03  0.7818608E-02  0.1159096E+00
         21   -1    0    0  503  502  0.00000000000E+00  0.00000000000E+00  0.10268611636E+04  0.10268611636E+04  0.00000000000E+00 0. -1.
         21   -1    0    0  501  503 -0.00000000000E+00 -0.00000000000E+00 -0.38340315775E+02  0.38340315775E+02  0.00000000000E+00 0. -1.
          6    2    1    2  501    0 -0.40633552114E+00  0.34794712619E+02  0.32226542967E+03  0.37623183280E+03  0.19100928698E+03 0.  0.
         24    2    3    3    0    0 -0.26720460684E+02 -0.25106290121E+02  0.29461649468E+03  0.30504814844E+03  0.70079848073E+02 0.  0.
         -6    2    1    2    0  502  0.40633552114E+00 -0.34794712619E+02  0.66625541815E+03  0.68896964658E+03  0.17196527137E+03 0.  0.
        -24    2    5    5    0    0  0.69501838320E+02 -0.19990172894E+02  0.41561674254E+03  0.42851773429E+03  0.75233366123E+02 0.  0.
          5    1    3    3  501    0  0.26314125162E+02  0.59901002740E+02  0.27648934994E+02  0.71183684357E+02  0.47000000000E+01 0. -1.
        -11    1    4    4    0    0  0.39422052221E+01 -0.35324651838E+02  0.23072640511E+03  0.23344816560E+03  0.00000000000E+00 0.  1.
         12    1    4    4    0    0 -0.30662665906E+02  0.10218361717E+02  0.63890089573E+02  0.71599982837E+02  0.00000000000E+00 0. -1.
         -5    1    5    5    0  502 -0.69095502799E+02 -0.14804539725E+02  0.25063867561E+03  0.26045191228E+03  0.47000000000E+01 0.  1.
         11    1    6    6    0    0  0.25288566028E+02 -0.54125315417E+01  0.33042530239E+03  0.33143579699E+03  0.00000000000E+00 0. -1.
        -12    1    6    6    0    0  0.44213272292E+02 -0.14577641352E+02  0.85191440153E+02  0.97081937298E+02  0.00000000000E+00 0.  1.
</event>
<event>
12    1  0.8219652E-002  0.2059806E+03  0.7818608E-02  0.1145001E+00
         21   -1    0    0  501  502  0.00000000000E+00  0.00000000000E+00  0.20359756083E+03  0.20359756083E+03  0.00000000000E+00 0. -1.
         21   -1    0    0  502  503 -0.00000000000E+00 -0.00000000000E+00 -0.20735501833E+03  0.20735501833E+03  0.00000000000E+00 0.  1.
         -6    2    1    2    0  503  0.97995782279E+02  0.53636142887E+02 -0.36594815878E+01  0.20601306275E+03  0.17305484983E+03 0.  0.
        -24    2    3    3    0    0  0.50066929010E+02 -0.38238605084E+02 -0.88276886027E+01  0.10215284585E+03  0.79927389113E+02 0.  0.
          6    2    1    2  501    0 -0.97995782279E+02 -0.53636142887E+02 -0.97975911288E-01  0.20493951641E+03  0.17181439584E+03 0.  0.
         24    2    5    5    0    0 -0.46847318322E+02 -0.97307084730E+02  0.16715969450E+02  0.13545487577E+03  0.80032866762E+02 0.  0.
          5    1    5    5  501    0 -0.51148463957E+02  0.43670941843E+02 -0.16813945361E+02  0.69484640642E+02  0.47000000000E+01 0. -1.
        -11    1    6    6    0    0 -0.59093905464E+02 -0.71106874733E+02 -0.13720107867E+02  0.93469346083E+02  0.00000000000E+00 0.  1.
         12    1    6    6    0    0  0.12246587142E+02 -0.26200209997E+02  0.30436077317E+02  0.41985529686E+02  0.00000000000E+00 0. -1.
         -5    1    3    3    0  503  0.47928853268E+02  0.91874747972E+02  0.51682070148E+01  0.10386021690E+03  0.47000000000E+01 0.  1.
         13    1    4    4    0    0  0.63691402381E+02 -0.39660914858E+01  0.15693198884E+01  0.63834061314E+02  0.00000000000E+00 0. -1.
        -14    1    4    4    0    0 -0.13624473370E+02 -0.34272513598E+02 -0.10397008491E+02  0.38318784539E+02  0.00000000000E+00 0.  1.
</event>
<event>
12    1  0.8219652E-002  0.2378869E+03  0.7818608E-02  0.1121538E+00
         21   -1    0    0  503  502  0.00000000000E+00  0.00000000000E+00  0.47570022300E+03  0.47570022300E+03  0.00000000000E+00 0.  1.
         21   -1    0    0  501  503 -0.00000000000E+00 -0.00000000000E+00 -0.19998961163E+03  0.19998961163E+03  0.00000000000E+00 0. -1.
          6    2    1    2  501    0  0.51908610928E+02 -0.15571750660E+03 -0.78807013765E+02  0.24875550270E+03  0.16948837410E+03 0.  0.
         24    2    3    3    0    0  0.93193021674E+02 -0.91987684003E+02 -0.79238544703E+02  0.17267548510E+03  0.79946250017E+02 0.  0.
         -6    2    1    2    0  502 -0.51908610928E+02  0.15571750660E+03  0.35451762514E+03  0.42693433192E+03  0.17218516629E+03 0.  0.
        -24    2    5    5    0    0 -0.84032051908E+02  0.50337213061E+02  0.19277545667E+03  0.23118055600E+03  0.81773174161E+02 0.  0.
          5    1    3    3  501    0 -0.41284410746E+02 -0.63729822598E+02  0.43153093815E+00  0.76080017599E+02  0.47000000000E+01 0. -1.
        -13    1    4    4    0    0  0.22996965983E+01 -0.24317676984E+02 -0.49998969379E+02  0.55646517926E+02  0.00000000000E+00 0.  1.
         14    1    4    4    0    0  0.90893325076E+02 -0.67670007019E+02 -0.29239575324E+02  0.11702896718E+03  0.00000000000E+00 0. -1.
         -5    1    5    5    0  502  0.32123440980E+02  0.10538029354E+03  0.16174216846E+03  0.19575377592E+03  0.47000000000E+01 0.  1.
         13    1    6    6    0    0 -0.74416402837E+01  0.14328101670E+02 -0.42939085808E+01  0.16706590271E+02  0.00000000000E+00 0. -1.
        -14    1    6    6    0    0 -0.76590411624E+02  0.36009111391E+02  0.19706936525E+03  0.21447396573E+03  0.00000000000E+00 0.  1.
</event>
<event>
12    1  0.8219652E-002  0.2278660E+03  0.7818608E-02  0.1128286E+00
         21   -1    0    0  501  502  0.00000000000E+00  0.00000000000E+00  0.10523926553E+04  0.10523926553E+04  0.00000000000E+00 0.  1.
         21   -1    0    0  502  503 -0.00000000000E+00 -0.00000000000E+00 -0.49317434220E+02  0.49317434220E+02  0.00000000000E+00 0. -1.
         -6    2    1    2    0  503  0.91186294491E+01 -0.14843497884E+03  0.47264203677E+03  0.52470315496E+03  0.17264649881E+03 0.  0.
        -24    2    3    3    0    0  0.11263254908E+02  0.16253708358E+02  0.80831281546E+02  0.99656426915E+02  0.54833050276E+02 0.  0.
          6    2    1    2  501    0 -0.91186294491E+01  0.14843497884E+03  0.53043318431E+03  0.57700693456E+03  0.17164366335E+03 0.  0.
         24    2    5    5    0    0  0.16997143558E+02  0.13544062611E+03  0.52359712229E+03  0.54668023763E+03  0.77924769205E+02 0.  0.
          5    1    5    5  501    0 -0.26115773007E+02  0.12994352738E+02  0.68360620195E+01  0.30326696932E+02  0.47000000000E+01 0. -1.
        -13    1    6    6    0    0  0.29221958135E+02  0.15235252137E+02  0.16548237171E+03  0.16873189115E+03  0.00000000000E+00 0.  1.
         14    1    6    6    0    0 -0.12224814577E+02  0.12020537397E+03  0.35811475058E+03  0.37794834648E+03  0.00000000000E+00 0. -1.
         -5    1    3    3    0  503 -0.21446254590E+01 -0.16468868720E+03  0.39181075522E+03  0.42504672804E+03  0.47000000000E+01 0.  1.
         11    1    4    4    0    0 -0.16229259099E+02  0.46520560946E+01  0.41669985356E+01  0.17389489746E+02  0.00000000000E+00 0. -1.
        -12    1    4    4    0    0  0.27492514008E+02  0.11601652263E+02  0.76664283010E+02  0.82266937169E+02  0.00000000000E+00 0.  1.
</event>
<event>
12    1  0.8219652E-002  0.2162247E+03  0.7818608E-02  0.1136736E+00
         21   -1    0    0  503  502  0.00000000000E+00  0.00000000000E+00  0.10063441026E+04  0.10063441026E+04  0.00000000000E+00 0. -1.
         21   -1    0    0  501  503 -0.00000000000E+00 -0.00000000000E+00 -0.52762970179E+02  0.52762970179E+02  0.00000000000E+00 0. -1.
          6    2    1    2  501    0  0.96178969542E+02  0.88620318073E+02  0.29359510013E+03  0.36460387991E+03  0.17214514651E+03 0.  0.
         24    2    3    3    0    0 -0.46350945877E+01  0.60533888223E+02  0.20446853093E+03  0.22706131048E+03  0.77869267691E+02 0.  0.
         -6    2    1    2    0  502 -0.96178969542E+02 -0.88620318073E+02  0.65998603230E+03  0.69450319288E+03  0.17218933513E+03 0.  0.
        -24    2    5    5    0    0 -0.11725168588E+03 -0.22542093866E+02  0.50111716182E+03  0.52109096986E+03  0.78493854239E+02 0.  0.
          5    1    3    3  501    0  0.10081406413E+03  0.28086429850E+02  0.89126569205E+02  0.13754256943E+03  0.47000000000E+01 0. -1.
        -11    1    4    4    0    0  0.32603551041E+02  0.67116086777E+01  0.69810769059E+02  0.77340679517E+02  0.00000000000E+00 0.  1.
         12    1    4    4    0    0 -0.37238645628E+02  0.53822279545E+02  0.13465776187E+03  0.14972063096E+03  0.00000000000E+00 0. -1.
         -5    1    5    5    0  502  0.21072716336E+02 -0.66078224207E+02  0.15886887047E+03  0.17341222302E+03  0.47000000000E+01 0.  1.
         11    1    6    6    0    0 -0.74238508976E+02 -0.46412934709E+02  0.24212895558E+03  0.25747222734E+03  0.00000000000E+00 0. -1.
        -12    1    6    6    0    0 -0.43013176902E+02  0.23870840843E+02  0.25898820625E+03  0.26361874251E+03  0.00000000000E+00 0.  1.
</event>
<event>
12    1  0.8219652E-002  0.1748297E+03  0.7818608E-02  0.1172926E+00
         21   -1    0    0  501  502  0.00000000000E+00  0.00000000000E+00  0.27348064547E+03  0.27348064547E+03  0.00000000000E+00 0.  1.
         21   -1    0    0  502  503 -0.00000000000E+00 -0.00000000000E+00 -0.19148887001E+03  0.19148887001E+03  0.00000000000E+00 0.  1.
         -6    2    1    2    0  503  0.34809533250E+02  0.21201039989E+01 -0.10906165000E+03  0.20605790114E+03  0.17131613081E+03 0.  0.
        -24    2    3    3    0    0  0.28034951342E+02 -0.24694203596E+02  0.64535635926E+01  0.87185042077E+02  0.78510005037E+02 0.  0.
          6    2    1    2  501    0 -0.34809533250E+02 -0.21201039989E+01  0.19105342546E+03  0.25891161435E+03  0.17122387163E+03 0.  0.
         24    2    5    5    0    0 -0.69600254275E+02  0.37945913708E+02  0.16228834749E+03  0.19837072110E+03  0.82032600202E+02 0.  0.
          5    1    5    5  501    0  0.34790721026E+02 -0.40066017707E+02  0.28765077963E+02  0.60540893243E+02  0.47000000000E+01 0. -1.
        -13    1    6    6    0    0 -0.35683603619E+02 -0.17644042948E+02  0.10253278193E+03  0.10998910486E+03  0.00000000000E+00 0.  1.
         14    1    6    6    0    0 -0.33916650657E+02  0.55589956657E+02  0.59755565566E+02  0.88381616238E+02  0.00000000000E+00 0. -1.
         -5    1    3    3    0  503  0.67745819076E+01  0.26814307595E+02 -0.11551521359E+03  0.11887285907E+03  0.47000000000E+01 0.  1.
         11    1    4    4    0    0 -0.23036263396E+02 -0.20561421259E+02 -0.11415434022E+02  0.32920413262E+02  0.00000000000E+00 0. -1.
        -12    1    4    4    0    0  0.51071214738E+02 -0.41327823370E+01  0.17868997615E+02  0.54264628815E+02  0.00000000000E+00 0.  1.
</event>
<event>
12    1  0.8219652E-002  0.2014301E+03  0.7818608E-02  0.1148672E+00
         21   -1    0    0  503  502  0.00000000000E+00  0.00000000000E+00  0.87265188530E+03  0.87265188530E+03  0.00000000000E+00 0.  1.
         21   -1    0    0  501  503 -0.00000000000E+00 -0.00000000000E+00 -0.60817001713E+02  0.60817001713E+02  0.00000000000E+00 0.  1.
          6    2    1    2  501    0 -0.86538089776E+02 -0.55976393399E+02  0.17875112496E+03  0.26930661504E+03  0.17306614524E+03 0.  0.
         24    2    3    3    0    0 -0.70780113349E+02 -0.10418262194E+03  0.12500786388E+03  0.19526215270E+03  0.81464710682E+02 0.  0.
         -6    2    1    2    0  502  0.86538089776E+02  0.55976393399E+02  0.63308375863E+03  0.66416227198E+03  0.17232028458E+03 0.  0.
        -24    2    5    5    0    0  0.56088289393E+02  0.67253085998E+01  0.57102364061E+03  0.57915399035E+03  0.78487071649E+02 0.  0.
          5    1    3    3  501    0 -0.15757976427E+02  0.48206228538E+02  0.53743261081E+02  0.74044462335E+02  0.47000000000E+01 0. -1.
        -11    1    4    4    0    0 -0.66809249464E+02 -0.28832460135E+02  0.76394865384E+02  0.10550337449E+03  0.00000000000E+00 0.  1.
         12    1    4    4    0    0 -0.39708638854E+01 -0.75350161802E+02  0.48612998495E+02  0.89758778213E+02  0.00000000000E+00 0. -1.
         -5    1    5    5    0  502  0.30449800383E+02  0.49251084799E+02  0.62060118017E+02  0.85008281629E+02  0.47000000000E+01 0.  1.
         13    1    6    6    0    0  0.49743639082E+02 -0.23830322168E+02  0.22245185755E+03  0.22918800756E+03  0.00000000000E+00 0. -1.
        -14    1    6    6    0    0  0.63446503115E+01  0.30555630768E+02  0.34857178306E+03  0.34996598278E+03  0.00000000000E+00 0.  1.
</event>
<event>
12    1  0.8219652E-002  0.2003112E+03  0.7818608E-02  0.1149680E+00
         21   -1    0    0  503  502  0.00000000000E+00  0.00000000000E+00  0.65751483203E+02  0.65751483203E+02  0.00000000000E+00 0. -1.
         21   -1    0    0  501  503 -0.00000000000E+00 -0.00000000000E+00 -0.78305480537E+03  0.78305480537E+03  0.00000000000E+00 0. -1.
          6    2    1    2  501    0  0.94108701461E+02 -0.45105468824E+02 -0.55903782626E+03  0.59351711873E+03  0.16984795562E+03 0.  0.
         24    2    3    3    0    0  0.11562771032E+03 -0.58170688704E+01 -0.49888699429E+03  0.51837153536E+03  0.80107489758E+02 0.  0.
         -6    2    1    2    0  502 -0.94108701461E+02  0.45105468824E+02 -0.15826549591E+03  0.25528916985E+03  0.17097848413E+03 0.  0.
        -24    2    5    5    0    0 -0.73523713976E+02  0.18266464397E+02 -0.19231093680E+02  0.11212238294E+03  0.80387769930E+02 0.  0.
          5    1    3    3  501    0 -0.21519008862E+02 -0.39288399954E+02 -0.60150831969E+02  0.75145583369E+02  0.47000000000E+01 0. -1.
        -13    1    4    4    0    0  0.35670530434E+01 -0.17682115283E+02 -0.16496137525E+03  0.16594467871E+03  0.00000000000E+00 0.  1.
         14    1    4    4    0    0  0.11206065728E+03  0.11865046413E+02 -0.33392561904E+03  0.35242685665E+03  0.00000000000E+00 0. -1.
         -5    1    5    5    0  502 -0.20584987485E+02  0.26839004428E+02 -0.13903440223E+03  0.14316678690E+03  0.47000000000E+01 0.  1.
         13    1    6    6    0    0 -0.26315438907E+02 -0.31261157201E+02  0.65803188600E+00  0.40868022712E+02  0.00000000000E+00 0. -1.
        -14    1    6    6    0    0 -0.47208275069E+02  0.49527621598E+02 -0.19889125566E+02  0.71254360231E+02  0.00000000000E+00 0.  1.
</event>
<event>
12    1  0.8219652E-002  0.1740256E+03  0.7818608E-02  0.1173805E+00
         21   -1    0    0  503  502  0.00000000000E+00  0.00000000000E+00  0.79260161288E+02  0.79260161288E+02  0.00000000000E+00 0.  1.
         21   -1    0    0  501  503 -0.00000000000E+00 -0.00000000000E+00 -0.57781755101E+03  0.57781755101E+03  0.00000000000E+00 0.  1.
          6    2    1    2  501    0  0.24787002164E+02  0.98790955613E+01 -0.44070487265E+03  0.47368787855E+03  0.17160253349E+03 0.  0.
         24    2    3    3    0    0  0.16913643668E+02  0.68646997017E+02 -0.21647624432E+03  0.24170463826E+03  0.80998063287E+02 0.  0.
         -6    2    1    2    0  502 -0.24787002164E+02 -0.98790955613E+01 -0.57852517075E+02  0.18338983375E+03  0.17196780334E+03 0.  0.
        -24    2    5    5    0    0 -0.40451667906E+02  0.17935564300E+02 -0.96317009551E+02  0.13318381581E+03  0.80640812015E+02 0.  0.
          5    1    3    3  501    0  0.78733584969E+01 -0.58767901456E+02 -0.22422862832E+03  0.23198324029E+03  0.47000000000E+01 0. -1.
        -13    1    4    4    0    0  0.13330907953E+02  0.58494095628E+02 -0.22174544374E+03  0.22971790124E+03  0.00000000000E+00 0.  1.
         14    1    4    4    0    0  0.35827357140E+01  0.10152901389E+02  0.52691994165E+01  0.11986737016E+02  0.00000000000E+00 0. -1.
         -5    1    5    5    0  502  0.15664665741E+02 -0.27814659861E+02  0.38464492476E+02  0.50206017940E+02  0.47000000000E+01 0.  1.
         13    1    6    6    0    0  0.73583308071E+01  0.33197962939E+02 -0.66809377472E+02  0.74964943099E+02  0.00000000000E+00 0. -1.
        -14    1    6    6    0    0 -0.47809998713E+02 -0.15262398639E+02 -0.29507632079E+02  0.58218872714E+02  0.00000000000E+00 0.  1.
</event>
<event>
12    1  0.8219652E-002  0.2127435E+03  0.7818608E-02  0.1141113E+00
         21   -1    0    0  501  502  0.00000000000E+00  0.00000000000E+00  0.29624399607E+03  0.29624399607E+03  0.00000000000E+00 0. -1.
         21   -1    0    0  502  503 -0.00000000000E+00 -0.00000000000E+00 -0.15556281554E+03  0.15556281554E+03  0.00000000000E+00 0. -1.
         -6    2    1    2    0  503 -0.20863310004E+02  0.10803425265E+03  0.12288805263E+03  0.23832050709E+03  0.17201311918E+03 0.  0.
        -24    2    3    3    0    0 -0.15674010099E+02  0.42467956496E+02  0.14078118903E+03  0.16999684827E+03  0.83847381082E+02 0.  0.
          6    2    1    2  501    0  0.20863310004E+02 -0.10803425265E+03  0.17793127895E+02  0.21348630451E+03  0.18208000814E+03 0.  0.
         24    2    5    5    0    0  0.56222862348E+02 -0.99118318113E+02  0.58315230648E+02  0.15876955532E+03  0.93923662278E+02 0.  0.
          5    1    5    5  501    0 -0.35359552344E+02 -0.89159345385E+01 -0.40522102752E+02  0.54716749192E+02  0.47000000000E+01 0. -1.
        -11    1    6    6    0    0 -0.29532976843E+01  0.85652250018E+01  0.31804753313E+02  0.33070037494E+02  0.00000000000E+00 0.  1.
         12    1    6    6    0    0  0.59176160033E+02 -0.10768354311E+03  0.26510477335E+02  0.12569951783E+03  0.00000000000E+00 0. -1.
         -5    1    3    3    0  503 -0.51892999054E+01  0.65566296156E+02 -0.17893136394E+02  0.68323658824E+02  0.47000000000E+01 0.  1.
         13    1    4    4    0    0 -0.24561607159E+02  0.56755120045E+02  0.55572516444E+02  0.83142773477E+02  0.00000000000E+00 0. -1.
        -14    1    4    4    0    0  0.88875970594E+01 -0.14287163549E+02  0.85208672585E+02  0.86854074789E+02  0.00000000000E+00 0.  1.
</event>
<event>
12    1  0.8219652E-002  0.1807138E+03  0.7818608E-02  0.1167134E+00
         21   -1    0    0  501  502  0.00000000000E+00  0.00000000000E+00  0.14286177261E+03  0.14286177261E+03  0.00000000000E+00 0. -1.
         21   -1    0    0  502  503 -0.00000000000E+00 -0.00000000000E+00 -0.32752989051E+03  0.32752989051E+03  0.00000000000E+00 0. -1.
         -6    2    1    2    0  503 -0.50333393030E+02 -0.21522944524E+02 -0.22168349718E+03  0.28600884310E+03  0.17222310475E+03 0.  0.
        -24    2    3    3    0    0 -0.52368920854E+02 -0.79628178865E+02 -0.10658840480E+03  0.15697655286E+03  0.64787339585E+02 0.  0.
          6    2    1    2  501    0  0.50333393030E+02  0.21522944524E+02  0.37015379285E+02  0.18438282002E+03  0.17213424534E+03 0.  0.
         24    2    5    5    0    0 -0.38703112790E+02  0.19012155103E+02  0.26504208113E+02  0.94569802301E+02  0.79884801297E+02 0.  0.
          5    1    5    5  501    0  0.89036505820E+02  0.25107894212E+01  0.10511171172E+02  0.89813017718E+02  0.47000000000E+01 0. -1.
        -13    1    6    6    0    0  0.12768326958E+02 -0.18366392685E+02  0.21064708131E+02  0.30725827608E+02  0.00000000000E+00 0.  1.
         14    1    6    6    0    0 -0.51471439748E+02  0.37378547788E+02  0.54394999817E+01  0.63843974692E+02  0.00000000000E+00 0. -1.
         -5    1    3    3    0  503  0.20355278245E+01  0.58105234341E+02 -0.11509509239E+03  0.12903229023E+03  0.47000000000E+01 0.  1.
         11    1    4    4    0    0 -0.42744742663E+02 -0.18712235267E+02 -0.73307842398E+02  0.86898219378E+02  0.00000000000E+00 0. -1.
        -12    1    4    4    0    0 -0.96241781910E+01 -0.60915943598E+02 -0.33280562398E+02  0.70078333484E+02  0.00000000000E+00 0.  1.
</event>
<event>
12    1  0.8219652E-002  0.2127272E+03  0.7818608E-02  0.1139483E+00
         21   -1    0    0  501  502  0.00000000000E+00  0.00000000000E+00  0.17559894795E+03  0.17559894795E+03  0.00000000000E+00 0.  1.
         21   -1    0    0  502  503 -0.00000000000E+00 -0.00000000000E+00 -0.39646360480E+03  0.39646360480E+03  0.00000000000E+00 0. -1.
         -6    2    1    2    0  503  0.66025743441E+02  0.10551589863E+03 -0.27991901619E+03  0.35157862633E+03  0.17251049593E+03 0.  0.
        -24    2    3    3    0    0  0.27182998928E+01  0.11529691667E+03 -0.23360732809E+03  0.27239300152E+03  0.79528582228E+02 0.  0.
          6    2    1    2  501    0 -0.66025743441E+02 -0.10551589863E+03  0.59054359345E+02  0.22048392641E+03  0.17214163002E+03 0.  0.
         24    2    5    5    0    0  0.13817855913E+02 -0.95620831241E+01  0.48772221292E+02  0.95144597263E+02  0.79946220942E+02 0.  0.
          5    1    5    5  501    0 -0.79843599354E+02 -0.95953815510E+02  0.10282138053E+02  0.12533932915E+03  0.47000000000E+01 0. -1.
        -11    1    6    6    0    0 -0.12010156918E+02  0.30761468636E+02  0.26457711622E+02  0.42314563995E+02  0.00000000000E+00 0.  1.
         12    1    6    6    0    0  0.25828012831E+02 -0.40323551760E+02  0.22314509670E+02  0.52830033268E+02  0.00000000000E+00 0. -1.
         -5    1    3    3    0  503  0.63307443548E+02 -0.97810180343E+01 -0.46311688097E+02  0.79185624811E+02  0.47000000000E+01 0.  1.
         13    1    4    4    0    0 -0.23246439290E+02  0.64758850366E+02 -0.65706598584E+02  0.95139175621E+02  0.00000000000E+00 0. -1.
        -14    1    4    4    0    0  0.25964739183E+02  0.50538066303E+02 -0.16790072951E+03  0.17725382590E+03  0.00000000000E+00 0.  1.
</event>
<event>
12    1  0.8219652E-002  0.3575299E+03  0.7818608E-02  0.1059587E+00
         21   -1    0    0  503  502  0.00000000000E+00  0.00000000000E+00  0.13455928281E+04  0.13455928281E+04  0.00000000000E+00 0. -1.
         21   -1    0    0  501  503 -0.00000000000E+00 -0.00000000000E+00 -0.10894397472E+03  0.10894397472E+03  0.00000000000E+00 0.  1.
          6    2    1    2  501    0 -0.70046315014E+02 -0.30406917443E+03  0.35744578171E+03  0.50541845273E+03  0.17411426252E+03 0.  0.
         24    2    3    3    0    0 -0.10778157323E+03 -0.26231005152E+03  0.26157116156E+03  0.39414488513E+03  0.80667758457E+02 0.  0.
         -6    2    1    2    0  502  0.70046315014E+02  0.30406917443E+03  0.87920307170E+03  0.94911835012E+03  0.17453667854E+03 0.  0.
        -24    2    5    5    0    0  0.82541349179E+02  0.30728465220E+03  0.74197835467E+03  0.81120831371E+03  0.79310261884E+02 0.  0.
          5    1    3    3  501    0  0.37735258216E+02 -0.41759122911E+02  0.95874620146E+02  0.11127356760E+03  0.47000000000E+01 0. -1.
        -11    1    4    4    0    0 -0.67475931675E+02 -0.96179349113E+02  0.67418695821E+02  0.13545755460E+03  0.00000000000E+00 0.  1.
         12    1    4    4    0    0 -0.40305641555E+02 -0.16613070241E+03  0.19415246574E+03  0.25868733053E+03  0.00000000000E+00 0. -1.
         -5    1    5    5    0  502 -0.12495034165E+02 -0.32154777700E+01  0.13722471703E+03  0.13791003640E+03  0.47000000000E+01 0.  1.
         11    1    6    6    0    0  0.57406249848E+02  0.10262885304E+03  0.33376956569E+03  0.35387890864E+03  0.00000000000E+00 0. -1.
        -12    1    6    6    0    0  0.25135099331E+02  0.20465579916E+03  0.40820878898E+03  0.45732940507E+03  0.00000000000E+00 0.  1.
</event>
<event>
12    1  0.8219652E-002  0.1876645E+03  0.7818608E-02  0.1161154E+00
         21   -1    0    0  503  502  0.00000000000E+00  0.00000000000E+00  0.68770792090E+03  0.68770792090E+03  0.00000000000E+00 0. -1.
         21   -1    0    0  501  503 -0.00000000000E+00 -0.00000000000E+00 -0.68265708153E+02  0.68265708153E+02  0.00000000000E+00 0. -1.
          6    2    1    2  501    0  0.43868064905E+02 -0.53696751007E+02  0.11863169760E+03  0.22201675105E+03  0.17438523414E+03 0.  0.
         24    2    3    3    0    0 -0.34211616788E+02 -0.24739570037E+01  0.86758541255E+02  0.12323315214E+03  0.80515899788E+02 0.  0.
         -6    2    1    2    0  502 -0.43868064905E+02  0.53696751007E+02  0.50081051514E+03  0.53395687800E+03  0.17172951784E+03 0.  0.
        -24    2    5    5    0    0 -0.38017662903E+02  0.34308035212E+02  0.50423884820E+03  0.51288573728E+03  0.78565765408E+02 0.  0.
          5    1    3    3  501    0  0.78079681694E+02 -0.51222794003E+02  0.31873156344E+02  0.98783598913E+02  0.47000000000E+01 0. -1.
        -13    1    4    4    0    0  0.55814279996E+01  0.31673791663E+02  0.49018877746E+02  0.58627909671E+02  0.00000000000E+00 0.  1.
         14    1    4    4    0    0 -0.39793044788E+02 -0.34147748667E+02  0.37739663509E+02  0.64605242467E+02  0.00000000000E+00 0. -1.
         -5    1    5    5    0  502 -0.58504020023E+01  0.19388715795E+02 -0.34283330575E+01  0.21071140722E+02  0.47000000000E+01 0.  1.
         11    1    6    6    0    0  0.13784331131E+02 -0.14002397398E+02  0.17585421652E+03  0.17694852468E+03  0.00000000000E+00 0. -1.
        -12    1    6    6    0    0 -0.51801994034E+02  0.48310432610E+02  0.32838463168E+03  0.33593721260E+03  0.00000000000E+00 0.  1.
</event>
<event>
12    1  0.8219652E-002  0.2834394E+03  0.7818608E-02  0.1093996E+00
         21   -1    0    0  501  502  0.00000000000E+00  0.00000000000E+00  0.12333124725E+04  0.12333124725E+04  0.00000000000E+00 0. -1.
         21   -1    0    0  502  503 -0.00000000000E+00 -0.00000000000E+00 -0.74069733553E+02  0.74069733553E+02  0.00000000000E+00 0.  1.
         -6    2    1    2    0  503 -0.16410216800E+03  0.15494432869E+03  0.35011287824E+03  0.45046297953E+03  0.17146603712E+03 0.  0.
        -24    2    3    3    0    0 -0.17589522572E+03  0.13673763558E+03  0.35638983323E+03  0.42739676942E+03  0.77575600975E+02 0.  0.
          6    2    1    2  501    0  0.16410216800E+03 -0.15494432869E+03  0.80912986068E+03  0.85691922649E+03  0.16935809030E+03 0.  0.
         24    2    5    5    0    0  0.18772080153E+03 -0.13360192234E+03  0.76538166559E+03  0.80261146708E+03  0.72715198433E+02 0.  0.
          5    1    5    5  501    0 -0.23618633531E+02 -0.21342406350E+02  0.43748195082E+02  0.54307759405E+02  0.47000000000E+01 0. -1.
        -13    1    6    6    0    0  0.25611342662E+02  0.45989286933E+00  0.41367271009E+02  0.48655970704E+02  0.00000000000E+00 0.  1.
         14    1    6    6    0    0  0.16210945887E+03 -0.13406181521E+03  0.72401439459E+03  0.75395549638E+03  0.00000000000E+00 0. -1.
         -5    1    3    3    0  503  0.11793057725E+02  0.18206693118E+02 -0.62769549951E+01  0.23066210110E+02  0.47000000000E+01 0.  1.
         13    1    4    4    0    0 -0.53495277000E+02  0.12688381537E+02  0.13413960266E+03  0.14496955780E+03  0.00000000000E+00 0. -1.
        -14    1    4    4    0    0 -0.12239994872E+03  0.12404925404E+03  0.22225023057E+03  0.28242721162E+03  0.00000000000E+00 0.  1.
</event>
<event>
12    1  0.8219652E-002  0.2617602E+03  0.7818608E-02  0.1106329E+00
         21   -1    0    0  501  502  0.00000000000E+00  0.00000000000E+00  0.13405507883E+03  0.13405507883E+03  0.00000000000E+00 0.  1.
         21   -1    0    0  502  503 -0.00000000000E+00 -0.00000000000E+00 -0.54437476000E+03  0.54437476000E+03  0.00000000000E+00 0. -1.
         -6    2    1    2    0  503  0.74861686104E+01 -0.19345676041E+03 -0.29342093720E+03  0.39321018499E+03  0.17617276273E+03 0.  0.
        -24    2    3    3    0    0  0.44262441850E+02 -0.41207029827E+02 -0.16268643620E+03  0.18913648633E+03  0.75156841813E+02 0.  0.
          6    2    1    2  501    0 -0.74861686104E+01  0.19345676041E+03 -0.11689874397E+03  0.28521965384E+03  0.17379117851E+03 0.  0.
         24    2    5    5    0    0 -0.65939329688E+02  0.14221795477E+03 -0.52875210199E+02  0.18440650926E+03  0.81461837367E+02 0.  0.
          5    1    5    5  501    0  0.58453161078E+02  0.51238805644E+02 -0.64023533766E+02  0.10081314458E+03  0.47000000000E+01 0. -1.
        -11    1    6    6    0    0  0.19756606125E+01  0.90788132711E+02 -0.19298610970E+02  0.92837625246E+02  0.00000000000E+00 0.  1.
         12    1    6    6    0    0 -0.67914990301E+02  0.51429822054E+02 -0.33576599229E+02  0.91568884016E+02  0.00000000000E+00 0. -1.
         -5    1    3    3    0  503 -0.36776273239E+02 -0.15224973058E+03 -0.13073450100E+03  0.20407369867E+03  0.47000000000E+01 0.  1.
         13    1    4    4    0    0  0.39387284467E+02 -0.50027453649E+00 -0.27945942522E+02  0.48296833806E+02  0.00000000000E+00 0. -1.
        -14    1    4    4    0    0  0.48751573828E+01 -0.40706755291E+02 -0.13474049368E+03  0.14083965252E+03  0.00000000000E+00 0.  1.
</event>
<event>
12    1  0.8219652E-002  0.2254996E+03  0.7818608E-02  0.1130144E+00
         21   -1    0    0  501  502  0.00000000000E+00  0.00000000000E+00  0.11689770390E+03  0.11689770390E+03  0.00000000000E+00 0. -1.
         21   -1    0    0  502  503 -0.00000000000E+00 -0.00000000000E+00 -0.54092559827E+03  0.54092559827E+03  0.00000000000E+00 0.  1.
         -6    2    1    2    0  503  0.83319004266E+02  0.10585330429E+03 -0.63699173533E+02  0.23275052691E+03  0.17879665704E+03 0.  0.
        -24    2    3    3    0    0  0.92267355933E+02  0.99340463471E+02  0.12214961752E+02  0.15589002972E+03  0.75965146093E+02 0.  0.
          6    2    1    2  501    0 -0.83319004266E+02 -0.10585330429E+03 -0.36032872084E+03  0.42507277526E+03  0.18083998093E+03 0.  0.
         24    2    5    5    0    0 -0.66670246460E+02 -0.13884196849E+03 -0.34203166525E+03  0.38357210846E+03  0.80124205922E+02 0.  0.
          5    1    5    5  501    0 -0.16648757806E+02  0.32988664193E+02 -0.18297055587E+02  0.41500666801E+02  0.47000000000E+01 0. -1.
        -13    1    6    6    0    0 -0.17182894943E+02 -0.86080760302E+02 -0.11119649201E+03  0.14166795336E+03  0.00000000000E+00 0.  1.
         14    1    6    6    0    0 -0.49487351517E+02 -0.52761208184E+02 -0.23083517324E+03  0.24190415510E+03  0.00000000000E+00 0. -1.
         -5    1    3    3    0  503 -0.89483516673E+01  0.65128408226E+01 -0.75914135285E+02  0.76860497196E+02  0.47000000000E+01 0.  1.
         11    1    4    4    0    0  0.44066517547E+02 -0.10111421070E+01  0.28829722322E+01  0.44172297948E+02  0.00000000000E+00 0. -1.
        -12    1    4    4    0    0  0.48200838386E+02  0.10035160558E+03  0.93319895202E+01  0.11171773177E+03  0.00000000000E+00 0.  1.
</event>
<event>
12    1  0.8219652E-002  0.2280786E+03  0.7818608E-02  0.1128094E+00
         21   -1    0    0  503  502  0.00000000000E+00  0.00000000000E+00  0.10483713519E+04  0.10483713519E+04  0.00000000000E+00 0.  1.
         21   -1    0    0  501  503 -0.00000000000E+00 -0.00000000000E+00 -0.66586657166E+02  0.66586657166E+02  0.00000000000E+00 0.  1.
          6    2    1    2  501    0  0.10474561493E+02  0.14552900845E+03  0.20895521970E+03  0.30932526436E+03  0.17530381226E+03 0.  0.
         24    2    3    3    0    0  0.55336578391E+02  0.12660779168E+03  0.96294118467E+02  0.18650333336E+03  0.80120323769E+02 0.  0.
         -6    2    1    2    0  502 -0.10474561493E+02 -0.14552900845E+03  0.77282947507E+03  0.80563274473E+03  0.17461475629E+03 0.  0.
        -24    2    5    5    0    0  0.12693276823E+02 -0.47114746892E+02  0.21493798479E+03  0.23863440212E+03  0.91471973386E+02 0.  0.
          5    1    3    3  501    0 -0.44862016898E+02  0.18921216770E+02  0.11266110123E+03  0.12282193100E+03  0.47000000000E+01 0. -1.
        -11    1    4    4    0    0  0.21469305955E+02  0.30260388187E+02  0.72799529217E+02  0.81709201719E+02  0.00000000000E+00 0.  1.
         12    1    4    4    0    0  0.33867272436E+02  0.96347403497E+02  0.23494589251E+02  0.10479413164E+03  0.00000000000E+00 0. -1.
         -5    1    5    5    0  502 -0.23167838316E+02 -0.98414261561E+02  0.55789149027E+03  0.56699834261E+03  0.47000000000E+01 0.  1.
         11    1    6    6    0    0  0.49785604768E+02 -0.10501232673E+02  0.92624714815E+02  0.10567979998E+03  0.00000000000E+00 0. -1.
        -12    1    6    6    0    0 -0.37092327944E+02 -0.36613514219E+02  0.12231326998E+03  0.13295460214E+03  0.00000000000E+00 0.  1.
</event>
<event>
12    1  0.8219652E-002  0.2147861E+03  0.7818608E-02  0.1137954E+00
         21   -1    0    0  503  502  0.00000000000E+00  0.00000000000E+00  0.12624242266E+03  0.12624242266E+03  0.00000000000E+00 0.  1.
         21   -1    0    0  501  503 -0.00000000000E+00 -0.00000000000E+00 -0.45780047353E+03  0.45780047353E+03  0.00000000000E+00 0.  1.
          6    2    1    2  501    0  0.36186868312E+02 -0.12198882710E+03 -0.29791361625E+03  0.36726773725E+03  0.17303844862E+03 0.  0.
         24    2    3    3    0    0 -0.21657984842E+02 -0.10124714474E+03 -0.27044540726E+03  0.29979302400E+03  0.77556987452E+02 0.  0.
         -6    2    1    2    0  502 -0.36186868312E+02  0.12198882710E+03 -0.33644434619E+02  0.21677515894E+03  0.17224621382E+03 0.  0.
        -24    2    5    5    0    0 -0.41728755375E+02  0.44538450971E+02  0.41158095742E+02  0.10885490216E+03  0.80190013338E+02 0.  0.
          5    1    3    3  501    0  0.57844853154E+02 -0.20741682364E+02 -0.27468208991E+02  0.67474713255E+02  0.47000000000E+01 0. -1.
        -11    1    4    4    0    0 -0.36161318060E+02 -0.36850813261E+02 -0.59582804203E+02  0.78839925916E+02  0.00000000000E+00 0.  1.
         12    1    4    4    0    0  0.14503333218E+02 -0.64396331477E+02 -0.21086260306E+03  0.22095309808E+03  0.00000000000E+00 0. -1.
         -5    1    5    5    0  502  0.55418870631E+01  0.77450376132E+02 -0.74802530361E+02  0.10792025678E+03  0.47000000000E+01 0.  1.
         13    1    6    6    0    0 -0.55435824647E+02  0.28472041508E+02 -0.30766295875E+00  0.62320802774E+02  0.00000000000E+00 0. -1.
        -14    1    6    6    0    0  0.13707069272E+02  0.16066409462E+02  0.41465758701E+02  0.46534099386E+02  0.00000000000E+00 0.  1.
</event>
<event>
12    1  0.8219652E-002  0.1849422E+03  0.7818608E-02  0.1163183E+00
         21   -1    0    0  503  502  0.00000000000E+00  0.00000000000E+00  0.17921637318E+03  0.17921637318E+03  0.00000000000E+00 0. -1.
         21   -1    0    0  501  503 -0.00000000000E+00 -0.00000000000E+00 -0.24377025458E+03  0.24377025458E+03  0.00000000000E+00 0.  1.
          6    2    1    2  501    0 -0.47456019992E+02 -0.48324086349E+02 -0.13116398664E+03  0.22673242619E+03  0.17209390036E+03 0.  0.
         24    2    3    3    0    0  0.38923203244E+02 -0.50126590839E+01 -0.77833110461E+02  0.11626287250E+03  0.76934517201E+02 0.  0.
         -6    2    1    2    0  502  0.47456019992E+02  0.48324086349E+02  0.66610105238E+02  0.19625420157E+03  0.17173093594E+03 0.  0.
        -24    2    5    5    0    0  0.60974515195E+02 -0.19821845237E+02  0.27254062071E+01  0.10175572288E+03  0.78968362327E+02 0.  0.
          5    1    3    3  501    0 -0.86379223236E+02 -0.43311427266E+02 -0.53330876178E+02  0.11046955369E+03  0.47000000000E+01 0. -1.
        -13    1    4    4    0    0  0.15741664938E+02 -0.27791582764E+02 -0.77431239126E+02  0.83760186725E+02  0.00000000000E+00 0.  1.
         14    1    4    4    0    0  0.23181538306E+02  0.22778923680E+02 -0.40187133425E+00  0.32502685779E+02  0.00000000000E+00 0. -1.
         -5    1    5    5    0  502 -0.13518495203E+02  0.68145931587E+02  0.63884699031E+02  0.94498478690E+02  0.47000000000E+01 0.  1.
         11    1    6    6    0    0  0.58922575328E+02  0.44341137280E+01 -0.25609625385E+02  0.64400187579E+02  0.00000000000E+00 0. -1.
        -12    1    6    6    0    0  0.20519398668E+01 -0.24255958965E+02  0.28335031592E+02  0.37355535304E+02  0.00000000000E+00 0.  1.
</event>
<event>
12    1  0.8219652E-002  0.2735127E+03  0.7818608E-02  0.1099412E+00
         21   -1    0    0  501  502  0.00000000000E+00  0.00000000000E+00  0.13377128757E+04  0.13377128757E+04  0.00000000000E+00 0.  1.
         21   -1    0    0  502  503 -0.00000000000E+00 -0.00000000000E+00 -0.21852026390E+03  0.21852026390E+03  0.00000000000E+00 0. -1.
         -6    2    1    2    0  503 -0.13516286211E+03  0.16474233107E+03 -0.11175228507E+03  0.29546194643E+03  0.17146472998E+03 0.  0.
        -24    2    3    3    0    0 -0.36606346239E+02  0.97353415623E+02  0.79646416632E+00  0.13131578077E+03  0.80159140492E+02 0.  0.
          6    2    1    2  501    0  0.13516286211E+03 -0.16474233107E+03  0.12309448969E+04  0.12607711932E+04  0.17002831373E+03 0.  0.
         24    2    5    5    0    0  0.12813738190E+03 -0.94717357110E+02  0.10745479392E+04  0.10892050172E+04  0.79521881305E+02 0.  0.
          5    1    5    5  501    0  0.70254802107E+01 -0.70024973960E+02  0.15639695769E+03  0.17156617594E+03  0.47000000000E+01 0. -1.
        -13    1    6    6    0    0  0.12554950125E+03 -0.71728992165E+02  0.74856796424E+03  0.76240522209E+03  0.00000000000E+00 0.  1.
         14    1    6    6    0    0  0.25878806495E+01 -0.22988364945E+02  0.32597997493E+03  0.32679979514E+03  0.00000000000E+00 0. -1.
         -5    1    3    3    0  503 -0.98556515875E+02  0.67388915448E+02 -0.11254874924E+03  0.16414616566E+03  0.47000000000E+01 0.  1.
         11    1    4    4    0    0 -0.32954218345E+02  0.73927444100E+02 -0.35159695206E+02  0.88246539110E+02  0.00000000000E+00 0. -1.
        -12    1    4    4    0    0 -0.36521278941E+01  0.23425971523E+02  0.35956159372E+02  0.43069241655E+02  0.00000000000E+00 0.  1.
</event>
<event>
12    1  0.8219652E-002  0.2235029E+03  0.7818608E-02  0.1131479E+00
         21   -1    0    0  503  502  0.00000000000E+00  0.00000000000E+00  0.34772079531E+03  0.34772079531E+03  0.00000000000E+00 0. -1.
         21   -1    0    0  501  503 -0.00000000000E+00 -0.00000000000E+00 -0.14361809943E+03  0.14361809943E+03  0.00000000000E+00 0.  1.
          6    2    1    2  501    0 -0.77190319025E+02  0.11984054652E+03  0.86495216740E+02  0.23965596696E+03  0.17214371333E+03 0.  0.
         24    2    3    3    0    0 -0.97793627324E+02  0.48490029943E+02  0.14721306551E+02  0.13626845944E+03  0.80234030319E+02 0.  0.
         -6    2    1    2    0  502  0.77190319025E+02 -0.11984054652E+03  0.11760747913E+03  0.25168292778E+03  0.17085864053E+03 0.  0.
        -24    2    5    5    0    0 -0.12226883405E+02 -0.85423119322E+02  0.10108526046E+03  0.15434296119E+03  0.78466004060E+02 0.  0.
          5    1    3    3  501    0  0.20603308299E+02  0.71350516581E+02  0.71773910189E+02  0.10338750753E+03  0.47000000000E+01 0. -1.
        -11    1    4    4    0    0 -0.81887113113E+02  0.21172714162E+01 -0.78641742214E+01  0.82291113544E+02  0.00000000000E+00 0.  1.
         12    1    4    4    0    0 -0.15906514211E+02  0.46372758527E+02  0.22585480772E+02  0.53977345891E+02  0.00000000000E+00 0. -1.
         -5    1    5    5    0  502  0.89417202430E+02 -0.34417427201E+02  0.16522218670E+02  0.97339966587E+02  0.47000000000E+01 0.  1.
         13    1    6    6    0    0 -0.31954922891E+01 -0.70198679456E+02  0.11295525558E+03  0.13302990466E+03  0.00000000000E+00 0. -1.
        -14    1    6    6    0    0 -0.90313911155E+01 -0.15224439866E+02 -0.11869995120E+02  0.21313056535E+02  0.00000000000E+00 0.  1.
</event>
<event>
12    1  0.8219652E-002  0.3568092E+03  0.7818608E-02  0.1059863E+00
         21   -1    0    0  501  502  0.00000000000E+00  0.00000000000E+00  0.41162859432E+03  0.41162859432E+03  0.00000000000E+00 0.  1.
         21   -1    0    0  502  503 -0.00000000000E+00 -0.00000000000E+00 -0.33272514232E+03  0.33272514232E+03  0.00000000000E+00 0. -1.
         -6    2    1    2    0  503  0.24859860210E+03  0.18947625867E+03 -0.59472315678E+02  0.36173166095E+03  0.17207649647E+03 0.  0.
        -24    2    3    3    0    0  0.19788143412E+03  0.13905804624E+03  0.18964458222E+02  0.25548362675E+03  0.80112612398E+02 0.  0.
          6    2    1    2  501    0 -0.24859860210E+03 -0.18947625867E+03  0.13837576768E+03  0.38262207569E+03  0.17189904642E+03 0.  0.
         24    2    5    5    0    0 -0.22060837360E+03 -0.21229528866E+03  0.14065204190E+03  0.34613327679E+03  0.79296307092E+02 0.  0.
          5    1    5    5  501    0 -0.27990228495E+02  0.22819029992E+02 -0.22762742168E+01  0.36488798902E+02  0.47000000000E+01 0. -1.
        -11    1    6    6    0    0  0.49153505620E+01 -0.17747900735E+02  0.75474794469E+01  0.19902590225E+02  0.00000000000E+00 0.  1.
         12    1    6    6    0    0 -0.22552372417E+03 -0.19454738792E+03  0.13310456245E+03  0.32623068656E+03  0.00000000000E+00 0. -1.
         -5    1    3    3    0  503  0.50717167976E+02  0.50418212427E+02 -0.78436773900E+02  0.10624803420E+03  0.47000000000E+01 0.  1.
         13    1    4    4    0    0  0.13802882711E+03  0.50473293722E+02  0.36306271691E+00  0.14696816766E+03  0.00000000000E+00 0. -1.
        -14    1    4    4    0    0  0.59852607015E+02  0.88584752518E+02  0.18601395506E+02  0.10851545908E+03  0.00000000000E+00 0.  1.
</event>
<event>
12    1  0.8219652E-002  0.2462735E+03  0.7818608E-02  0.1116500E+00
         21   -1    0    0  501  502  0.00000000000E+00  0.00000000000E+00  0.31074058088E+03  0.31074058088E+03  0.00000000000E+00 0. -1.
         21   -1    0    0  502  503 -0.00000000000E+00 -0.00000000000E+00 -0.25049882326E+03  0.25049882326E+03  0.00000000000E+00 0. -1.
         -6    2    1    2    0  503  0.24382636629E+02 -0.17178538414E+03 -0.10661336108E+03  0.26376462024E+03  0.16763244005E+03 0.  0.
        -24    2    3    3    0    0 -0.93535904403E+01 -0.11898218760E+03 -0.56575231182E+01  0.14485086241E+03  0.81887203844E+02 0.  0.
          6    2    1    2  501    0 -0.24382636629E+02  0.17178538414E+03  0.16685511870E+03  0.29747478390E+03  0.17477381166E+03 0.  0.
         24    2    5    5    0    0 -0.65102943198E+02  0.67629897983E+02  0.42778119499E+02  0.13037092279E+03  0.79714576382E+02 0.  0.
          5    1    5    5  501    0  0.40720306570E+02  0.10415548616E+03  0.12407699920E+03  0.16710386110E+03  0.47000000000E+01 0. -1.
        -13    1    6    6    0    0 -0.34970064974E+01 -0.50333938091E+01  0.34173801573E+02  0.34719055598E+02  0.00000000000E+00 0.  1.
         14    1    6    6    0    0 -0.61605936701E+02  0.72663291792E+02  0.86043179260E+01  0.95651867195E+02  0.00000000000E+00 0. -1.
         -5    1    3    3    0  503  0.33736227069E+02 -0.52803196540E+02 -0.10095583796E+03  0.11891375783E+03  0.47000000000E+01 0.  1.
         11    1    4    4    0    0  0.25715852377E+01 -0.22931993757E+02 -0.36574143849E+02  0.43245316354E+02  0.00000000000E+00 0. -1.
        -12    1    4    4    0    0 -0.11925175678E+02 -0.96050193846E+02  0.30916620730E+02  0.10160554606E+03  0.00000000000E+00 0.  1.
</event>
<event>
12    1  0.8219652E-002  0.1988071E+03  0.7818608E-02  0.1150962E+00
         21   -1    0    0  503  502  0.00000000000E+00  0.00000000000E+00  0.76265582646E+02  0.76265582646E+02  0.00000000000E+00 0. -1.
         21   -1    0    0  501  503 -0.00000000000E+00 -0.00000000000E+00 -0.53032061905E+03  0.53032061905E+03  0.00000000000E+00 0.  1.
          6    2    1    2  501    0 -0.42755705002E+02 -0.86762160638E+02 -0.27692192490E+03  0.34031491824E+03  0.17254787235E+03 0.  0.
         24    2    3    3    0    0 -0.48901130879E+01 -0.86982939193E+02 -0.86520729154E+02  0.14612800535E+03  0.79231385558E+02 0.  0.
         -6    2    1    2    0  502  0.42755705002E+02  0.86762160638E+02 -0.17713311150E+03  0.26627128346E+03  0.17369091622E+03 0.  0.
        -24    2    5    5    0    0  0.90104052469E+02  0.81463201666E+02 -0.15669838882E+03  0.21421734158E+03  0.81115293737E+02 0.  0.
          5    1    3    3  501    0 -0.37865591914E+02  0.22077855453E+00 -0.19040119575E+03  0.19418691289E+03  0.47000000000E+01 0. -1.
        -13    1    4    4    0    0  0.16158700901E+02 -0.82501722032E+02 -0.91271646563E+02  0.12408928729E+03  0.00000000000E+00 0.  1.
         14    1    4    4    0    0 -0.21048813989E+02 -0.44812171604E+01  0.47509174090E+01  0.22038718062E+02  0.00000000000E+00 0. -1.
         -5    1    5    5    0  502 -0.47348347467E+02  0.52989589723E+01 -0.20434722684E+02  0.52053941879E+02  0.47000000000E+01 0.  1.
         11    1    6    6    0    0  0.25741500137E+02  0.54074293407E+02 -0.24603059218E+02  0.64745382536E+02  0.00000000000E+00 0. -1.
        -12    1    6    6    0    0  0.64362552332E+02  0.27388908259E+02 -0.13209532960E+03  0.14947195904E+03  0.00000000000E+00 0.  1.
</event>
<event>
12    1  0.8219652E-002  0.2319495E+03  0.7818608E-02  0.1125351E+00
         21   -1    0    0  503  502  0.00000000000E+00  0.00000000000E+00  0.24638846789E+04  0.24638846789E+04  0.00000000000E+00 0.  1.
         21   -1    0    0  501  503 -0.00000000000E+00 -0.00000000000E+00 -0.21853362791E+02  0.21853362791E+02  0.00000000000E+00 0. -1.
          6    2    1    2  501    0 -0.60910516299E+00 -0.15591095945E+03  0.12842671387E+04  0.13049677610E+04  0.17114372749E+03 0.  0.
         24    2    3    3    0    0  0.15827636240E+02 -0.64536565761E+02  0.32111993188E+03  0.33734486014E+03  0.79171090837E+02 0.  0.
         -6    2    1    2    0  502  0.60910516299E+00  0.15591095945E+03  0.11577641774E+04  0.11807702807E+04  0.17173225367E+03 0.  0.
        -24    2    5    5    0    0 -0.52187956979E+02  0.51996623008E+02  0.40476780193E+03  0.41879170449E+03  0.78245042071E+02 0.  0.
          5    1    3    3  501    0 -0.16436741403E+02 -0.91374393689E+02  0.96314720683E+03  0.96762290088E+03  0.47000000000E+01 0. -1.
        -13    1    4    4    0    0 -0.15229311502E+02 -0.27856409853E+02  0.24683067398E+03  0.24886400526E+03  0.00000000000E+00 0.  1.
         14    1    4    4    0    0  0.31056947743E+02 -0.36680155907E+02  0.74289257897E+02  0.88480854875E+02  0.00000000000E+00 0. -1.
         -5    1    5    5    0  502  0.52797062142E+02  0.10391433644E+03  0.75299637549E+03  0.76197857621E+03  0.47000000000E+01 0.  1.
         13    1    6    6    0    0 -0.29750489903E+02  0.70757401235E+02  0.32153132028E+03  0.33056631922E+03  0.00000000000E+00 0. -1.
        -14    1    6    6    0    0 -0.22437467076E+02 -0.18760778227E+02  0.83236481651E+02  0.88225385270E+02  0.00000000000E+00 0.  1.
</event>
<event>
12    1  0.8219652E-002  0.1797755E+03  0.7818608E-02  0.1168254E+00
         21   -1    0    0  501  502  0.00000000000E+00  0.00000000000E+00  0.21310733481E+03  0.21310733481E+03  0.00000000000E+00 0.  1.
         21   -1    0    0  502  503 -0.00000000000E+00 -0.00000000000E+00 -0.16919935436E+03  0.16919935436E+03  0.00000000000E+00 0.  1.
         -6    2    1    2    0  503  0.49887968436E+02  0.41697798809E+01 -0.41050560355E+02  0.18346709142E+03  0.17166487314E+03 0.  0.
        -24    2    3    3    0    0  0.29062836327E+02  0.36071295881E+02  0.32965353006E+02  0.10008940687E+03  0.82373466760E+02 0.  0.
          6    2    1    2  501    0 -0.49887968436E+02 -0.41697798809E+01  0.84958540800E+02  0.19883959776E+03  0.17266451726E+03 0.  0.
         24    2    5    5    0    0  0.42284924496E+02 -0.72018215249E+01  0.39865409618E+02  0.96075226753E+02  0.76166378664E+02 0.  0.
          5    1    5    5  501    0 -0.92172892932E+02  0.30320416440E+01  0.45093131182E+02  0.10276437100E+03  0.47000000000E+01 0. -1.
        -11    1    6    6    0    0 -0.13601030261E+02  0.19227890755E+02  0.21308739991E+01  0.23648264863E+02  0.00000000000E+00 0.  1.
         12    1    6    6    0    0  0.55885954756E+02 -0.26429712280E+02  0.37734535619E+02  0.72426961890E+02  0.00000000000E+00 0. -1.
         -5    1    3    3    0  503  0.20825132109E+02 -0.31901516000E+02 -0.74015913362E+02  0.83377684552E+02  0.47000000000E+01 0.  1.
         11    1    4    4    0    0 -0.14158179631E+02  0.24922744085E+02 -0.16812200710E+02  0.33230216910E+02  0.00000000000E+00 0. -1.
        -12    1    4    4    0    0  0.43221015958E+02  0.11148551796E+02  0.49777553716E+02  0.66859189956E+02  0.00000000000E+00 0.  1.
</event>
<event>
12    1  0.8219652E-002  0.2258872E+03  0.7818608E-02  0.1132615E+00
         21   -1    0    0  503  502  0.00000000000E+00  0.00000000000E+00  0.24629120959E+03  0.24629120959E+03  0.00000000000E+00 0.  1.
         21   -1    0    0  501  503 -0.00000000000E+00 -0.00000000000E+00 -0.24906248448E+03  0.24906248448E+03  0.00000000000E+00 0.  1.
          6    2    1    2  501    0  0.55369306238E+02 -0.13618391063E+03 -0.11927662937E+03  0.24119125653E+03  0.14944728276E+03 0.  0.
         24    2    3    3    0    0  0.72543856183E+02 -0.75940316917E+02 -0.11854511784E+03  0.17836705054E+03  0.82050697439E+02 0.  0.
         -6    2    1    2    0  502 -0.55369306238E+02  0.13618391063E+03  0.11650535448E+03  0.25416243754E+03  0.17150285551E+03 0.  0.
        -24    2    5    5    0    0 -0.60003647988E+02  0.13881655407E+03  0.35257033592E+02  0.17260394576E+03  0.75356421212E+02 0.  0.
          5    1    3    3  501    0 -0.17174549944E+02 -0.60243593713E+02 -0.73151153082E+00  0.62824205991E+02  0.47000000000E+01 0. -1.
        -13    1    4    4    0    0 -0.47496722354E+01 -0.46407418032E+02 -0.64252857280E+02  0.79401747483E+02  0.00000000000E+00 0.  1.
         14    1    4    4    0    0  0.77293528418E+02 -0.29532898885E+02 -0.54292260564E+02  0.98965303056E+02  0.00000000000E+00 0. -1.
         -5    1    5    5    0  502  0.46343417500E+01 -0.26326434422E+01  0.81248320886E+02  0.81558491782E+02  0.47000000000E+01 0.  1.
         13    1    6    6    0    0 -0.33707673460E+02  0.12463161262E+03  0.51017837278E+02  0.13882386623E+03  0.00000000000E+00 0. -1.
        -14    1    6    6    0    0 -0.26295974528E+02  0.14184941457E+02 -0.15760803686E+02  0.33780079535E+02  0.00000000000E+00 0.  1.
</event>
<event>
12    1  0.8219652E-002  0.2020302E+03  0.7818608E-02  0.1148174E+00
         21   -1    0    0  501  502  0.00000000000E+00  0.00000000000E+00  0.98588891633E+03  0.98588891633E+03  0.00000000000E+00 0.  1.
         21   -1    0    0  502  503 -0.00000000000E+00 -0.00000000000E+00 -0.53114904450E+02  0.53114904450E+02  0.00000000000E+00 0. -1.
         -6    2    1    2    0  503  0.52796322964E+02  0.90220797605E+02  0.22042740926E+03  0.29856214037E+03  0.17211584723E+03 0.  0.
        -24    2    3    3    0    0 -0.20476904034E+01  0.70896619319E+02  0.21438721116E+03  0.23991178946E+03  0.81026333648E+02 0.  0.
          6    2    1    2  501    0 -0.52796322964E+02 -0.90220797605E+02  0.71234660261E+03  0.74044168041E+03  0.17288422657E+03 0.  0.
         24    2    5    5    0    0 -0.72902077019E+02 -0.10183922782E+02  0.51283056641E+03  0.52448131049E+03  0.81651883527E+02 0.  0.
          5    1    5    5  501    0  0.20105754054E+02 -0.80036874823E+02  0.19951603620E+03  0.21596036993E+03  0.47000000000E+01 0. -1.
        -11    1    6    6    0    0 -0.21558115093E+02  0.35258142205E+02  0.18587840477E+03  0.19041709555E+03  0.00000000000E+00 0.  1.
         12    1    6    6    0    0 -0.51343961926E+02 -0.45442064987E+02  0.32695216165E+03  0.33406421494E+03  0.00000000000E+00 0. -1.
         -5    1    3    3    0  503  0.54844013368E+02  0.19324178286E+02  0.60401981035E+01  0.58650350910E+02  0.47000000000E+01 0.  1.
         11    1    4    4    0    0 -0.15420587591E+02  0.52827744992E+02  0.51144915212E+02  0.75129005814E+02  0.00000000000E+00 0. -1.
        -12    1    4    4    0    0  0.13372897188E+02  0.18068874327E+02  0.16324229595E+03  0.16478278364E+03  0.00000000000E+00 0.  1.
</event>
<event>
12    1  0.8219652E-002  0.1861300E+03  0.7818608E-02  0.1162178E+00
         21   -1    0    0  501  502  0.00000000000E+00  0.00000000000E+00  0.13383988985E+03  0.13383988985E+03  0.00000000000E+00 0. -1.
         21   -1    0    0  502  503 -0.00000000000E+00 -0.00000000000E+00 -0.25811158252E+03  0.25811158252E+03  0.00000000000E+00 0. -1.
         -6    2    1    2    0  503 -0.52947713466E+02  0.41879707153E+02 -0.69062932500E+02  0.19780619963E+03  0.17262744201E+03 0.  0.
        -24    2    3    3    0    0 -0.16169090985E+02  0.74619321088E+02 -0.91398493389E+02  0.14353358525E+03  0.80116932775E+02 0.  0.
          6    2    1    2  501    0  0.52947713466E+02 -0.41879707153E+02 -0.55208760177E+02  0.19414527274E+03  0.17345607367E+03 0.  0.
         24    2    5    5    0    0  0.68601968131E+02  0.29689541300E+02 -0.44822446840E+02  0.12000231273E+03  0.82485177012E+02 0.  0.
          5    1    5    5  501    0 -0.15654254665E+02 -0.71569248453E+02 -0.10386313336E+02  0.74142960003E+02  0.47000000000E+01 0. -1.
        -13    1    6    6    0    0  0.88516396168E-02 -0.39504473034E+01  0.19645290238E+02  0.20038551364E+02  0.00000000000E+00 0.  1.
         14    1    6    6    0    0  0.68593116491E+02  0.33639988603E+02 -0.64467737078E+02  0.99963761369E+02  0.00000000000E+00 0. -1.
         -5    1    3    3    0  503 -0.36778622480E+02 -0.32739613935E+02  0.22335560889E+02  0.54272614387E+02  0.47000000000E+01 0.  1.
         13    1    4    4    0    0 -0.14281069026E+02 -0.80446191128E+01  0.44146520376E+01  0.16975098874E+02  0.00000000000E+00 0. -1.
        -14    1    4    4    0    0 -0.18880219597E+01  0.82663940201E+02 -0.95813145427E+02  0.12655848637E+03  0.00000000000E+00 0.  1.
</event>
<event>
12    1  0.8219652E-002  0.4321006E+03  0.7818608E-02  0.1033561E+00
         21   -1    0    0  503  502  0.00000000000E+00  0.00000000000E+00  0.46236805749E+03  0.46236805749E+03  0.00000000000E+00 0.  1.
         21   -1    0    0  501  503 -0.00000000000E+00 -0.00000000000E+00 -0.46432734882E+03  0.46432734882E+03  0.00000000000E+00 0. -1.
          6    2    1    2  501    0 -0.38684618970E+03  0.69489099036E+02 -0.17405348292E+03  0.46158537237E+03  0.16818957074E+03 0.  0.
         24    2    3    3    0    0 -0.14590074872E+03 -0.26128079011E+02 -0.59984386300E+02  0.17833424869E+03  0.78963742729E+02 0.  0.
         -6    2    1    2    0  502  0.38684618970E+03 -0.69489099036E+02  0.17209419160E+03  0.46511003393E+03  0.17953334931E+03 0.  0.
        -24    2    5    5    0    0  0.11308437692E+03 -0.46779438697E+02  0.11414823919E+02  0.14683152696E+03  0.80329365206E+02 0.  0.
          5    1    3    3  501    0 -0.24094544097E+03  0.95617178047E+02 -0.11406909662E+03  0.28325112368E+03  0.47000000000E+01 0. -1.
        -13    1    4    4    0    0 -0.14047517986E+03 -0.45573062165E+02 -0.54461546401E+02  0.15740470192E+03  0.00000000000E+00 0.  1.
         14    1    4    4    0    0 -0.54255688653E+01  0.19444983154E+02 -0.55228398987E+01  0.20929546768E+02  0.00000000000E+00 0. -1.
         -5    1    5    5    0  502  0.27376181277E+03 -0.22709660339E+02  0.16067936768E+03  0.31827850698E+03  0.47000000000E+01 0.  1.
         11    1    6    6    0    0 -0.73723620158E+01 -0.22203481544E+02  0.32831499755E+01  0.23624677525E+02  0.00000000000E+00 0. -1.
        -12    1    6    6    0    0  0.12045673894E+03 -0.24575957152E+02  0.81316739437E+01  0.12320684943E+03  0.00000000000E+00 0.  1.
</event>
<event>
12    1  0.8219652E-002  0.3058288E+03  0.7818608E-02  0.1082438E+00
         21   -1    0    0  501  502  0.00000000000E+00  0.00000000000E+00  0.55674463654E+03  0.55674463654E+03  0.00000000000E+00 0.  1.
         21   -1    0    0  502  503 -0.00000000000E+00 -0.00000000000E+00 -0.31143788392E+03  0.31143788392E+03  0.00000000000E+00 0.  1.
         -6    2    1    2    0  503  0.11709731852E+03  0.22329171387E+03 -0.17235879136E+03  0.35051878736E+03  0.17200260418E+03 0.  0.
        -24    2    3    3    0    0  0.71792026184E+02  0.83185703299E+02 -0.21275109602E+02  0.13949596251E+03  0.83261858084E+02 0.  0.
          6    2    1    2  501    0 -0.11709731852E+03 -0.22329171387E+03  0.41766554398E+03  0.51766373311E+03  0.17309033037E+03 0.  0.
         24    2    5    5    0    0 -0.12246832598E+03 -0.15766874818E+03  0.39159296775E+03  0.44669126959E+03  0.79562006771E+02 0.  0.
          5    1    5    5  501    0  0.53710074584E+01 -0.65622965685E+02  0.26072576230E+02  0.70972463517E+02  0.47000000000E+01 0. -1.
        -11    1    6    6    0    0 -0.82770113998E+01 -0.36390179387E+02  0.27676868945E+02  0.46462491841E+02  0.00000000000E+00 0.  1.
         12    1    6    6    0    0 -0.11419131458E+03 -0.12127856880E+03  0.36391609880E+03  0.40022877775E+03  0.00000000000E+00 0. -1.
         -5    1    3    3    0  503  0.45305292333E+02  0.14010601057E+03 -0.15108368176E+03  0.21102282484E+03  0.47000000000E+01 0.  1.
         11    1    4    4    0    0  0.38012813574E+02  0.86480777543E+01 -0.39670521310E+02  0.55619362687E+02  0.00000000000E+00 0. -1.
        -12    1    4    4    0    0  0.33779212610E+02  0.74537625544E+02  0.18395411708E+02  0.83876599825E+02  0.00000000000E+00 0.  1.
</event>
<event>
12    1  0.8219652E-002  0.1733902E+03  0.7818608E-02  0.1175206E+00
         21   -1    0    0  501  502  0.00000000000E+00  0.00000000000E+00  0.72245606735E+02  0.72245606735E+02  0.00000000000E+00 0. -1.
         21   -1    0    0  502  503 -0.00000000000E+00 -0.00000000000E+00 -0.97829737631E+03  0.97829737631E+03  0.00000000000E+00 0. -1.
         -6    2    1    2    0  503 -0.10017562888E+02  0.14470923286E+02 -0.85580110233E+03  0.87318936856E+03  0.17249460117E+03 0.  0.
        -24    2    3    3    0    0  0.60433964314E+02 -0.13827587895E+01 -0.51750892009E+03  0.52724363946E+03  0.80722963966E+02 0.  0.
          6    2    1    2  501    0  0.10017562888E+02 -0.14470923286E+02 -0.50250667248E+02  0.17735361449E+03  0.16917273961E+03 0.  0.
         24    2    5    5    0    0 -0.41682063880E+02 -0.55343702619E+02 -0.31790938888E+02  0.10875123064E+03  0.77561888203E+02 0.  0.
          5    1    5    5  501    0  0.51699626768E+02  0.40872779332E+02 -0.18459728360E+02  0.68602383846E+02  0.47000000000E+01 0. -1.
        -13    1    6    6    0    0 -0.10165868523E+02 -0.67994648024E+02 -0.29192353763E+02  0.74691435660E+02  0.00000000000E+00 0.  1.
         14    1    6    6    0    0 -0.31516195357E+02  0.12650945406E+02 -0.25985851251E+01  0.34059794980E+02  0.00000000000E+00 0. -1.
         -5    1    3    3    0  503 -0.70451527202E+02  0.15853682076E+02 -0.33829218224E+03  0.34594572910E+03  0.47000000000E+01 0.  1.
         11    1    4    4    0    0  0.11486344925E+02 -0.33685119367E+02 -0.29488077426E+03  0.29702069695E+03  0.00000000000E+00 0. -1.
        -12    1    4    4    0    0  0.48947619389E+02  0.32302360578E+02 -0.22262814583E+03  0.23022294251E+03  0.00000000000E+00 0.  1.
</event>
<event>
12    1  0.8219652E-002  0.3190442E+03  0.7818608E-02  0.1076466E+00
         21   -1    0    0  503  502  0.00000000000E+00  0.00000000000E+00  0.12251065184E+04  0.12251065184E+04  0.00000000000E+00 0. -1.
         21   -1    0    0  501  503 -0.00000000000E+00 -0.00000000000E+00 -0.84132944698E+02  0.84132944698E+02  0.00000000000E+00 0.  1.
          6    2    1    2  501    0  0.20740783401E+03  0.16836807699E+03  0.46958068676E+03  0.56589728431E+03  0.16842771761E+03 0.  0.
         24    2    3    3    0    0  0.28941784883E+02  0.53127775086E+02  0.11774370431E+03  0.15487196868E+03  0.80383825366E+02 0.  0.
         -6    2    1    2    0  502 -0.20740783401E+03 -0.16836807699E+03  0.67139288690E+03  0.74334217874E+03  0.17442295478E+03 0.  0.
        -24    2    5    5    0    0 -0.18241566187E+03 -0.16910914184E+03  0.44825060332E+03  0.51875427487E+03  0.79397851140E+02 0.  0.
          5    1    3    3  501    0  0.17846604913E+03  0.11524030190E+03  0.35183698244E+03  0.41102531563E+03  0.47000000000E+01 0. -1.
        -13    1    4    4    0    0  0.42135556320E+02  0.29368686022E+02  0.22941880426E+02  0.56251708441E+02  0.00000000000E+00 0.  1.
         14    1    4    4    0    0 -0.13193771437E+02  0.23759089063E+02  0.94801823887E+02  0.98620260242E+02  0.00000000000E+00 0. -1.
         -5    1    5    5    0  502 -0.24992172143E+02  0.74106484803E+00  0.22314228358E+03  0.22458790387E+03  0.47000000000E+01 0.  1.
         11    1    6    6    0    0 -0.15529352483E+03 -0.95042768590E+02  0.30423786269E+03  0.35455589659E+03  0.00000000000E+00 0. -1.
        -12    1    6    6    0    0 -0.27122137045E+02 -0.74066373245E+02  0.14401274064E+03  0.16419837828E+03  0.00000000000E+00 0.  1.
</event>
<event>
12    1  0.8219652E-002  0.1794126E+03  0.7818608E-02  0.1172416E+00
         21   -1    0    0  503  502  0.00000000000E+00  0.00000000000E+00  0.55699198220E+02  0.55699198220E+02  0.00000000000E+00 0.  1.
         21   -1    0    0  501  503 -0.00000000000E+00 -0.00000000000E+00 -0.81874992097E+03  0.81874992097E+03  0.00000000000E+00 0.  1.
          6    2    1    2  501    0  0.44569670890E+02 -0.25315198745E+02 -0.65324878693E+03  0.67743844285E+03  0.17193472999E+03 0.  0.
         24    2    3    3    0    0 -0.44499345197E+01 -0.52508503817E+02 -0.11072332103E+03  0.13200433253E+03  0.48872743898E+02 0.  0.
         -6    2    1    2    0  502 -0.44569670890E+02  0.25315198745E+02 -0.10980193582E+03  0.19701067634E+03  0.15533649484E+03 0.  0.
        -24    2    5    5    0    0 -0.61542064315E+02  0.64238357974E+02 -0.88553486155E+02  0.14929630664E+03  0.80831150860E+02 0.  0.
          5    1    3    3  501    0  0.49019605410E+02  0.27193305072E+02 -0.54252546590E+03  0.54543411032E+03  0.47000000000E+01 0. -1.
        -13    1    4    4    0    0 -0.13272567817E+02 -0.15626839302E+01 -0.52332622640E+02  0.54012095218E+02  0.00000000000E+00 0.  1.
         14    1    4    4    0    0  0.88226332972E+01 -0.50945819886E+02 -0.58390698392E+02  0.77992237312E+02  0.00000000000E+00 0. -1.
         -5    1    5    5    0  502  0.16972393425E+02 -0.38923159229E+02 -0.21248449667E+02  0.47714369703E+02  0.47000000000E+01 0.  1.
         13    1    6    6    0    0 -0.99423622848E+01  0.66072148800E+02 -0.37197913411E+02  0.76472636786E+02  0.00000000000E+00 0. -1.
        -14    1    6    6    0    0 -0.51599702030E+02 -0.18337908259E+01 -0.51355572745E+02  0.72823669849E+02  0.00000000000E+00 0.  1.
</event>
<event>
12    1  0.8219652E-002  0.1741069E+03  0.7818608E-02  0.1173712E+00
         21   -1    0    0  501  502  0.00000000000E+00  0.00000000000E+00  0.37096808625E+03  0.37096808625E+03  0.00000000000E+00 0.  1.
         21   -1    0    0  502  503 -0.00000000000E+00 -0.00000000000E+00 -0.82097033018E+02  0.82097033018E+02  0.00000000000E+00 0.  1.
         -6    2    1    2    0  503 -0.16634280963E+02 -0.12698448615E+02  0.12606988302E+03  0.21470102895E+03  0.17252526345E+03 0.  0.
        -24    2    3    3    0    0  0.50060639691E+02  0.11658043029E+02  0.10143464887E+03  0.13939873225E+03  0.80629032918E+02 0.  0.
          6    2    1    2  501    0  0.16634280963E+02  0.12698448615E+02  0.16280117021E+03  0.23836409032E+03  0.17284463726E+03 0.  0.
         24    2    5    5    0    0  0.76645350740E+01 -0.49461629195E+02  0.13592148067E+03  0.16988826010E+03  0.88781609303E+02 0.  0.
          5    1    5    5  501    0  0.89697458889E+01  0.62160077810E+02  0.26879689543E+02  0.68475830222E+02  0.47000000000E+01 0. -1.
        -11    1    6    6    0    0  0.40210677635E+02  0.27343171626E+01  0.57574752898E+02  0.70279636150E+02  0.00000000000E+00 0.  1.
         12    1    6    6    0    0 -0.32546142561E+02 -0.52195946358E+02  0.78346727773E+02  0.99608623946E+02  0.00000000000E+00 0. -1.
         -5    1    3    3    0  503 -0.66694920654E+02 -0.24356491644E+02  0.24635234153E+02  0.75302296698E+02  0.47000000000E+01 0.  1.
         11    1    4    4    0    0  0.13420607718E+02  0.12107488209E+02  0.10115264206E+03  0.10275485866E+03  0.00000000000E+00 0. -1.
        -12    1    4    4    0    0  0.36640031974E+02 -0.44944517989E+00  0.28200680522E+00  0.36643873592E+02  0.00000000000E+00 0.  1.
</event>
<event>
12    1  0.8219652E-002  0.3546917E+03  0.7818608E-02  0.1060758E+00
         21   -1    0    0  501  502  0.00000000000E+00  0.00000000000E+00  0.31268600615E+03  0.31268600615E+03  0.00000000000E+00 0. -1.
         21   -1    0    0  502  503 -0.00000000000E+00 -0.00000000000E+00 -0.60788307784E+03  0.60788307784E+03  0.00000000000E+00 0.  1.
         -6    2    1    2    0  503  0.34360346806E+01 -0.30994630324E+03 -0.41555770891E+03  0.54601215157E+03  0.17135502035E+03 0.  0.
        -24    2    3    3    0    0 -0.55543844897E+02 -0.11863415145E+03 -0.17300198205E+03  0.23147386098E+03  0.80568492136E+02 0.  0.
          6    2    1    2  501    0 -0.34360346806E+01  0.30994630324E+03  0.12036063721E+03  0.37455693242E+03  0.17241721319E+03 0.  0.
         24    2    5    5    0    0 -0.39101799426E+02  0.91835662324E+02  0.11576808514E+02  0.12818260372E+03  0.79586542881E+02 0.  0.
          5    1    5    5  501    0  0.35665764746E+02  0.21811064092E+03  0.10878382870E+03  0.24637432870E+03  0.47000000000E+01 0. -1.
        -11    1    6    6    0    0  0.62850314607E+01  0.23344224234E+02 -0.27991926928E+02  0.36986516444E+02  0.00000000000E+00 0.  1.
         12    1    6    6    0    0 -0.45386830887E+02  0.68491438090E+02  0.39568735441E+02  0.91196087274E+02  0.00000000000E+00 0. -1.
         -5    1    3    3    0  503  0.58979879578E+02 -0.19131215179E+03 -0.24255572686E+03  0.31453829059E+03  0.47000000000E+01 0.  1.
         11    1    4    4    0    0 -0.65755477503E+02 -0.12042736585E+03 -0.17337351623E+03  0.22109932021E+03  0.00000000000E+00 0. -1.
        -12    1    4    4    0    0  0.10211632606E+02  0.17932144023E+01  0.37153418223E+00  0.10374540762E+02  0.00000000000E+00 0.  1.
</event>
<event>
12    1  0.8219652E-002  0.2201692E+03  0.7818608E-02  0.1133882E+00
         21   -1    0    0  503  502  0.00000000000E+00  0.00000000000E+00  0.53725038356E+03  0.53725038356E+03  0.00000000000E+00 0. -1.
         21   -1    0    0  501  503 -0.00000000000E+00 -0.00000000000E+00 -0.98658717871E+02  0.98658717871E+02  0.00000000000E+00 0.  1.
          6    2    1    2  501    0  0.16055163627E+02  0.13596443559E+03  0.12454412648E+03  0.25237251513E+03  0.17157083355E+03 0.  0.
         24    2    3    3    0    0  0.10056763356E+02  0.14344393076E+03  0.15063379132E+03  0.22418237031E+03  0.83005399283E+02 0.  0.
         -6    2    1    2    0  502 -0.16055163627E+02 -0.13596443559E+03  0.31404753921E+03  0.38353658630E+03  0.17242494056E+03 0.  0.
        -24    2    5    5    0    0  0.20835534318E+02 -0.25093996713E+02  0.16071491240E+03  0.19069944710E+03  0.97330200328E+02 0.  0.
          5    1    3    3  501    0  0.59984002706E+01 -0.74794951678E+01 -0.26089664834E+02  0.28190144819E+02  0.47000000000E+01 0. -1.
        -13    1    4    4    0    0  0.35331725316E+02  0.54680563777E+02  0.98830623006E+02  0.11834604730E+03  0.00000000000E+00 0.  1.
         14    1    4    4    0    0 -0.25274961960E+02  0.88763366982E+02  0.51803168309E+02  0.10583632300E+03  0.00000000000E+00 0. -1.
         -5    1    5    5    0  502 -0.36890697945E+02 -0.11087043888E+03  0.15333262681E+03  0.19283713920E+03  0.47000000000E+01 0.  1.
         11    1    6    6    0    0 -0.14546678567E+02 -0.49265003412E+02  0.12419233573E+03  0.13439636406E+03  0.00000000000E+00 0. -1.
        -12    1    6    6    0    0  0.35382212885E+02  0.24171006699E+02  0.36522576671E+02  0.56303083043E+02  0.00000000000E+00 0.  1.
</event>
<event>
12    1  0.8219652E-002  0.1956885E+03  0.7818608E-02  0.1154382E+00
         21   -1    0    0  501  502  0.00000000000E+00  0.00000000000E+00  0.79191968407E+02  0.79191968407E+02  0.00000000000E+00 0. -1.
         21   -1    0    0  502  503 -0.00000000000E+00 -0.00000000000E+00 -0.13440727827E+04  0.13440727827E+04  0.00000000000E+00 0.  1.
         -6    2    1    2    0  503 -0.30251075326E+02 -0.81216298108E+02 -0.12078493289E+04  0.12235987901E+04  0.17545023015E+03 0.  0.
        -24    2    3    3    0    0 -0.88411102023E+02 -0.60260977815E+02 -0.83719169599E+03  0.84779181177E+03  0.80081907199E+02 0.  0.
          6    2    1    2  501    0  0.30251075326E+02  0.81216298108E+02 -0.57031485426E+02  0.19966596100E+03  0.17059510842E+03 0.  0.
         24    2    5    5    0    0  0.39512629375E+02  0.26650694981E+02 -0.94463855951E+02  0.13268496526E+03  0.80064801889E+02 0.  0.
          5    1    5    5  501    0 -0.92615540484E+01  0.54565603127E+02  0.37432370524E+02  0.66980995746E+02  0.47000000000E+01 0. -1.
        -13    1    6    6    0    0 -0.22251101841E+02  0.19577159156E+02 -0.41613106893E+02  0.51088426860E+02  0.00000000000E+00 0.  1.
         14    1    6    6    0    0  0.61763731216E+02  0.70735358250E+01 -0.52850749058E+02  0.81596538399E+02  0.00000000000E+00 0. -1.
         -5    1    3    3    0  503  0.58160026697E+02 -0.20955320293E+02 -0.37065763290E+03  0.37580697836E+03  0.47000000000E+01 0.  1.
         11    1    4    4    0    0 -0.14681726902E+02  0.17971710254E+02 -0.91782647100E+02  0.94670955329E+02  0.00000000000E+00 0. -1.
        -12    1    4    4    0    0 -0.73729375121E+02 -0.78232688069E+02 -0.74540904889E+03  0.75312085644E+03  0.00000000000E+00 0.  1.
</event>
<event>
12    1  0.8219652E-002  0.3219969E+03  0.7818608E-02  0.1074884E+00
         21   -1    0    0  503  502  0.00000000000E+00  0.00000000000E+00  0.72793837637E+03  0.72793837637E+03  0.00000000000E+00 0.  1.
         21   -1    0    0  501  503 -0.00000000000E+00 -0.00000000000E+00 -0.14307171563E+03  0.14307171563E+03  0.00000000000E+00 0.  1.
          6    2    1    2  501    0 -0.25052313875E+03 -0.10658742819E+03  0.25166083306E+03  0.40764401450E+03  0.16946310738E+03 0.  0.
         24    2    3    3    0    0 -0.20599808153E+03 -0.11204863789E+03  0.26208927478E+03  0.36134986878E+03  0.83023086326E+02 0.  0.
         -6    2    1    2    0  502  0.25052313875E+03  0.10658742819E+03  0.33320582767E+03  0.46336607750E+03  0.17192811081E+03 0.  0.
        -24    2    5    5    0    0  0.11324764383E+03 -0.76928155855E+01  0.10776716482E+03  0.17570444236E+03  0.79837841950E+02 0.  0.
          5    1    3    3  501    0 -0.44525057217E+02  0.54612096961E+01 -0.10428441717E+02  0.46294145722E+02  0.47000000000E+01 0. -1.
        -11    1    4    4    0    0 -0.11048760527E+03 -0.76675662630E+02  0.20327919389E+03  0.24373981789E+03  0.00000000000E+00 0.  1.
         12    1    4    4    0    0 -0.95510476265E+02 -0.35372975260E+02  0.58810080890E+02  0.11761005089E+03  0.00000000000E+00 0. -1.
         -5    1    5    5    0  502  0.13727549492E+03  0.11428024378E+03  0.22543866285E+03  0.28766163514E+03  0.47000000000E+01 0.  1.
         11    1    6    6    0    0  0.26099994224E+02 -0.85467142535E+01  0.79457566995E+02  0.84069976661E+02  0.00000000000E+00 0. -1.
        -12    1    6    6    0    0  0.87147649608E+02  0.85389866801E+00  0.28309597822E+02  0.91634465699E+02  0.00000000000E+00 0.  1.
</event>
<event>
12    1  0.8219652E-002  0.1810233E+03  0.7818608E-02  0.1167568E+00
         21   -1    0    0  501  502  0.00000000000E+00  0.00000000000E+00  0.11009873035E+03  0.11009873035E+03  0.00000000000E+00 0. -1.
         21   -1    0    0  502  503 -0.00000000000E+00 -0.00000000000E+00 -0.32975117681E+03  0.32975117681E+03  0.00000000000E+00 0. -1.
         -6    2    1    2    0  503 -0.98654580153E+01  0.42853877859E+02 -0.18284204334E+03  0.25512192686E+03  0.17240128376E+03 0.  0.
        -24    2    3    3    0    0  0.14402489585E+02  0.46203472825E+02 -0.20583749109E+03  0.22119503952E+03  0.64930579560E+02 0.  0.
          6    2    1    2  501    0  0.98654580153E+01 -0.42853877859E+02 -0.36810403116E+02  0.18472798030E+03  0.17560079390E+03 0.  0.
         24    2    5    5    0    0 -0.17600504365E+02  0.67279791922E+01 -0.67886896341E+02  0.11991611357E+03  0.97037107027E+02 0.  0.
          5    1    5    5  501    0  0.27465962380E+02 -0.49581857051E+02  0.31076493225E+02  0.64811866732E+02  0.47000000000E+01 0. -1.
        -13    1    6    6    0    0 -0.43199562751E+02 -0.24757204726E+02 -0.61026867439E+02  0.78761665531E+02  0.00000000000E+00 0.  1.
         14    1    6    6    0    0  0.25599058386E+02  0.31485183918E+02 -0.68600289014E+01  0.41154448036E+02  0.00000000000E+00 0. -1.
         -5    1    3    3    0  503 -0.24267947601E+02 -0.33495949665E+01  0.22995447750E+02  0.33926887337E+02  0.47000000000E+01 0.  1.
         11    1    4    4    0    0 -0.99525581502E+00  0.30712020782E+02 -0.26630999323E+02  0.40662376709E+02  0.00000000000E+00 0. -1.
        -12    1    4    4    0    0  0.15397745400E+02  0.15491452043E+02 -0.17920649177E+03  0.18053266281E+03  0.00000000000E+00 0.  1.
</event>
<event>
12    1  0.8219652E-002  0.2161375E+03  0.7818608E-02  0.1138263E+00
         21   -1    0    0  503  502  0.00000000000E+00  0.00000000000E+00  0.95784860528E+03  0.95784860528E+03  0.00000000000E+00 0. -1.
         21   -1    0    0  501  503 -0.00000000000E+00 -0.00000000000E+00 -0.97931481641E+02  0.97931481641E+02  0.00000000000E+00 0.  1.
          6    2    1    2  501    0  0.10648416029E+03  0.76089995978E+02  0.53277523248E+02  0.22260708379E+03  0.17200830035E+03 0.  0.
         24    2    3    3    0    0  0.14233128389E+03  0.65628316063E+02  0.58076180387E+02  0.18466528459E+03  0.78505760055E+02 0.  0.
         -6    2    1    2    0  502 -0.10648416029E+03 -0.76089995978E+02  0.80663960039E+03  0.83317300313E+03  0.16242304128E+03 0.  0.
        -24    2    5    5    0    0 -0.12445432720E+03 -0.10003475799E+03  0.67707620296E+03  0.70011270672E+03  0.78928987874E+02 0.  0.
          5    1    3    3  501    0 -0.35847123594E+02  0.10461679915E+02 -0.47986571387E+01  0.37941799205E+02  0.47000000000E+01 0.  1.
        -11    1    4    4    0    0  0.76526866450E+02 -0.28460250284E+01  0.44941718197E+02  0.88793125756E+02  0.00000000000E+00 0.  1.
         12    1    4    4    0    0  0.65804417437E+02  0.68474341092E+02  0.13134462190E+02  0.95872158832E+02  0.00000000000E+00 0. -1.
         -5    1    5    5    0  502  0.17970166912E+02  0.23944762009E+02  0.12956339743E+03  0.13306029641E+03  0.47000000000E+01 0.  1.
         13    1    6    6    0    0 -0.57758955587E+02 -0.44728888775E+01  0.29601758520E+03  0.30163307914E+03  0.00000000000E+00 0. -1.
        -14    1    6    6    0    0 -0.66695371618E+02 -0.95561869110E+02  0.38105861777E+03  0.39847962758E+03  0.00000000000E+00 0.  1.
</event>
<event>
12    1  0.8219652E-002  0.1918882E+03  0.7818608E-02  0.1157920E+00
         21   -1    0    0  503  502  0.00000000000E+00  0.00000000000E+00  0.52335075608E+03  0.52335075608E+03  0.00000000000E+00 0.  1.
         21   -1    0    0  501  503 -0.00000000000E+00 -0.00000000000E+00 -0.10247012235E+03  0.10247012235E+03  0.00000000000E+00 0. -1.
          6    2    1    2  501    0  0.55692393206E+02  0.50044273101E+02  0.32181974489E+02  0.19456809143E+03  0.17667764654E+03 0.  0.
         24    2    3    3    0    0  0.58900715355E+02  0.35885064304E+02  0.88103455364E+02  0.13660190690E+03  0.78363448198E+02 0.  0.
         -6    2    1    2    0  502 -0.55692393206E+02 -0.50044273101E+02  0.38869865924E+03  0.43125278699E+03  0.17113224904E+03 0.  0.
        -24    2    5    5    0    0 -0.48765701432E+02 -0.72550317948E+02  0.14587848000E+03  0.18724821622E+03  0.78356373570E+02 0.  0.
          5    1    3    3  501    0 -0.32083221491E+01  0.14159208797E+02 -0.55921480875E+02  0.57966184522E+02  0.47000000000E+01 0. -1.
        -11    1    4    4    0    0  0.28865123310E+02  0.44283621206E+02  0.11786967115E+02  0.54158720854E+02  0.00000000000E+00 0.  1.
         12    1    4    4    0    0  0.30035592045E+02 -0.83985569017E+01  0.76316488249E+02  0.82443186050E+02  0.00000000000E+00 0. -1.
         -5    1    5    5    0  502 -0.69266917743E+01  0.22506044847E+02  0.24282017924E+03  0.24400457077E+03  0.47000000000E+01 0.  1.
         13    1    6    6    0    0 -0.62338941026E+02 -0.59287175059E+02  0.75844967826E+02  0.11468902231E+03  0.00000000000E+00 0. -1.
        -14    1    6    6    0    0  0.13573239595E+02 -0.13263142890E+02  0.70033512179E+02  0.72559193907E+02  0.00000000000E+00 0.  1.
</event>
<event>
12    1  0.8219652E-002  0.2029021E+03  0.7818608E-02  0.1147897E+00
         21   -1    0    0  501  502  0.00000000000E+00  0.00000000000E+00  0.39706382445E+02  0.39706382445E+02  0.00000000000E+00 0.  1.
         21   -1    0    0  502  503 -0.00000000000E+00 -0.00000000000E+00 -0.11243368960E+04  0.11243368960E+04  0.00000000000E+00 0.  1.
         -6    2    1    2    0  503 -0.80061277239E+02  0.71003921919E+02 -0.72082165957E+03  0.74883450713E+03  0.17238877317E+03 0.  0.
        -24    2    3    3    0    0 -0.23907814341E+02  0.80180395993E+02 -0.26081549965E+03  0.28529898935E+03  0.79814215400E+02 0.  0.
          6    2    1    2  501    0  0.80061277239E+02 -0.71003921919E+02 -0.36380885400E+03  0.41520877134E+03  0.16908600328E+03 0.  0.
         24    2    5    5    0    0  0.71807257319E+02 -0.11345430026E+03 -0.27715289610E+03  0.31824739497E+03  0.80246595810E+02 0.  0.
          5    1    5    5  501    0  0.82540199196E+01  0.42450378345E+02 -0.86655957906E+02  0.96961376367E+02  0.47000000000E+01 0. -1.
        -11    1    6    6    0    0  0.81803415905E+02 -0.11217888018E+03 -0.21951996810E+03  0.25974009395E+03  0.00000000000E+00 0.  1.
         12    1    6    6    0    0 -0.99961585855E+01 -0.12754200833E+01 -0.57632928000E+02  0.58507301021E+02  0.00000000000E+00 0. -1.
         -5    1    3    3    0  503 -0.56153462898E+02 -0.91764740736E+01 -0.46000615992E+03  0.46353551777E+03  0.47000000000E+01 0.  1.
         11    1    4    4    0    0  0.26344489748E+02  0.51053917227E+02 -0.12380055358E+03  0.13648117699E+03  0.00000000000E+00 0. -1.
        -12    1    4    4    0    0 -0.50252304089E+02  0.29126478766E+02 -0.13701494607E+03  0.14881781237E+03  0.00000000000E+00 0.  1.
</event>
<event>
12    1  0.8219652E-002  0.1815232E+03  0.7818608E-02  0.1166594E+00
         21   -1    0    0  501  502  0.00000000000E+00  0.00000000000E+00  0.35829707845E+03  0.35829707845E+03  0.00000000000E+00 0. -1.
         21   -1    0    0  502  503 -0.00000000000E+00 -0.00000000000E+00 -0.16176239206E+03  0.16176239206E+03  0.00000000000E+00 0.  1.
         -6    2    1    2    0  503 -0.38194763951E+02  0.42740569215E+02 -0.73365097992E+02  0.19479562802E+03  0.17110611574E+03 0.  0.
        -24    2    3    3    0    0 -0.27457085802E+02  0.86621234500E+02 -0.88518576912E+02  0.14691527254E+03  0.74104176796E+02 0.  0.
          6    2    1    2  501    0  0.38194763951E+02 -0.42740569215E+02  0.26989978438E+03  0.32526384249E+03  0.17223552878E+03 0.  0.
         24    2    5    5    0    0  0.46246060808E+02 -0.69570261075E+02  0.99901192133E+02  0.15290878132E+03  0.80138179720E+02 0.  0.
          5    1    5    5  501    0 -0.80512968573E+01  0.26829691860E+02  0.16999859225E+03  0.17235506117E+03  0.47000000000E+01 0. -1.
        -13    1    6    6    0    0 -0.17055777301E+02 -0.34746985557E+02  0.56945970662E+02  0.68855617921E+02  0.00000000000E+00 0.  1.
         14    1    6    6    0    0  0.63301838109E+02 -0.34823275518E+02  0.42955221471E+02  0.84053163399E+02  0.00000000000E+00 0. -1.
         -5    1    3    3    0  503 -0.10737678149E+02 -0.43880665286E+02  0.15153478920E+02  0.47880355484E+02  0.47000000000E+01 0.  1.
         11    1    4    4    0    0 -0.23209303407E+02  0.14185063500E+02  0.59024389946E+01  0.27833910563E+02  0.00000000000E+00 0. -1.
        -12    1    4    4    0    0 -0.42477823952E+01  0.72436171000E+02 -0.94421015906E+02  0.11908136197E+03  0.00000000000E+00 0.  1.
</event>
<event>
12    1  0.8219652E-002  0.1987014E+03  0.7818608E-02  0.1150919E+00
         21   -1    0    0  501  502  0.00000000000E+00  0.00000000000E+00  0.87327859868E+02  0.87327859868E+02  0.00000000000E+00 0.  1.
         21   -1    0    0  502  503 -0.00000000000E+00 -0.00000000000E+00 -0.14089067003E+04  0.14089067003E+04  0.00000000000E+00 0.  1.
         -6    2    1    2    0  503 -0.11489602045E+02 -0.98402225401E+02 -0.12777697489E+04  0.12931271285E+04  0.17224177885E+03 0.  0.
        -24    2    3    3    0    0  0.18448162427E+02 -0.12665707193E+03 -0.87100307571E+03  0.88425572757E+03  0.82942662576E+02 0.  0.
          6    2    1    2  501    0  0.11489602045E+02  0.98402225401E+02 -0.43809091561E+02  0.20310743168E+03  0.17180914813E+03 0.  0.
         24    2    5    5    0    0  0.63098315979E+02  0.10646371597E+03 -0.31141323530E+02  0.14915366137E+03  0.77208240306E+02 0.  0.
          5    1    5    5  501    0 -0.51608713934E+02 -0.80614905676E+01 -0.12667768031E+02  0.53953770313E+02  0.47000000000E+01 0. -1.
        -11    1    6    6    0    0  0.20956735178E+02  0.67263289713E+02  0.18837457787E+02  0.72927256278E+02  0.00000000000E+00 0.  1.
         12    1    6    6    0    0  0.42141580801E+02  0.39200426256E+02 -0.49978781317E+02  0.76226405090E+02  0.00000000000E+00 0. -1.
         -5    1    3    3    0  503 -0.29937764472E+02  0.28254846531E+02 -0.40676667320E+03  0.40887140096E+03  0.47000000000E+01 0.  1.
         11    1    4    4    0    0  0.29464337881E+02 -0.39880428117E+02 -0.15039515730E+03  0.15835813555E+03  0.00000000000E+00 0. -1.
        -12    1    4    4    0    0 -0.11016175455E+02 -0.86776643816E+02 -0.72060791841E+03  0.72589759202E+03  0.00000000000E+00 0.  1.
</event>
<event>
12    1  0.8219652E-002  0.1845131E+03  0.7818608E-02  0.1163787E+00
         21   -1    0    0  501  502  0.00000000000E+00  0.00000000000E+00  0.17896414042E+03  0.17896414042E+03  0.00000000000E+00 0.  1.
         21   -1    0    0  502  503 -0.00000000000E+00 -0.00000000000E+00 -0.21374545432E+03  0.21374545432E+03  0.00000000000E+00 0. -1.
         -6    2    1    2    0  503  0.62524293391E+02  0.15612737311E+02 -0.84249272025E+02  0.20283746610E+03  0.17289318375E+03 0.  0.
        -24    2    3    3    0    0  0.67990562977E+02  0.25407716721E+02 -0.12245467136E+03  0.16274302430E+03  0.78878873576E+02 0.  0.
          6    2    1    2  501    0 -0.62524293391E+02 -0.15612737311E+02  0.49467958119E+02  0.18987212864E+03  0.17161381508E+03 0.  0.
         24    2    5    5    0    0 -0.64575064298E+00  0.11605779878E+02 -0.29201453058E+02  0.86041651493E+02  0.80095754010E+02 0.  0.
          5    1    5    5  501    0 -0.61878542748E+02 -0.27218517189E+02  0.78669411177E+02  0.10383047715E+03  0.47000000000E+01 0. -1.
        -13    1    6    6    0    0  0.32744698056E+02 -0.11217453694E+02 -0.29677029124E+02  0.45593558490E+02  0.00000000000E+00 0.  1.
         14    1    6    6    0    0 -0.33390448698E+02  0.22823233573E+02  0.47557606594E+00  0.40448093003E+02  0.00000000000E+00 0. -1.
         -5    1    3    3    0  503 -0.54662695860E+01 -0.97949794108E+01  0.38205399336E+02  0.40094441800E+02  0.47000000000E+01 0.  1.
         11    1    4    4    0    0  0.33343199488E+02  0.50485443484E+02 -0.49484296886E+02  0.78161656803E+02  0.00000000000E+00 0. -1.
        -12    1    4    4    0    0  0.34647363489E+02 -0.25077726763E+02 -0.72970374475E+02  0.84581367495E+02  0.00000000000E+00 0.  1.
</event>
<event>
12    1  0.8219652E-002  0.2402070E+03  0.7818608E-02  0.1120049E+00
         21   -1    0    0  501  502  0.00000000000E+00  0.00000000000E+00  0.65741336360E+02  0.65741336360E+02  0.00000000000E+00 0. -1.
         21   -1    0    0  502  503 -0.00000000000E+00 -0.00000000000E+00 -0.91097262360E+03  0.91097262360E+03  0.00000000000E+00 0. -1.
         -6    2    1    2    0  503  0.10246326767E+03 -0.13099862604E+03 -0.52933498553E+03  0.58128731956E+03  0.17332068465E+03 0.  0.
        -24    2    3    3    0    0  0.12052198243E+03 -0.52557437031E+02 -0.40054623093E+03  0.42934071504E+03  0.81291660373E+02 0.  0.
          6    2    1    2  501    0 -0.10246326767E+03  0.13099862604E+03 -0.31589630170E+03  0.39542664040E+03  0.17003644686E+03 0.  0.
         24    2    5    5    0    0 -0.12943419564E+03  0.65076270642E+02 -0.23117569385E+03  0.28464370267E+03  0.81189309889E+02 0.  0.
          5    1    5    5  501    0  0.26970927973E+02  0.65922355397E+02 -0.84720607856E+02  0.11078293773E+03  0.47000000000E+01 0. -1.
        -11    1    6    6    0    0 -0.49166012533E+02  0.59935510515E+02 -0.69714814314E+02  0.10425793756E+03  0.00000000000E+00 0.  1.
         12    1    6    6    0    0 -0.80268183106E+02  0.51407601271E+01 -0.16146087953E+03  0.18038576511E+03  0.00000000000E+00 0. -1.
         -5    1    3    3    0  503 -0.18058714762E+02 -0.78441189008E+02 -0.12878875461E+03  0.15194660452E+03  0.47000000000E+01 0.  1.
         11    1    4    4    0    0  0.12760444755E+02 -0.44486262060E+02 -0.13132088710E+03  0.13923732205E+03  0.00000000000E+00 0. -1.
        -12    1    4    4    0    0  0.10776153767E+03 -0.80711749708E+01 -0.26922534382E+03  0.29010339299E+03  0.00000000000E+00 0.  1.
</event>
<event>
12    1  0.8219652E-002  0.2021921E+03  0.7818608E-02  0.1148179E+00
         21   -1    0    0  501  502  0.00000000000E+00  0.00000000000E+00  0.71235069713E+02  0.71235069713E+02  0.00000000000E+00 0. -1.
         21   -1    0    0  502  503 -0.00000000000E+00 -0.00000000000E+00 -0.64505194125E+03  0.64505194125E+03  0.00000000000E+00 0. -1.
         -6    2    1    2    0  503  0.10685379450E+03  0.13646855085E+01 -0.40811745772E+03  0.45487177079E+03  0.17008489880E+03 0.  0.
        -24    2    3    3    0    0 -0.81748916338E+01  0.13699792358E+02 -0.21433659122E+03  0.22913549166E+03  0.79425348841E+02 0.  0.
          6    2    1    2  501    0 -0.10685379450E+03 -0.13646855085E+01 -0.16569941382E+03  0.26141524017E+03  0.17164508816E+03 0.  0.
         24    2    5    5    0    0 -0.11613712381E+03  0.18640991387E+01 -0.18984176429E+03  0.23492848235E+03  0.75234233974E+02 0.  0.
          5    1    5    5  501    0  0.92833293098E+01 -0.32287846472E+01  0.24142350471E+02  0.26486757817E+02  0.47000000000E+01 0. -1.
        -13    1    6    6    0    0  0.77718671517E+01  0.34202035257E+01 -0.32891546733E+00  0.84975229665E+01  0.00000000000E+00 0.  1.
         14    1    6    6    0    0 -0.12390899096E+03 -0.15561043870E+01 -0.18951284882E+03  0.22643095939E+03  0.00000000000E+00 0. -1.
         -5    1    3    3    0  503  0.11502868613E+03 -0.12335106849E+02 -0.19378086650E+03  0.22573627913E+03  0.47000000000E+01 0.  1.
         13    1    4    4    0    0  0.22729611230E+02  0.19625154364E+02 -0.18029157645E+03  0.18277536609E+03  0.00000000000E+00 0. -1.
        -14    1    4    4    0    0 -0.30904502864E+02 -0.59253620061E+01 -0.34045014770E+02  0.46360125570E+02  0.00000000000E+00 0.  1.
</event>
<event>
12    1  0.8219652E-002  0.2271802E+03  0.7818608E-02  0.1128657E+00
         21   -1    0    0  501  502  0.00000000000E+00  0.00000000000E+00  0.34137638202E+02  0.34137638202E+02  0.00000000000E+00 0. -1.
         21   -1    0    0  502  503 -0.00000000000E+00 -0.00000000000E+00 -0.22413332162E+04  0.22413332162E+04  0.00000000000E+00 0. -1.
         -6    2    1    2    0  503 -0.13156256981E+03  0.69819370440E+02 -0.17531040235E+04  0.17677625819E+04  0.17154408976E+03 0.  0.
        -24    2    3    3    0    0 -0.10397058727E+03  0.65737310836E+02 -0.74266569827E+03  0.75692843147E+03  0.79101415502E+02 0.  0.
          6    2    1    2  501    0  0.13156256981E+03 -0.69819370440E+02 -0.45409155452E+03  0.50770827246E+03  0.17142081487E+03 0.  0.
         24    2    5    5    0    0  0.99319611490E+02 -0.11399318559E+03 -0.31868569983E+03  0.36159951231E+03  0.79591459599E+02 0.  0.
          5    1    5    5  501    0  0.32242958318E+02  0.44173815152E+02 -0.13540585469E+03  0.14610876015E+03  0.47000000000E+01 0. -1.
        -13    1    6    6    0    0  0.13586807121E+02 -0.39139060949E+02 -0.16641862934E+03  0.17149818545E+03  0.00000000000E+00 0.  1.
         14    1    6    6    0    0  0.85732804368E+02 -0.74854124644E+02 -0.15226707048E+03  0.19010132686E+03  0.00000000000E+00 0. -1.
         -5    1    3    3    0  503 -0.27591982540E+02  0.40820596043E+01 -0.10104383252E+04  0.10108341505E+04  0.47000000000E+01 0.  1.
         11    1    4    4    0    0 -0.25104618925E+02  0.55821585344E+02 -0.22418667670E+03  0.23239181847E+03  0.00000000000E+00 0. -1.
        -12    1    4    4    0    0 -0.78865968342E+02  0.99157254922E+01 -0.51847902156E+03  0.52453661300E+03  0.00000000000E+00 0.  1.
</event>
<event>
12    1  0.8219652E-002  0.2220414E+03  0.7818608E-02  0.1132620E+00
         21   -1    0    0  503  502  0.00000000000E+00  0.00000000000E+00  0.46376225311E+03  0.46376225311E+03  0.00000000000E+00 0.  1.
         21   -1    0    0  501  503 -0.00000000000E+00 -0.00000000000E+00 -0.15884234597E+03  0.15884234597E+03  0.00000000000E+00 0.  1.
          6    2    1    2  501    0 -0.10030323552E+03  0.98471052021E+02 -0.27353926173E+02  0.22371994937E+03  0.17188685618E+03 0.  0.
         24    2    3    3    0    0 -0.13353787584E+01  0.85166326468E+02  0.70920111889E+01  0.11798317717E+03  0.81330480588E+02 0.  0.
         -6    2    1    2    0  502  0.10030323552E+03 -0.98471052021E+02  0.33227383331E+03  0.39888464971E+03  0.17013458298E+03 0.  0.
        -24    2    5    5    0    0  0.90068770162E+02 -0.51363353832E+02  0.10857783888E+03  0.17000505814E+03  0.79762116468E+02 0.  0.
          5    1    3    3  501    0 -0.98967856765E+02  0.13304725554E+02 -0.34445937362E+02  0.10573677220E+03  0.47000000000E+01 0. -1.
        -13    1    4    4    0    0 -0.36960360759E+02  0.16663245540E+02  0.33094711257E+01  0.40677814820E+02  0.00000000000E+00 0.  1.
         14    1    4    4    0    0  0.35624982001E+02  0.68503080928E+02  0.37825400632E+01  0.77305362353E+02  0.00000000000E+00 0. -1.
         -5    1    5    5    0  502  0.10234465362E+02 -0.47107698189E+02  0.22369599443E+03  0.22887959157E+03  0.47000000000E+01 0.  1.
         11    1    6    6    0    0 -0.14192346848E+02 -0.19082458153E+01  0.19674956195E+02  0.24334502510E+02  0.00000000000E+00 0. -1.
        -12    1    6    6    0    0  0.10426111701E+03 -0.49455108017E+02  0.88902882682E+02  0.14567055563E+03  0.00000000000E+00 0.  1.
</event>
<event>
12    1  0.8219652E-002  0.2232234E+03  0.7818608E-02  0.1131566E+00
         21   -1    0    0  503  502  0.00000000000E+00  0.00000000000E+00  0.13542063730E+03  0.13542063730E+03  0.00000000000E+00 0. -1.
         21   -1    0    0  501  503 -0.00000000000E+00 -0.00000000000E+00 -0.42430393674E+03  0.42430393674E+03  0.00000000000E+00 0.  1.
          6    2    1    2  501    0 -0.17028042639E+01 -0.14104212472E+03 -0.24685172550E+03  0.33257845486E+03  0.17255976868E+03 0.  0.
         24    2    3    3    0    0  0.32250270165E+02 -0.11115315306E+03 -0.25081911956E+03  0.28692769248E+03  0.77602619904E+02 0.  0.
         -6    2    1    2    0  502  0.17028042639E+01  0.14104212472E+03 -0.42031573941E+02  0.22714611919E+03  0.17301134577E+03 0.  0.
        -24    2    5    5    0    0  0.35268747334E+01  0.80261777021E+02 -0.93733480825E+02  0.14719141279E+03  0.80155816229E+02 0.  0.
          5    1    3    3  501    0 -0.33953074429E+02 -0.29888971661E+02  0.39673940586E+01  0.45650762379E+02  0.47000000000E+01 0. -1.
        -11    1    4    4    0    0 -0.10248075095E+02 -0.30995242847E+02 -0.13975376395E+03  0.14351600141E+03  0.00000000000E+00 0.  1.
         12    1    4    4    0    0  0.42498345260E+02 -0.80157910216E+02 -0.11106535561E+03  0.14341169107E+03  0.00000000000E+00 0. -1.
         -5    1    5    5    0  502 -0.18240704695E+01  0.60780347703E+02  0.51701906883E+02  0.79954706399E+02  0.47000000000E+01 0.  1.
         13    1    6    6    0    0  0.43024537472E+01  0.10275091105E+02  0.14508689199E+02  0.18291819695E+02  0.00000000000E+00 0. -1.
        -14    1    6    6    0    0 -0.77557901372E+00  0.69986685916E+02 -0.10824217002E+03  0.12889959309E+03  0.00000000000E+00 0.  1.
</event>
<event>
12    1  0.8219652E-002  0.2030668E+03  0.7818608E-02  0.1148311E+00
         21   -1    0    0  501  502  0.00000000000E+00  0.00000000000E+00  0.11734275183E+03  0.11734275183E+03  0.00000000000E+00 0. -1.
         21   -1    0    0  502  503 -0.00000000000E+00 -0.00000000000E+00 -0.34453357480E+03  0.34453357480E+03  0.00000000000E+00 0. -1.
         -6    2    1    2    0  503  0.50101280596E+02 -0.82771398824E+02 -0.13442352651E+03  0.24352785674E+03  0.17853540195E+03 0.  0.
        -24    2    3    3    0    0 -0.55963701952E+01 -0.10280297438E+03 -0.13011127255E+03  0.18399485869E+03  0.79532344870E+02 0.  0.
          6    2    1    2  501    0 -0.50101280596E+02  0.82771398824E+02 -0.92767296458E+02  0.21834846989E+03  0.17236310577E+03 0.  0.
         24    2    5    5    0    0 -0.64279671734E+02  0.11981919812E+03 -0.64712186391E+02  0.16953509663E+03  0.77884308333E+02 0.  0.
          5    1    5    5  501    0  0.14178391138E+02 -0.37047799298E+02 -0.28055110067E+02  0.48813373259E+02  0.47000000000E+01 0. -1.
        -13    1    6    6    0    0 -0.86811800577E+01 -0.82481494986E+01  0.55938761305E+01  0.13216894776E+02  0.00000000000E+00 0.  1.
         14    1    6    6    0    0 -0.55598491677E+02  0.12806734762E+03 -0.70306062521E+02  0.15631820185E+03  0.00000000000E+00 0. -1.
         -5    1    3    3    0  503  0.55697650792E+02  0.20031575551E+02 -0.43122539542E+01  0.59532998051E+02  0.47000000000E+01 0.  1.
         13    1    4    4    0    0 -0.45714307696E+01  0.89706718112E+01 -0.37522514568E+02  0.38849839530E+02  0.00000000000E+00 0. -1.
        -14    1    4    4    0    0 -0.10249394255E+01 -0.11177364619E+03 -0.92588757983E+02  0.14514501916E+03  0.00000000000E+00 0.  1.
</event>
<event>
12    1  0.8219652E-002  0.2986462E+03  0.7818608E-02  0.1085993E+00
         21   -1    0    0  501  502  0.00000000000E+00  0.00000000000E+00  0.12760570780E+04  0.12760570780E+04  0.00000000000E+00 0.  1.
         21   -1    0    0  502  503 -0.00000000000E+00 -0.00000000000E+00 -0.69794067058E+02  0.69794067058E+02  0.00000000000E+00 0. -1.
         -6    2    1    2    0  503  0.24263468054E+03 -0.26273168513E+02  0.58714488328E+03  0.65846711992E+03  0.17110805493E+03 0.  0.
        -24    2    3    3    0    0  0.17166639166E+03 -0.24546217977E+02  0.25428880504E+03  0.31809270958E+03  0.80301361645E+02 0.  0.
          6    2    1    2  501    0 -0.24263468054E+03  0.26273168513E+02  0.61911812763E+03  0.68738402511E+03  0.17212691373E+03 0.  0.
         24    2    5    5    0    0 -0.51126857156E+02  0.28047949291E+02  0.28582286100E+03  0.30295429027E+03  0.81767665649E+02 0.  0.
          5    1    5    5  501    0 -0.19150782339E+03 -0.17747807777E+01  0.33329526664E+03  0.38442973484E+03  0.47000000000E+01 0. -1.
        -11    1    6    6    0    0 -0.50178389968E+02 -0.90797905914E+01  0.23214984660E+03  0.23768438041E+03  0.00000000000E+00 0.  1.
         12    1    6    6    0    0 -0.94846718810E+00  0.37127739882E+02  0.53673014400E+02  0.65269909863E+02  0.00000000000E+00 0. -1.
         -5    1    3    3    0  503  0.70968288888E+02 -0.17269505361E+01  0.33285607824E+03  0.34037441033E+03  0.47000000000E+01 0.  1.
         11    1    4    4    0    0  0.32276017133E+01  0.11394032019E+01 -0.60513315796E+01  0.69522849742E+01  0.00000000000E+00 0. -1.
        -12    1    4    4    0    0  0.16843878994E+03 -0.25685621179E+02  0.26034013662E+03  0.31114042461E+03  0.00000000000E+00 0.  1.
</event>
<event>
12    1  0.8219652E-002  0.2321938E+03  0.7818608E-02  0.1125153E+00
         21   -1    0    0  503  502  0.00000000000E+00  0.00000000000E+00  0.11503854709E+04  0.11503854709E+04  0.00000000000E+00 0.  1.
         21   -1    0    0  501  503 -0.00000000000E+00 -0.00000000000E+00 -0.48462112690E+02  0.48462112690E+02  0.00000000000E+00 0. -1.
          6    2    1    2  501    0  0.42085638663E+02 -0.14931566982E+03  0.43999889902E+03  0.49737917259E+03  0.17239675157E+03 0.  0.
         24    2    3    3    0    0 -0.23942888307E+02 -0.78337401131E+02  0.33796972953E+03  0.35656112535E+03  0.78754604437E+02 0.  0.
         -6    2    1    2    0  502 -0.42085638663E+02  0.14931566982E+03  0.66192445918E+03  0.70146841099E+03  0.17276449787E+03 0.  0.
        -24    2    5    5    0    0 -0.24674646560E+02  0.13555752384E+03  0.30547017637E+03  0.34429313895E+03  0.79000357106E+02 0.  0.
          5    1    3    3  501    0  0.66028526970E+02 -0.70978268687E+02  0.10202916949E+03  0.14081804724E+03  0.47000000000E+01 0. -1.
        -13    1    4    4    0    0 -0.45023675058E+02 -0.24184323848E+02  0.20808102073E+03  0.21426554558E+03  0.00000000000E+00 0.  1.
         14    1    4    4    0    0  0.21080786752E+02 -0.54153077283E+02  0.12988870880E+03  0.14229557977E+03  0.00000000000E+00 0. -1.
         -5    1    5    5    0  502 -0.17410992104E+02  0.13758145978E+02  0.35645428281E+03  0.35717527204E+03  0.47000000000E+01 0.  1.
         13    1    6    6    0    0 -0.34604190486E+02  0.20912819451E+02  0.51551999268E+02  0.65516445608E+02  0.00000000000E+00 0. -1.
        -14    1    6    6    0    0  0.99295439260E+01  0.11464470439E+03  0.25391817711E+03  0.27877669334E+03  0.00000000000E+00 0.  1.
</event>
<event>
12    1  0.8219652E-002  0.1749409E+03  0.7818608E-02  0.1175403E+00
         21   -1    0    0  503  502  0.00000000000E+00  0.00000000000E+00  0.50428536332E+02  0.50428536332E+02  0.00000000000E+00 0.  1.
         21   -1    0    0  501  503 -0.00000000000E+00 -0.00000000000E+00 -0.58083130304E+03  0.58083130304E+03  0.00000000000E+00 0.  1.
          6    2    1    2  501    0 -0.26387852772E+02 -0.24339813508E+02 -0.31088401382E+03  0.35672565073E+03  0.17121791537E+03 0.  0.
         24    2    3    3    0    0 -0.52715426241E+02  0.32063728790E+02 -0.14031108950E+03  0.17508943953E+03  0.84629256936E+02 0.  0.
         -6    2    1    2    0  502  0.26387852772E+02  0.24339813508E+02 -0.21951875290E+03  0.27453418865E+03  0.16090926813E+03 0.  0.
        -24    2    5    5    0    0 -0.45807078742E+02  0.13760695921E+02 -0.12458876459E+03  0.15471007361E+03  0.78263665898E+02 0.  0.
          5    1    3    3  501    0  0.26327573470E+02 -0.56403542298E+02 -0.17057292431E+03  0.18163621120E+03  0.47000000000E+01 0. -1.
        -13    1    4    4    0    0 -0.22454515357E+02  0.45480422433E+02 -0.27863680923E+02  0.57871053206E+02  0.00000000000E+00 0.  1.
         14    1    4    4    0    0 -0.30260910884E+02 -0.13416693643E+02 -0.11244740858E+03  0.11721838632E+03  0.00000000000E+00 0. -1.
         -5    1    5    5    0  502  0.72194931513E+02  0.10579117587E+02 -0.94929988307E+02  0.11982411504E+03  0.47000000000E+01 0.  1.
         11    1    6    6    0    0 -0.23492590258E+02 -0.13176100700E+02 -0.17544126824E+01  0.26992395050E+02  0.00000000000E+00 0. -1.
        -12    1    6    6    0    0 -0.22314488484E+02  0.26936796622E+02 -0.12283435191E+03  0.12771767856E+03  0.00000000000E+00 0.  1.
</event>
<event>
12    1  0.8219652E-002  0.2536038E+03  0.7818608E-02  0.1111059E+00
         21   -1    0    0  503  502  0.00000000000E+00  0.00000000000E+00  0.34748194731E+03  0.34748194731E+03  0.00000000000E+00 0.  1.
         21   -1    0    0  501  503 -0.00000000000E+00 -0.00000000000E+00 -0.20664634383E+03  0.20664634383E+03  0.00000000000E+00 0. -1.
          6    2    1    2  501    0 -0.27664192424E+02  0.18385927080E+03  0.16000245786E+03  0.29980120221E+03  0.17236715268E+03 0.  0.
         24    2    3    3    0    0  0.28976473531E+02  0.16356214116E+03  0.81722980498E+02  0.20095837198E+03  0.78188309159E+02 0.  0.
         -6    2    1    2    0  502  0.27664192424E+02 -0.18385927080E+03 -0.19166854378E+02  0.25432708894E+03  0.17246843438E+03 0.  0.
        -24    2    5    5    0    0 -0.20458943505E+02 -0.48626656650E+02 -0.48609511136E+02  0.10772335031E+03  0.80363645530E+02 0.  0.
          5    1    3    3  501    0 -0.56640665955E+02  0.20297129642E+02  0.78279477358E+02  0.98842830226E+02  0.47000000000E+01 0. -1.
        -11    1    4    4    0    0 -0.25262492111E+01  0.61562809326E+02  0.70479156271E+02  0.93614490844E+02  0.00000000000E+00 0.  1.
         12    1    4    4    0    0  0.31502722743E+02  0.10199933183E+03  0.11243824227E+02  0.10734388114E+03  0.00000000000E+00 0. -1.
         -5    1    5    5    0  502  0.48123135929E+02 -0.13523261415E+03  0.29442656758E+02  0.14660373863E+03  0.47000000000E+01 0.  1.
         13    1    6    6    0    0  0.17854787561E+02 -0.32976642735E+01 -0.44695223039E+02  0.48242419001E+02  0.00000000000E+00 0. -1.
        -14    1    6    6    0    0 -0.38313731067E+02 -0.45328992377E+02 -0.39142880970E+01  0.59480931309E+02  0.00000000000E+00 0.  1.
</event>
<event>
12    1  0.8219652E-002  0.1937190E+03  0.7818608E-02  0.1155977E+00
         21   -1    0    0  503  502  0.00000000000E+00  0.00000000000E+00  0.61394670589E+02  0.61394670589E+02  0.00000000000E+00 0. -1.
         21   -1    0    0  501  503 -0.00000000000E+00 -0.00000000000E+00 -0.62046535729E+03  0.62046535729E+03  0.00000000000E+00 0. -1.
          6    2    1    2  501    0  0.41406247232E+02  0.80015630351E+02 -0.21431926741E+03  0.28641018745E+03  0.16727542761E+03 0.  0.
         24    2    3    3    0    0  0.71987993255E+02  0.31536966167E+02 -0.72229860323E+02  0.13312315709E+03  0.79547286710E+02 0.  0.
         -6    2    1    2    0  502 -0.41406247232E+02 -0.80015630351E+02 -0.34475141929E+03  0.39544984043E+03  0.17149360566E+03 0.  0.
        -24    2    5    5    0    0 -0.12557267733E+02  0.15012285544E+02 -0.24191488101E+03  0.25241134203E+03  0.69322595476E+02 0.  0.
          5    1    3    3  501    0 -0.30581746023E+02  0.48478664184E+02 -0.14208940709E+03  0.15328703036E+03  0.47000000000E+01 0. -1.
        -11    1    4    4    0    0  0.22295689839E+02  0.45035730991E+02 -0.63364284691E+02  0.80872414492E+02  0.00000000000E+00 0.  1.
         12    1    4    4    0    0  0.49692303416E+02 -0.13498764824E+02 -0.88655756310E+01  0.52250742596E+02  0.00000000000E+00 0. -1.
         -5    1    5    5    0  502 -0.28848979499E+02 -0.95027915895E+02 -0.10283653828E+03  0.14303849840E+03  0.47000000000E+01 0.  1.
         13    1    6    6    0    0 -0.40508899217E+02  0.92990264793E+01 -0.17086859069E+03  0.17585084047E+03  0.00000000000E+00 0. -1.
        -14    1    6    6    0    0  0.27951631484E+02  0.57132590650E+01 -0.71046290317E+02  0.76560501563E+02  0.00000000000E+00 0.  1.
</event>
<event>
12    1  0.8219652E-002  0.2279219E+03  0.7818608E-02  0.1128123E+00
         21   -1    0    0  501  502  0.00000000000E+00  0.00000000000E+00  0.64273847700E+03  0.64273847700E+03  0.00000000000E+00 0.  1.
         21   -1    0    0  502  503 -0.00000000000E+00 -0.00000000000E+00 -0.80966693006E+02  0.80966693006E+02  0.00000000000E+00 0.  1.
         -6    2    1    2    0  503  0.91914816420E+02  0.11637715506E+03  0.26442752056E+03  0.34905598302E+03  0.17299187831E+03 0.  0.
        -24    2    3    3    0    0  0.10719391710E+02  0.12061490826E+03  0.18253645271E+03  0.23356185963E+03  0.81047666534E+02 0.  0.
          6    2    1    2  501    0 -0.91914816420E+02 -0.11637715506E+03  0.29734426344E+03  0.37464918698E+03  0.17307924951E+03 0.  0.
         24    2    5    5    0    0 -0.43266546871E+02 -0.66026956778E+02  0.59345768252E+02  0.12652186018E+03  0.79084181693E+02 0.  0.
          5    1    5    5  501    0 -0.48648269550E+02 -0.50350198278E+02  0.23799849518E+03  0.24812732680E+03  0.47000000000E+01 0. -1.
        -13    1    6    6    0    0 -0.56326174940E+02 -0.14384379001E+02  0.35873001481E+02  0.68311203897E+02  0.00000000000E+00 0.  1.
         14    1    6    6    0    0  0.13059628069E+02 -0.51642577777E+02  0.23472766770E+02  0.58210656281E+02  0.00000000000E+00 0. -1.
         -5    1    3    3    0  503  0.81195424711E+02 -0.42377532041E+01  0.81891067841E+02  0.11549412339E+03  0.47000000000E+01 0.  1.
         13    1    4    4    0    0 -0.16236128308E+02  0.71167617992E+00  0.38648819760E+01  0.16704959087E+02  0.00000000000E+00 0. -1.
        -14    1    4    4    0    0  0.26955520017E+02  0.11990323208E+03  0.17867157074E+03  0.21685690054E+03  0.00000000000E+00 0.  1.
</event>
<event>
12    1  0.8219652E-002  0.2540748E+03  0.7818608E-02  0.1110866E+00
         21   -1    0    0  501  502  0.00000000000E+00  0.00000000000E+00  0.16436146241E+03  0.16436146241E+03  0.00000000000E+00 0. -1.
         21   -1    0    0  502  503 -0.00000000000E+00 -0.00000000000E+00 -0.55868176046E+03  0.55868176046E+03  0.00000000000E+00 0. -1.
         -6    2    1    2    0  503  0.18444762239E+03  0.25762778149E+02 -0.39463553636E+03  0.46896827091E+03  0.17178296311E+03 0.  0.
        -24    2    3    3    0    0  0.16080899330E+03  0.83682485517E+01 -0.19276621392E+03  0.26492252166E+03  0.84235202510E+02 0.  0.
          6    2    1    2  501    0 -0.18444762239E+03 -0.25762778149E+02  0.31523830998E+00  0.25407495197E+03  0.17282747380E+03 0.  0.
         24    2    5    5    0    0 -0.19373983979E+03 -0.32024199887E+02 -0.37106479688E+02  0.21472999442E+03  0.78558288981E+02 0.  0.
          5    1    5    5  501    0  0.92922174024E+01  0.62614217381E+01  0.37421717998E+02  0.39344957546E+02  0.47000000000E+01 0. -1.
        -13    1    6    6    0    0 -0.85200975789E+02 -0.16850221548E+02 -0.56250831565E+02  0.10347604695E+03  0.00000000000E+00 0.  1.
         14    1    6    6    0    0 -0.10853886401E+03 -0.15173978339E+02  0.19144351878E+02  0.11125394747E+03  0.00000000000E+00 0. -1.
         -5    1    3    3    0  503  0.23638629096E+02  0.17394529597E+02 -0.20186932244E+03  0.20404574925E+03  0.47000000000E+01 0.  1.
         13    1    4    4    0    0  0.12691536890E+03 -0.27139525458E+02 -0.15946870750E+03  0.20560723085E+03  0.00000000000E+00 0. -1.
        -14    1    4    4    0    0  0.33893624392E+02  0.35507774009E+02 -0.33297506426E+02  0.59315290809E+02  0.00000000000E+00 0.  1.
</event>
<event>
12    1  0.8219652E-002  0.1943475E+03  0.7818608E-02  0.1155356E+00
         21   -1    0    0  503  502  0.00000000000E+00  0.00000000000E+00  0.24979171763E+03  0.24979171763E+03  0.00000000000E+00 0.  1.
         21   -1    0    0  501  503 -0.00000000000E+00 -0.00000000000E+00 -0.26620245119E+03  0.26620245119E+03  0.00000000000E+00 0.  1.
          6    2    1    2  501    0  0.84315139302E+02  0.32373581999E+02 -0.17967824251E+03  0.26216896670E+03  0.16819989519E+03 0.  0.
         24    2    3    3    0    0  0.28939245551E+02  0.12320480620E+02 -0.18436481657E+03  0.20290118067E+03  0.78671655347E+02 0.  0.
         -6    2    1    2    0  502 -0.84315139302E+02 -0.32373581999E+02  0.16326750895E+03  0.25382520212E+03  0.17208678690E+03 0.  0.
        -24    2    5    5    0    0  0.23528318104E+02 -0.10114191914E+02  0.72744626264E+02  0.11119920855E+03  0.80109953820E+02 0.  0.
          5    1    3    3  501    0  0.55375893751E+02  0.20053101379E+02  0.46865740615E+01  0.59267786023E+02  0.47000000000E+01 0. -1.
        -13    1    4    4    0    0 -0.71816682851E+01  0.18977832877E+02 -0.15375750705E+03  0.15509063632E+03  0.00000000000E+00 0.  1.
         14    1    4    4    0    0  0.36120913836E+02 -0.66573522575E+01 -0.30607309517E+02  0.47810544353E+02  0.00000000000E+00 0. -1.
         -5    1    5    5    0  502 -0.10784345741E+03 -0.22259390085E+02  0.90522882684E+02  0.14262599357E+03  0.47000000000E+01 0.  1.
         11    1    6    6    0    0 -0.63575984737E+01 -0.15903109498E+02 -0.12158508074E+02  0.21003744158E+02  0.00000000000E+00 0. -1.
        -12    1    6    6    0    0  0.29885916578E+02  0.57889175848E+01  0.84903134338E+02  0.90195464392E+02  0.00000000000E+00 0.  1.
</event>
<event>
12    1  0.8219652E-002  0.2340377E+03  0.7818608E-02  0.1123831E+00
         21   -1    0    0  503  502  0.00000000000E+00  0.00000000000E+00  0.86656556954E+02  0.86656556954E+02  0.00000000000E+00 0.  1.
         21   -1    0    0  501  503 -0.00000000000E+00 -0.00000000000E+00 -0.65043868164E+03  0.65043868164E+03  0.00000000000E+00 0.  1.
          6    2    1    2  501    0 -0.47616737562E+02  0.15140796673E+03 -0.34383925550E+03  0.41593160054E+03  0.17199400171E+03 0.  0.
         24    2    3    3    0    0 -0.36221930947E+02  0.16733435589E+03 -0.34742315579E+03  0.39547614086E+03  0.79910661826E+02 0.  0.
         -6    2    1    2    0  502  0.47616737562E+02 -0.15140796673E+03 -0.21994286918E+03  0.32116363804E+03  0.17198689081E+03 0.  0.
        -24    2    5    5    0    0  0.86435304708E+02 -0.99656572271E+02 -0.94224601514E+02  0.17969893994E+03  0.77530246930E+02 0.  0.
          5    1    3    3  501    0 -0.11394806615E+02 -0.15926389160E+02  0.35839002863E+01  0.20455459681E+02  0.47000000000E+01 0. -1.
        -11    1    4    4    0    0 -0.59989302324E+02  0.91252098708E+02 -0.20416852280E+03  0.23153930036E+03  0.00000000000E+00 0.  1.
         12    1    4    4    0    0  0.23767371378E+02  0.76082257184E+02 -0.14325463299E+03  0.16393684050E+03  0.00000000000E+00 0. -1.
         -5    1    5    5    0  502 -0.38818567146E+02 -0.51751394460E+02 -0.12571826767E+03  0.14146469810E+03  0.47000000000E+01 0.  1.
         11    1    6    6    0    0  0.54069835196E+02 -0.20553376707E+02 -0.70113104788E+02  0.90894641400E+02  0.00000000000E+00 0. -1.
        -12    1    6    6    0    0  0.32365469512E+02 -0.79103195564E+02 -0.24111496726E+02  0.88804298542E+02  0.00000000000E+00 0.  1.
</event>
<event>
12    1  0.8219652E-002  0.1902271E+03  0.7818608E-02  0.1160913E+00
         21   -1    0    0  503  502  0.00000000000E+00  0.00000000000E+00  0.68522537202E+03  0.68522537202E+03  0.00000000000E+00 0.  1.
         21   -1    0    0  501  503 -0.00000000000E+00 -0.00000000000E+00 -0.63811847943E+02  0.63811847943E+02  0.00000000000E+00 0.  1.
          6    2    1    2  501    0  0.42378794424E+02 -0.20799449013E+02  0.12709536694E+03  0.21937999541E+03  0.17246962281E+03 0.  0.
         24    2    3    3    0    0  0.37826722107E+02 -0.65523209912E+02  0.31208388148E+02  0.11337368025E+03  0.78456841260E+02 0.  0.
         -6    2    1    2    0  502 -0.42378794424E+02  0.20799449013E+02  0.49431815714E+03  0.52965722455E+03  0.18427630274E+03 0.  0.
        -24    2    5    5    0    0  0.51049135562E+02  0.25236966061E+02  0.30470976704E+03  0.31818169109E+03  0.71753938685E+02 0.  0.
          5    1    3    3  501    0  0.45520723170E+01  0.44723760899E+02  0.95886978791E+02  0.10600631516E+03  0.47000000000E+01 0. -1.
        -13    1    4    4    0    0 -0.12452073641E+02 -0.43252143342E+02 -0.81612840503E+01  0.45742852983E+02  0.00000000000E+00 0.  1.
         14    1    4    4    0    0  0.50278795748E+02 -0.22271066570E+02  0.39369672198E+02  0.67630827269E+02  0.00000000000E+00 0. -1.
         -5    1    5    5    0  502 -0.93427929986E+02 -0.44375170478E+01  0.18960839009E+03  0.21147553346E+03  0.47000000000E+01 0.  1.
         11    1    6    6    0    0 -0.18385763834E+01  0.33163589359E+02  0.70335222769E+02  0.77783337446E+02  0.00000000000E+00 0. -1.
        -12    1    6    6    0    0  0.52887711945E+02 -0.79266232977E+01  0.23437454427E+03  0.24039835365E+03  0.00000000000E+00 0.  1.
</event>
<event>
12    1  0.8219652E-002  0.2113457E+03  0.7818608E-02  0.1141524E+00
         21   -1    0    0  501  502  0.00000000000E+00  0.00000000000E+00  0.87510418206E+02  0.87510418206E+02  0.00000000000E+00 0. -1.
         21   -1    0    0  502  503 -0.00000000000E+00 -0.00000000000E+00 -0.15098168228E+04  0.15098168228E+04  0.00000000000E+00 0. -1.
         -6    2    1    2    0  503  0.49699039719E+02 -0.10223072421E+03 -0.60275321751E+02  0.21977286209E+03  0.17817373818E+03 0.  0.
        -24    2    3    3    0    0  0.75677122577E+02 -0.93509294813E+02  0.99391202373E+01  0.14425410956E+03  0.78990169741E+02 0.  0.
          6    2    1    2  501    0 -0.49699039719E+02  0.10223072421E+03 -0.13620310828E+04  0.13775543789E+04  0.17206475735E+03 0.  0.
         24    2    5    5    0    0 -0.47164931113E+01  0.12491162125E+03 -0.84085844743E+03  0.85393155809E+03  0.80814719296E+02 0.  0.
          5    1    5    5  501    0 -0.44982546608E+02 -0.22680897038E+02 -0.52117263539E+03  0.52362282080E+03  0.47000000000E+01 0. -1.
        -11    1    6    6    0    0  0.11998850020E+01  0.63042039942E+01 -0.20186599453E+01  0.67273843352E+01  0.00000000000E+00 0.  1.
         12    1    6    6    0    0 -0.59163781133E+01  0.11860741725E+03 -0.83883978748E+03  0.84720417375E+03  0.00000000000E+00 0. -1.
         -5    1    3    3    0  503 -0.25978082858E+02 -0.87214293964E+01 -0.70214441988E+02  0.75518752528E+02  0.47000000000E+01 0.  1.
         13    1    4    4    0    0 -0.92324673004E+01 -0.40168737798E+02  0.14979161133E+02  0.43853634023E+02  0.00000000000E+00 0. -1.
        -14    1    4    4    0    0  0.84909589877E+02 -0.53340557014E+02 -0.50400408957E+01  0.10040047554E+03  0.00000000000E+00 0.  1.
</event>
<event>
12    1  0.8219652E-002  0.2524025E+03  0.7818608E-02  0.1112261E+00
         21   -1    0    0  501  502  0.00000000000E+00  0.00000000000E+00  0.19705741617E+03  0.19705741617E+03  0.00000000000E+00 0. -1.
         21   -1    0    0  502  503 -0.00000000000E+00 -0.00000000000E+00 -0.32259295584E+03  0.32259295584E+03  0.00000000000E+00 0. -1.
         -6    2    1    2    0  503  0.12846524664E+02 -0.18279843040E+03 -0.87790260772E+02  0.26444120854E+03  0.16923865852E+03 0.  0.
        -24    2    3    3    0    0 -0.13509591776E+02 -0.23078499851E+02 -0.15063632297E+02  0.86912750043E+02  0.81312894899E+02 0.  0.
          6    2    1    2  501    0 -0.12846524664E+02  0.18279843040E+03 -0.37745278891E+02  0.25520916347E+03  0.17357048046E+03 0.  0.
         24    2    5    5    0    0  0.46096696850E+02  0.16465159739E+03 -0.44699609350E+02  0.19296718710E+03  0.77480489384E+02 0.  0.
          5    1    5    5  501    0 -0.58943221513E+02  0.18146833004E+02  0.69543304591E+01  0.62241976371E+02  0.47000000000E+01 0. -1.
        -13    1    6    6    0    0  0.18392890521E+02 -0.20507445241E+01 -0.16435515021E+01  0.18579699577E+02  0.00000000000E+00 0.  1.
         14    1    6    6    0    0  0.27703806328E+02  0.16670234192E+03 -0.43056057848E+02  0.17438748752E+03  0.00000000000E+00 0. -1.
         -5    1    3    3    0  503  0.26356116440E+02 -0.15971993055E+03 -0.72726628475E+02  0.17752845850E+03  0.47000000000E+01 0.  1.
         13    1    4    4    0    0 -0.15733802970E+02 -0.52365529339E+02 -0.18592693115E+01  0.54709762394E+02  0.00000000000E+00 0. -1.
        -14    1    4    4    0    0  0.22242111940E+01  0.29287029488E+02 -0.13204362986E+02  0.32202987649E+02  0.00000000000E+00 0.  1.
</event>
<event>
12    1  0.8219652E-002  0.1965622E+03  0.7818608E-02  0.1153647E+00
         21   -1    0    0  501  502  0.00000000000E+00  0.00000000000E+00  0.24082062149E+03  0.24082062149E+03  0.00000000000E+00 0.  1.
         21   -1    0    0  502  503 -0.00000000000E+00 -0.00000000000E+00 -0.26113899058E+03  0.26113899058E+03  0.00000000000E+00 0.  1.
         -6    2    1    2    0  503  0.45658432261E+02  0.76974149974E+02 -0.16885511579E+03  0.25913077044E+03  0.17500569665E+03 0.  0.
        -24    2    3    3    0    0  0.46257184852E+02  0.88834654422E+02 -0.47260788274E+02  0.13686752758E+03  0.80422727024E+02 0.  0.
          6    2    1    2  501    0 -0.45658432261E+02 -0.76974149974E+02  0.14853674670E+03  0.24282884162E+03  0.16997931934E+03 0.  0.
         24    2    5    5    0    0 -0.17479271657E+02 -0.27784915902E+02  0.16340993487E+03  0.18403302912E+03  0.78024499376E+02 0.  0.
          5    1    5    5  501    0 -0.28179160605E+02 -0.49189234072E+02 -0.14873188179E+02  0.58795812501E+02  0.47000000000E+01 0. -1.
        -11    1    6    6    0    0 -0.45855848505E+02 -0.22320990374E+02  0.72502749203E+02  0.88643296957E+02  0.00000000000E+00 0.  1.
         12    1    6    6    0    0  0.28376576849E+02 -0.54639255282E+01  0.90907185672E+02  0.95389732166E+02  0.00000000000E+00 0. -1.
         -5    1    3    3    0  503 -0.59875259059E+00 -0.11860504448E+02 -0.12159432752E+03  0.12226324286E+03  0.47000000000E+01 0.  1.
         11    1    4    4    0    0 -0.21345961472E+02  0.19093298708E+02 -0.23059639768E+02  0.36768887839E+02  0.00000000000E+00 0. -1.
        -12    1    4    4    0    0  0.67603146324E+02  0.69741355714E+02 -0.24201148506E+02  0.10009863974E+03  0.00000000000E+00 0.  1.
</event>
<event>
12    1  0.8219652E-002  0.1784056E+03  0.7818608E-02  0.1169537E+00
         21   -1    0    0  503  502  0.00000000000E+00  0.00000000000E+00  0.36166394735E+03  0.36166394735E+03  0.00000000000E+00 0.  1.
         21   -1    0    0  501  503 -0.00000000000E+00 -0.00000000000E+00 -0.91015629240E+02  0.91015629240E+02  0.00000000000E+00 0.  1.
          6    2    1    2  501    0 -0.36779722126E+02 -0.21718099311E+02  0.17864299802E+03  0.25194711175E+03  0.17245173986E+03 0.  0.
         24    2    3    3    0    0 -0.13105133427E+02 -0.33211148885E+02  0.19979966519E+03  0.21785501730E+03  0.79159190366E+02 0.  0.
         -6    2    1    2    0  502  0.36779722126E+02  0.21718099311E+02  0.92005320094E+02  0.20073246484E+03  0.17321697295E+03 0.  0.
        -24    2    5    5    0    0  0.87337373064E+02 -0.91672855398E+01  0.77840931340E+02  0.13963661412E+03  0.75679043034E+02 0.  0.
          5    1    3    3  501    0 -0.23674588699E+02  0.11493049574E+02 -0.21156667171E+02  0.34092094455E+02  0.47000000000E+01 0. -1.
        -13    1    4    4    0    0  0.69525523665E+01  0.23395079510E+02  0.36930309454E+02  0.44266414877E+02  0.00000000000E+00 0.  1.
         14    1    4    4    0    0 -0.20057685794E+02 -0.56606228395E+02  0.16286935573E+03  0.17358860242E+03  0.00000000000E+00 0. -1.
         -5    1    5    5    0  502 -0.50557650938E+02  0.30885384851E+02  0.14164388754E+02  0.61095850715E+02  0.47000000000E+01 0.  1.
         11    1    6    6    0    0  0.17218485647E+02  0.29478433832E+02  0.34750285538E+02  0.48713824056E+02  0.00000000000E+00 0. -1.
        -12    1    6    6    0    0  0.70118887416E+02 -0.38645719372E+02  0.43090645802E+02  0.90922790069E+02  0.00000000000E+00 0.  1.
</event>
<event>
12    1  0.8219652E-002  0.2157906E+03  0.7818608E-02  0.1137320E+00
         21   -1    0    0  501  502  0.00000000000E+00  0.00000000000E+00  0.16416956368E+04  0.16416956368E+04  0.00000000000E+00 0.  1.
         21   -1    0    0  502  503 -0.00000000000E+00 -0.00000000000E+00 -0.49647587346E+02  0.49647587346E+02  0.00000000000E+00 0. -1.
         -6    2    1    2    0  503 -0.11569623817E+03 -0.53141913317E+02  0.23860182162E+03  0.32080235009E+03  0.17255038703E+03 0.  0.
        -24    2    3    3    0    0 -0.34316907179E+02 -0.14012445897E+02  0.21406045351E+03  0.22711094450E+03  0.66208040278E+02 0.  0.
          6    2    1    2  501    0  0.11569623817E+03  0.53141913317E+02  0.13534462279E+04  0.13705408741E+04  0.17422948475E+03 0.  0.
         24    2    5    5    0    0  0.73563915282E+02  0.94568499989E+02  0.11395685078E+04  0.11486015493E+04  0.79462471910E+02 0.  0.
          5    1    5    5  501    0  0.42132322884E+02 -0.41426586672E+02  0.21387772013E+03  0.22193932478E+03  0.47000000000E+01 0. -1.
        -13    1    6    6    0    0  0.92154930210E+01  0.15246976152E+02  0.54732421483E+03  0.54761409015E+03  0.00000000000E+00 0.  1.
         14    1    6    6    0    0  0.64348422261E+02  0.79321523837E+02  0.59224429292E+03  0.60098745918E+03  0.00000000000E+00 0. -1.
         -5    1    3    3    0  503 -0.81379330987E+02 -0.39129467420E+02  0.24541368116E+02  0.93691405591E+02  0.47000000000E+01 0.  1.
         11    1    4    4    0    0 -0.41794367229E+02 -0.32323535402E+02  0.12199693429E+03  0.13294672636E+03  0.00000000000E+00 0. -1.
        -12    1    4    4    0    0  0.74774600503E+01  0.18311089505E+02  0.92063519217E+02  0.94164218142E+02  0.00000000000E+00 0.  1.
</event>
<event>
12    1  0.8219652E-002  0.1778865E+03  0.7818608E-02  0.1171014E+00
         21   -1    0    0  501  502  0.00000000000E+00  0.00000000000E+00  0.45229136843E+03  0.45229136843E+03  0.00000000000E+00 0.  1.
         21   -1    0    0  502  503 -0.00000000000E+00 -0.00000000000E+00 -0.90825010152E+02  0.90825010152E+02  0.00000000000E+00 0. -1.
         -6    2    1    2    0  503 -0.17497753007E+02  0.34013740319E+02  0.31815920886E+03  0.36451185434E+03  0.17372536913E+03 0.  0.
        -24    2    3    3    0    0 -0.39810939631E+02  0.16719758137E+02  0.60713305213E+02  0.10548011223E+03  0.74669186544E+02 0.  0.
          6    2    1    2  501    0  0.17497753007E+02 -0.34013740319E+02  0.43307149422E+02  0.17860452425E+03  0.16899988461E+03 0.  0.
         24    2    5    5    0    0  0.33176625527E+02  0.16536396011E+02 -0.25733807681E+02  0.91484566233E+02  0.79580500920E+02 0.  0.
          5    1    5    5  501    0 -0.15678872519E+02 -0.50550136329E+02  0.69040957103E+02  0.87119958012E+02  0.47000000000E+01 0. -1.
        -11    1    6    6    0    0 -0.20136598019E+01  0.21553409624E+02  0.22725830781E+02  0.31385787817E+02  0.00000000000E+00 0.  1.
         12    1    6    6    0    0  0.35190285329E+02 -0.50170136132E+01 -0.48459638463E+02  0.60098778416E+02  0.00000000000E+00 0. -1.
         -5    1    3    3    0  503  0.22313186623E+02  0.17293982181E+02  0.25744590365E+03  0.25903174211E+03  0.47000000000E+01 0.  1.
         13    1    4    4    0    0  0.46555930048E+01  0.90340653835E+01 -0.14536467031E+02  0.17736903826E+02  0.00000000000E+00 0. -1.
        -14    1    4    4    0    0 -0.44466532636E+02  0.76856927540E+01  0.75249772245E+02  0.87743208402E+02  0.00000000000E+00 0.  1.
</event>
<event>
12    1  0.8219652E-002  0.2136399E+03  0.7818608E-02  0.1140592E+00
         21   -1    0    0  503  502  0.00000000000E+00  0.00000000000E+00  0.42875600930E+02  0.42875600930E+02  0.00000000000E+00 0. -1.
         21   -1    0    0  501  503 -0.00000000000E+00 -0.00000000000E+00 -0.16840797017E+04  0.16840797017E+04  0.00000000000E+00 0. -1.
          6    2    1    2  501    0  0.70187487653E+02 -0.86864946190E+02 -0.13523666570E+04  0.13676934260E+04  0.17093253086E+03 0.  0.
         24    2    3    3    0    0  0.59477520640E+02 -0.10120298287E+03 -0.73109802994E+03  0.74614931676E+03  0.91950281787E+02 0.  0.
         -6    2    1    2    0  502 -0.70187487653E+02  0.86864946190E+02 -0.28883744372E+03  0.35926187664E+03  0.18212694696E+03 0.  0.
        -24    2    5    5    0    0 -0.21246637410E+02  0.92308057695E+02 -0.83566089931E+02  0.14811440928E+03  0.77345909605E+02 0.  0.
          5    1    3    3  501    0  0.10709967013E+02  0.14338036679E+02 -0.62126862709E+03  0.62154410921E+03  0.47000000000E+01 0. -1.
        -13    1    4    4    0    0 -0.13713364066E+02 -0.66368021659E+02 -0.35597597015E+03  0.36236951027E+03  0.00000000000E+00 0.  1.
         14    1    4    4    0    0  0.73190884707E+02 -0.34834961210E+02 -0.37512205979E+03  0.38377980649E+03  0.00000000000E+00 0. -1.
         -5    1    5    5    0  502 -0.48940850243E+02 -0.54431115053E+01 -0.20527135379E+03  0.21114746736E+03  0.47000000000E+01 0.  1.
         13    1    6    6    0    0 -0.28843698808E+02  0.30267118131E+01 -0.37367803905E+02  0.47301931398E+02  0.00000000000E+00 0. -1.
        -14    1    6    6    0    0  0.75970613985E+01  0.89281345882E+02 -0.46198286026E+02  0.10081247788E+03  0.00000000000E+00 0.  1.
</event>
<event>
12    1  0.8219652E-002  0.1894236E+03  0.7818608E-02  0.1159507E+00
         21   -1    0    0  503  502  0.00000000000E+00  0.00000000000E+00  0.13457248264E+03  0.13457248264E+03  0.00000000000E+00 0.  1.
         21   -1    0    0  501  503 -0.00000000000E+00 -0.00000000000E+00 -0.30850568692E+03  0.30850568692E+03  0.00000000000E+00 0.  1.
          6    2    1    2  501    0  0.36869202711E+02  0.62447058266E+02 -0.17121986740E+03  0.25363511759E+03  0.17249799038E+03 0.  0.
         24    2    3    3    0    0 -0.16163617427E+02  0.32231182856E+01 -0.34241902550E+02  0.95189518300E+02  0.87274770032E+02 0.  0.
         -6    2    1    2    0  502 -0.36869202711E+02 -0.62447058266E+02 -0.27133368786E+01  0.18944305197E+03  0.17499238426E+03 0.  0.
        -24    2    5    5    0    0 -0.73254820245E+02  0.57053819733E+01 -0.22582660904E+02  0.10953342608E+03  0.78030601571E+02 0.  0.
          5    1    3    3  501    0  0.53032820138E+02  0.59223939980E+02 -0.13697796485E+03  0.15844559929E+03  0.47000000000E+01 0. -1.
        -13    1    4    4    0    0 -0.16661177734E+02 -0.66882490819E+01 -0.62611290913E+02  0.65134486020E+02  0.00000000000E+00 0.  1.
         14    1    4    4    0    0  0.49756030662E+00  0.99113673676E+01  0.28369388362E+02  0.30055032281E+02  0.00000000000E+00 0. -1.
         -5    1    5    5    0  502  0.36385617535E+02 -0.68152440239E+02  0.19869324026E+02  0.79909625898E+02  0.47000000000E+01 0.  1.
         11    1    6    6    0    0 -0.37718936923E+02 -0.83450906395E+01  0.26855495130E+02  0.47048659482E+02  0.00000000000E+00 0. -1.
        -12    1    6    6    0    0 -0.35535883322E+02  0.14050472613E+02 -0.49438156034E+02  0.62484766593E+02  0.00000000000E+00 0.  1.
</event>
<event>
12    1  0.8219652E-002  0.1806427E+03  0.7818608E-02  0.1167186E+00
         21   -1    0    0  501  502  0.00000000000E+00  0.00000000000E+00  0.67374222409E+02  0.67374222409E+02  0.00000000000E+00 0.  1.
         21   -1    0    0  502  503 -0.00000000000E+00 -0.00000000000E+00 -0.49588361389E+03  0.49588361389E+03  0.00000000000E+00 0.  1.
         -6    2    1    2    0  503 -0.49216921359E+02  0.21354057793E+02 -0.25731734144E+03  0.31439465242E+03  0.17249197700E+03 0.  0.
        -24    2    3    3    0    0  0.31225816143E+02  0.53216931732E+00 -0.75207909219E+02  0.11416847940E+03  0.80017980986E+02 0.  0.
          6    2    1    2  501    0  0.49216921359E+02 -0.21354057793E+02 -0.17119205004E+03  0.24886318388E+03  0.17247569442E+03 0.  0.
         24    2    5    5    0    0  0.21583774826E+02 -0.76770208657E+02 -0.95527552131E+02  0.15097678642E+03  0.85492412236E+02 0.  0.
          5    1    5    5  501    0  0.27633146533E+02  0.55416150864E+02 -0.75664497908E+02  0.97886397460E+02  0.47000000000E+01 0. -1.
        -13    1    6    6    0    0  0.13719986319E+02 -0.29519120674E+02 -0.97746690161E+02  0.10302442403E+03  0.00000000000E+00 0.  1.
         14    1    6    6    0    0  0.78637885068E+01 -0.47251087983E+02  0.22191380301E+01  0.47952362391E+02  0.00000000000E+00 0. -1.
         -5    1    3    3    0  503 -0.80442737502E+02  0.20821888476E+02 -0.18210943223E+03  0.20022617302E+03  0.47000000000E+01 0.  1.
         13    1    4    4    0    0  0.26126372829E+01  0.28031376861E+02 -0.68315612374E+02  0.73889152494E+02  0.00000000000E+00 0. -1.
        -14    1    4    4    0    0  0.28613178860E+02 -0.27499207544E+02 -0.68922968450E+01  0.40279326904E+02  0.00000000000E+00 0.  1.
</event>
<event>
12    1  0.8219652E-002  0.1719890E+03  0.7818608E-02  0.1175793E+00
         21   -1    0    0  501  502  0.00000000000E+00  0.00000000000E+00  0.11363514951E+03  0.11363514951E+03  0.00000000000E+00 0.  1.
         21   -1    0    0  502  503 -0.00000000000E+00 -0.00000000000E+00 -0.46765858741E+03  0.46765858741E+03  0.00000000000E+00 0.  1.
         -6    2    1    2    0  503 -0.20105250530E+01  0.71713657204E+01 -0.37054980262E+03  0.40851258744E+03  0.17181358262E+03 0.  0.
        -24    2    3    3    0    0 -0.44309667346E+02  0.45152721288E+02 -0.30305158150E+03  0.32013894508E+03  0.81526487995E+02 0.  0.
          6    2    1    2  501    0  0.20105250530E+01 -0.71713657204E+01  0.16526364720E+02  0.17278114948E+03  0.17182762929E+03 0.  0.
         24    2    5    5    0    0 -0.49954594569E+02 -0.49947485471E+02  0.69209927373E+01  0.10463041031E+03  0.76872685646E+02 0.  0.
          5    1    5    5  501    0  0.51965119622E+02  0.42776119750E+02  0.96053719822E+01  0.68150739168E+02  0.47000000000E+01 0. -1.
        -13    1    6    6    0    0 -0.34534255401E+02 -0.68205817114E+02  0.17606560003E+02  0.78451508841E+02  0.00000000000E+00 0.  1.
         14    1    6    6    0    0 -0.15420339169E+02  0.18258331644E+02 -0.10685567266E+02  0.26178901472E+02  0.00000000000E+00 0. -1.
         -5    1    3    3    0  503  0.42299142293E+02 -0.37981355568E+02 -0.67498221122E+02  0.88373642360E+02  0.47000000000E+01 0.  1.
         13    1    4    4    0    0  0.14263786518E+02  0.54019371875E+01 -0.90496721955E+01  0.17735080999E+02  0.00000000000E+00 0. -1.
        -14    1    4    4    0    0 -0.58573453863E+02  0.39750784100E+02 -0.29400190931E+03  0.30240386408E+03  0.00000000000E+00 0.  1.
</event>
<event>
12    1  0.8219652E-002  0.2306223E+03  0.7818608E-02  0.1126531E+00
         21   -1    0    0  501  502  0.00000000000E+00  0.00000000000E+00  0.15388906154E+03  0.15388906154E+03  0.00000000000E+00 0. -1.
         21   -1    0    0  502  503 -0.00000000000E+00 -0.00000000000E+00 -0.64168014015E+03  0.64168014015E+03  0.00000000000E+00 0.  1.
         -6    2    1    2    0  503  0.11396016735E+03  0.10286231480E+03 -0.51589038890E+03  0.56509250676E+03  0.17210192411E+03 0.  0.
        -24    2    3    3    0    0  0.14716399942E+03  0.64636159215E+02 -0.38960956124E+03  0.42895775414E+03  0.79837765651E+02 0.  0.
          6    2    1    2  501    0 -0.11396016735E+03 -0.10286231480E+03  0.28099310289E+02  0.23047669494E+03  0.16959469367E+03 0.  0.
         24    2    5    5    0    0 -0.27336065526E+02  0.55837348893E+01 -0.13563791094E+02  0.85486403097E+02  0.79658710208E+02 0.  0.
          5    1    5    5  501    0 -0.86624101826E+02 -0.10844604969E+03  0.41663101383E+02  0.14499029184E+03  0.47000000000E+01 0. -1.
        -13    1    6    6    0    0  0.15129835619E+02  0.29348615868E+02  0.50139356114E+01  0.33397495857E+02  0.00000000000E+00 0.  1.
         14    1    6    6    0    0 -0.42465901145E+02 -0.23764880978E+02 -0.18577726705E+02  0.52088907240E+02  0.00000000000E+00 0. -1.
         -5    1    3    3    0  503 -0.33203832066E+02  0.38226155586E+02 -0.12628082766E+03  0.13613475261E+03  0.47000000000E+01 0.  1.
         11    1    4    4    0    0  0.23443565884E+02 -0.18601538086E+02 -0.54681941679E+02  0.62335645872E+02  0.00000000000E+00 0. -1.
        -12    1    4    4    0    0  0.12372043353E+03  0.83237697301E+02 -0.33492761956E+03  0.36662210827E+03  0.00000000000E+00 0.  1.
</event>
<event>
12    1  0.8219652E-002  0.2144700E+03  0.7818608E-02  0.1138151E+00
         21   -1    0    0  503  502  0.00000000000E+00  0.00000000000E+00  0.30263748907E+03  0.30263748907E+03  0.00000000000E+00 0. -1.
         21   -1    0    0  501  503 -0.00000000000E+00 -0.00000000000E+00 -0.19651859285E+03  0.19651859285E+03  0.00000000000E+00 0. -1.
          6    2    1    2  501    0  0.58640465367E+02  0.11269913335E+03 -0.66159111194E+02  0.22406136015E+03  0.17229819001E+03 0.  0.
         24    2    3    3    0    0 -0.81941524435E+01  0.12214438246E+03 -0.41722366661E+02  0.15212163988E+03  0.80086472876E+02 0.  0.
         -6    2    1    2    0  502 -0.58640465367E+02 -0.11269913335E+03  0.17227800741E+03  0.27509472177E+03  0.17279350471E+03 0.  0.
        -24    2    5    5    0    0 -0.76099999889E+02 -0.91896747657E+02  0.19550649508E+03  0.23904992692E+03  0.68453310553E+02 0.  0.
          5    1    3    3  501    0  0.66834617811E+02 -0.94452491103E+01 -0.24436744533E+02  0.71939720267E+02  0.47000000000E+01 0. -1.
        -13    1    4    4    0    0 -0.12765156808E+02 -0.35212056700E+01 -0.20780649206E+02  0.24641093708E+02  0.00000000000E+00 0.  1.
         14    1    4    4    0    0  0.45710043645E+01  0.12566558813E+03 -0.20941717455E+02  0.12748054617E+03  0.00000000000E+00 0. -1.
         -5    1    5    5    0  502  0.17459534522E+02 -0.20802385697E+02 -0.23228487671E+02  0.36044794851E+02  0.47000000000E+01 0.  1.
         13    1    6    6    0    0 -0.45480828729E+02 -0.76412151874E+01  0.48978577287E+02  0.67274029049E+02  0.00000000000E+00 0. -1.
        -14    1    6    6    0    0 -0.30619171160E+02 -0.84255532470E+02  0.14652791780E+03  0.17177589787E+03  0.00000000000E+00 0.  1.
</event>
<event>
12    1  0.8219652E-002  0.1867697E+03  0.7818608E-02  0.1161416E+00
         21   -1    0    0  501  502  0.00000000000E+00  0.00000000000E+00  0.20790424854E+04  0.20790424854E+04  0.00000000000E+00 0.  1.
         21   -1    0    0  502  503 -0.00000000000E+00 -0.00000000000E+00 -0.61681806408E+02  0.61681806408E+02  0.00000000000E+00 0.  1.
         -6    2    1    2    0  503 -0.89781506337E+01  0.72545763043E+02  0.95367445303E+02  0.20967771214E+03  0.17183218099E+03 0.  0.
        -24    2    3    3    0    0  0.60133380965E+02  0.47729893174E+02  0.72839860614E+02  0.13272439338E+03  0.80099644784E+02 0.  0.
          6    2    1    2  501    0  0.89781506337E+01 -0.72545763043E+02  0.19219932337E+04  0.19310465797E+04  0.17187032193E+03 0.  0.
         24    2    5    5    0    0  0.18935865366E+02 -0.10921977038E+03  0.16121183687E+04  0.16188148375E+04  0.96686700195E+02 0.  0.
          5    1    5    5  501    0 -0.99577147328E+01  0.36674007336E+02  0.30987486499E+03  0.31223174222E+03  0.47000000000E+01 0. -1.
        -11    1    6    6    0    0  0.35026393409E+02 -0.64238485808E+02  0.46669388697E+03  0.47239455483E+03  0.00000000000E+00 0.  1.
         12    1    6    6    0    0 -0.16090528042E+02 -0.44981284570E+02  0.11454244818E+04  0.11464202826E+04  0.00000000000E+00 0. -1.
         -5    1    3    3    0  503 -0.69111531599E+02  0.24815869868E+02  0.22527584690E+02  0.76953318767E+02  0.47000000000E+01 0.  1.
         11    1    4    4    0    0  0.17560096837E+02 -0.14027195348E+02  0.49179710815E+02  0.54071833390E+02  0.00000000000E+00 0. -1.
        -12    1    4    4    0    0  0.42573284128E+02  0.61757088522E+02  0.23660149798E+02  0.78652559988E+02  0.00000000000E+00 0.  1.
</event>
<event>
12    1  0.8219652E-002  0.2241526E+03  0.7818608E-02  0.1130967E+00
         21   -1    0    0  501  502  0.00000000000E+00  0.00000000000E+00  0.85747765144E+03  0.85747765144E+03  0.00000000000E+00 0.  1.
         21   -1    0    0  502  503 -0.00000000000E+00 -0.00000000000E+00 -0.67253946413E+02  0.67253946413E+02  0.00000000000E+00 0. -1.
         -6    2    1    2    0  503 -0.66850131316E+02 -0.12812810309E+03  0.22786649879E+03  0.31963655202E+03  0.17134361168E+03 0.  0.
        -24    2    3    3    0    0 -0.26892882181E+02 -0.14643808637E+03  0.21440947129E+03  0.27343028800E+03  0.81396319123E+02 0.  0.
          6    2    1    2  501    0  0.66850131316E+02  0.12812810309E+03  0.56235720624E+03  0.60509504583E+03  0.17031921858E+03 0.  0.
         24    2    5    5    0    0  0.11129015514E+03  0.86690534121E+02  0.40735323728E+03  0.43854082573E+03  0.80502475564E+02 0.  0.
          5    1    5    5  501    0 -0.44440023824E+02  0.41437568968E+02  0.15500396896E+03  0.16655422010E+03  0.47000000000E+01 0. -1.
        -13    1    6    6    0    0  0.11359096377E+02 -0.13133421894E+02  0.21434039689E+02  0.27585030334E+02  0.00000000000E+00 0.  1.
         14    1    6    6    0    0  0.99931058764E+02  0.99823956015E+02  0.38591919759E+03  0.41095579540E+03  0.00000000000E+00 0. -1.
         -5    1    3    3    0  503 -0.39957249135E+02  0.18309983277E+02  0.13457027499E+02  0.46206264025E+02  0.47000000000E+01 0.  1.
         13    1    4    4    0    0  0.24248492117E+02 -0.18727955667E+02  0.54206373730E+02  0.62266015180E+02  0.00000000000E+00 0. -1.
        -14    1    4    4    0    0 -0.51141374297E+02 -0.12771013070E+03  0.16020309756E+03  0.21116427282E+03  0.00000000000E+00 0.  1.
</event>
<event>
12    1  0.8219652E-002  0.2783808E+03  0.7818608E-02  0.1096592E+00
         21   -1    0    0  503  502  0.00000000000E+00  0.00000000000E+00  0.48844571593E+03  0.48844571593E+03  0.00000000000E+00 0. -1.
         21   -1    0    0  501  503 -0.00000000000E+00 -0.00000000000E+00 -0.24857551840E+03  0.24857551840E+03  0.00000000000E+00 0.  1.
          6    2    1    2  501    0 -0.17864465169E+03 -0.12689601653E+03 -0.10179804125E+03  0.29630241537E+03  0.17151026081E+03 0.  0.
         24    2    3    3    0    0 -0.11446352435E+03 -0.10404787400E+03 -0.13488469779E+03  0.22042045727E+03  0.80395508540E+02 0.  0.
         -6    2    1    2    0  502  0.17864465169E+03  0.12689601653E+03  0.34166823878E+03  0.44071881897E+03  0.17169560685E+03 0.  0.
        -24    2    5    5    0    0  0.65603616980E+02  0.91478017540E+02  0.97112335332E+02  0.16894245853E+03  0.80241425496E+02 0.  0.
          5    1    3    3  501    0 -0.64181127346E+02 -0.22848142523E+02  0.33086656540E+02  0.75881958100E+02  0.47000000000E+01 0. -1.
        -13    1    4    4    0    0 -0.97893108763E+02 -0.36170765704E+02 -0.77142701568E+02  0.12977820094E+03  0.00000000000E+00 0.  1.
         14    1    4    4    0    0 -0.16570415582E+02 -0.67877108298E+02 -0.57741996224E+02  0.90642256323E+02  0.00000000000E+00 0. -1.
         -5    1    5    5    0  502  0.11304103471E+03  0.35417998985E+02  0.24455590345E+03  0.27177636044E+03  0.47000000000E+01 0.  1.
         11    1    6    6    0    0  0.73253679050E+02  0.68350333295E+02  0.10319960591E+03  0.14383333486E+03  0.00000000000E+00 0. -1.
        -12    1    6    6    0    0 -0.76500620703E+01  0.23127684245E+02 -0.60872705825E+01  0.25109123668E+02  0.00000000000E+00 0.  1.
</event>
<event>
12    1  0.8219652E-002  0.1973431E+03  0.7818608E-02  0.1152299E+00
         21   -1    0    0  503  502  0.00000000000E+00  0.00000000000E+00  0.16898892361E+03  0.16898892361E+03  0.00000000000E+00 0. -1.
         21   -1    0    0  501  503 -0.00000000000E+00 -0.00000000000E+00 -0.22937170313E+03  0.22937170313E+03  0.00000000000E+00 0. -1.
          6    2    1    2  501    0 -0.80057245487E+02  0.55030467103E+02 -0.39917278808E+02  0.20133968899E+03  0.17177533685E+03 0.  0.
         24    2    3    3    0    0 -0.32219193402E+02  0.52348771523E+02  0.39856300940E+02  0.10816466688E+03  0.79577635888E+02 0.  0.
         -6    2    1    2    0  502  0.80057245487E+02 -0.55030467103E+02 -0.20465500708E+02  0.19702093775E+03  0.17017901847E+03 0.  0.
        -24    2    5    5    0    0  0.50684400034E+02 -0.12408455082E+02  0.51723440363E+02  0.10806739273E+03  0.79248778694E+02 0.  0.
          5    1    3    3  501    0 -0.47838052085E+02  0.26816955805E+01 -0.79773579748E+02  0.93175022105E+02  0.47000000000E+01 0. -1.
        -11    1    4    4    0    0 -0.17270093216E+02  0.69812549666E+02  0.13467423617E+02  0.73167067109E+02  0.00000000000E+00 0.  1.
         12    1    4    4    0    0 -0.14949100186E+02 -0.17463778143E+02  0.26388877323E+02  0.34997599772E+02  0.00000000000E+00 0. -1.
         -5    1    5    5    0  502  0.29372845453E+02 -0.42622012021E+02 -0.72188941071E+02  0.88953545020E+02  0.47000000000E+01 0.  1.
         11    1    6    6    0    0  0.34863639872E+02  0.18974120035E+02 -0.63403980087E+01  0.40195662243E+02  0.00000000000E+00 0. -1.
        -12    1    6    6    0    0  0.15820760162E+02 -0.31382575117E+02  0.58063838371E+02  0.67871730489E+02  0.00000000000E+00 0.  1.
</event>
<event>
12    1  0.8219652E-002  0.1804589E+03  0.7818608E-02  0.1167473E+00
         21   -1    0    0  503  502  0.00000000000E+00  0.00000000000E+00  0.23664077756E+03  0.23664077756E+03  0.00000000000E+00 0. -1.
         21   -1    0    0  501  503 -0.00000000000E+00 -0.00000000000E+00 -0.61161672419E+03  0.61161672419E+03  0.00000000000E+00 0. -1.
          6    2    1    2  501    0 -0.54432395406E+02  0.36049753533E+01 -0.56106162106E+03  0.58936878100E+03  0.17201609191E+03 0.  0.
         24    2    3    3    0    0  0.66240178178E+00  0.38633690777E+02 -0.46413428757E+03  0.47240961907E+03  0.79102531286E+02 0.  0.
         -6    2    1    2    0  502  0.54432395406E+02 -0.36049753533E+01  0.18608567443E+03  0.25888872075E+03  0.17152145635E+03 0.  0.
        -24    2    5    5    0    0  0.10040243899E+03 -0.13689316890E+02  0.12784882435E+03  0.18386499411E+03  0.84811361386E+02 0.  0.
          5    1    3    3  501    0 -0.55094797188E+02 -0.35028715424E+02 -0.96927333494E+02  0.11695916193E+03  0.47000000000E+01 0. -1.
        -13    1    4    4    0    0 -0.20172796776E+02  0.24628498409E+02 -0.63924545731E+02  0.71413249545E+02  0.00000000000E+00 0.  1.
         14    1    4    4    0    0  0.20835198558E+02  0.14005192368E+02 -0.40020974183E+03  0.40099636952E+03  0.00000000000E+00 0. -1.
         -5    1    5    5    0  502 -0.45970043588E+02  0.10084341537E+02  0.58236850079E+02  0.75023726639E+02  0.47000000000E+01 0.  1.
         11    1    6    6    0    0  0.41335513419E+02  0.27857875810E+02  0.19222978448E+02  0.53424795878E+02  0.00000000000E+00 0. -1.
        -12    1    6    6    0    0  0.59066925576E+02 -0.41547192700E+02  0.10862584590E+03  0.13044019823E+03  0.00000000000E+00 0.  1.
</event>
<event>
12    1  0.8219652E-002  0.1846554E+03  0.7818608E-02  0.1163518E+00
         21   -1    0    0  503  502  0.00000000000E+00  0.00000000000E+00  0.17616198325E+04  0.17616198325E+04  0.00000000000E+00 0. -1.
         21   -1    0    0  501  503 -0.00000000000E+00 -0.00000000000E+00 -0.19735268199E+02  0.19735268199E+02  0.00000000000E+00 0. -1.
          6    2    1    2  501    0 -0.10111530673E+02  0.67962734308E+02  0.73867347174E+03  0.76140405223E+03  0.17139561427E+03 0.  0.
         24    2    3    3    0    0 -0.54356353767E+02  0.26132592769E+02  0.61868796832E+03  0.62677130680E+03  0.80186927115E+02 0.  0.
         -6    2    1    2    0  502  0.10111530673E+02 -0.67962734308E+02  0.10032110925E+04  0.10199510484E+04  0.17072336901E+03 0.  0.
        -24    2    5    5    0    0  0.56471181358E+01 -0.83296855036E+02  0.40029743091E+03  0.41680758324E+03  0.80748202794E+02 0.  0.
          5    1    3    3  501    0  0.44244823094E+02  0.41830141539E+02  0.11998550342E+03  0.13463274543E+03  0.47000000000E+01 0. -1.
        -11    1    4    4    0    0  0.18273312267E+01  0.10332176051E+02  0.40839362508E+03  0.40852839070E+03  0.00000000000E+00 0.  1.
         12    1    4    4    0    0 -0.56183684994E+02  0.15800416718E+02  0.21029434324E+03  0.21824291610E+03  0.00000000000E+00 0. -1.
         -5    1    5    5    0  502  0.44644125376E+01  0.15334120728E+02  0.60291366163E+03  0.60314346520E+03  0.47000000000E+01 0.  1.
         11    1    6    6    0    0  0.75688395144E+01 -0.54223406733E+02  0.37261955936E+03  0.37662023470E+03  0.00000000000E+00 0. -1.
        -12    1    6    6    0    0 -0.19217213786E+01 -0.29073448303E+02  0.27677871549E+02  0.40187348541E+02  0.00000000000E+00 0.  1.
</event>
<event>
12    1  0.8219652E-002  0.2583059E+03  0.7818608E-02  0.1108968E+00
         21   -1    0    0  503  502  0.00000000000E+00  0.00000000000E+00  0.13993122710E+03  0.13993122710E+03  0.00000000000E+00 0.  1.
         21   -1    0    0  501  503 -0.00000000000E+00 -0.00000000000E+00 -0.47981691229E+03  0.47981691229E+03  0.00000000000E+00 0. -1.
          6    2    1    2  501    0  0.18354153114E+03  0.34810112816E+02 -0.22190353501E+03  0.34053355429E+03  0.17838913963E+03 0.  0.
         24    2    3    3    0    0  0.17407677131E+03 -0.85234819894E+01 -0.11320203499E+03  0.22303679593E+03  0.80965051469E+02 0.  0.
         -6    2    1    2    0  502 -0.18354153114E+03 -0.34810112816E+02 -0.11798215018E+03  0.27921458510E+03  0.17070957550E+03 0.  0.
        -24    2    5    5    0    0 -0.15674208559E+02 -0.59436809805E+01 -0.51067318385E+02  0.96150679345E+02  0.79724989645E+02 0.  0.
          5    1    3    3  501    0  0.94647598306E+01  0.43333594806E+02 -0.10870150002E+03  0.11749675836E+03  0.47000000000E+01 0. -1.
        -11    1    4    4    0    0  0.14773353782E+03 -0.26129661897E+02 -0.11815436457E+03  0.19096704243E+03  0.00000000000E+00 0.  1.
         12    1    4    4    0    0  0.26343233488E+02  0.17606179907E+02  0.49523295766E+01  0.32069753503E+02  0.00000000000E+00 0. -1.
         -5    1    5    5    0  502 -0.16786732258E+03 -0.28866431836E+02 -0.66914831793E+02  0.18306390576E+03  0.47000000000E+01 0.  1.
         11    1    6    6    0    0 -0.36023273731E+01 -0.40155977204E+02 -0.10368625060E+02  0.41629168300E+02  0.00000000000E+00 0. -1.
        -12    1    6    6    0    0 -0.12071881186E+02  0.34212296224E+02 -0.40698693325E+02  0.54521511045E+02  0.00000000000E+00 0.  1.
</event>
<event>
12    1  0.8219652E-002  0.2103097E+03  0.7818608E-02  0.1144611E+00
         21   -1    0    0  501  502  0.00000000000E+00  0.00000000000E+00  0.27061909784E+03  0.27061909784E+03  0.00000000000E+00 0.  1.
         21   -1    0    0  502  503 -0.00000000000E+00 -0.00000000000E+00 -0.15324607586E+03  0.15324607586E+03  0.00000000000E+00 0.  1.
         -6    2    1    2    0  503 -0.84779486399E+02 -0.18577924383E+02  0.36920110057E+02  0.21352579855E+03  0.19156584124E+03 0.  0.
        -24    2    3    3    0    0 -0.11609046661E+03 -0.13556760601E+02 -0.25059525174E+02  0.14374646958E+03  0.79839122743E+02 0.  0.
          6    2    1    2  501    0  0.84779486399E+02  0.18577924383E+02  0.80452911924E+02  0.21033937515E+03  0.17388870323E+03 0.  0.
         24    2    5    5    0    0  0.29224484512E+02  0.65097821092E+02  0.77008495563E+02  0.13764540684E+03  0.89017710759E+02 0.  0.
          5    1    5    5  501    0  0.55555001887E+02 -0.46519896708E+02  0.34444163615E+01  0.72693968309E+02  0.47000000000E+01 0. -1.
        -13    1    6    6    0    0 -0.15204976409E+02 -0.24713829059E+01 -0.10384404888E+02  0.18577806812E+02  0.00000000000E+00 0.  1.
         14    1    6    6    0    0  0.44429460922E+02  0.67569203998E+02  0.87392900451E+02  0.11906760003E+03  0.00000000000E+00 0. -1.
         -5    1    3    3    0  503  0.31310980209E+02 -0.50211637819E+01  0.61979635231E+02  0.69779328965E+02  0.47000000000E+01 0.  1.
         13    1    4    4    0    0 -0.56757574735E+02  0.28945377779E+02 -0.30346171628E+02  0.70570158829E+02  0.00000000000E+00 0. -1.
        -14    1    4    4    0    0 -0.59332891873E+02 -0.42502138381E+02  0.52866464546E+01  0.73176310755E+02  0.00000000000E+00 0.  1.
</event>
<event>
12    1  0.8219652E-002  0.2036924E+03  0.7818608E-02  0.1146700E+00
         21   -1    0    0  501  502  0.00000000000E+00  0.00000000000E+00  0.10080333592E+03  0.10080333592E+03  0.00000000000E+00 0. -1.
         21   -1    0    0  502  503 -0.00000000000E+00 -0.00000000000E+00 -0.46311544185E+03  0.46311544185E+03  0.00000000000E+00 0. -1.
         -6    2    1    2    0  503  0.37594826424E+02 -0.10201592110E+03 -0.27561877568E+03  0.34271898387E+03  0.17224974098E+03 0.  0.
        -24    2    3    3    0    0  0.48571387795E+02 -0.31368231287E+02 -0.24255818336E+03  0.26380970850E+03  0.86127488863E+02 0.  0.
          6    2    1    2  501    0 -0.37594826424E+02  0.10201592110E+03 -0.86693330255E+02  0.22119979390E+03  0.17202614970E+03 0.  0.
         24    2    5    5    0    0 -0.99065708375E+01  0.58409056783E+02 -0.12281664278E+03  0.15799234323E+03  0.79799089693E+02 0.  0.
          5    1    5    5  501    0 -0.27688255587E+02  0.43606864312E+02  0.36123312522E+02  0.63207450670E+02  0.47000000000E+01 0. -1.
        -13    1    6    6    0    0  0.27582238129E+02  0.29408873011E+02 -0.20501626836E+02  0.45232492468E+02  0.00000000000E+00 0.  1.
         14    1    6    6    0    0 -0.37488808966E+02  0.29000183773E+02 -0.10231501594E+03  0.11275985076E+03  0.00000000000E+00 0. -1.
         -5    1    3    3    0  503 -0.10976561371E+02 -0.70647689808E+02 -0.33060592320E+02  0.78909275369E+02  0.47000000000E+01 0.  1.
         11    1    4    4    0    0  0.62585275856E+01 -0.51520648753E+02 -0.86591508352E+02  0.10095363160E+03  0.00000000000E+00 0. -1.
        -12    1    4    4    0    0  0.42312860209E+02  0.20152417466E+02 -0.15596667501E+03  0.16285607690E+03  0.00000000000E+00 0.  1.
</event>
<event>
12    1  0.8219652E-002  0.1846439E+03  0.7818608E-02  0.1163810E+00
         21   -1    0    0  503  502  0.00000000000E+00  0.00000000000E+00  0.12286977040E+03  0.12286977040E+03  0.00000000000E+00 0.  1.
         21   -1    0    0  501  503 -0.00000000000E+00 -0.00000000000E+00 -0.30094108824E+03  0.30094108824E+03  0.00000000000E+00 0.  1.
          6    2    1    2  501    0 -0.43965608552E+02  0.36668492447E+02 -0.15194940120E+03  0.23912754322E+03  0.17554432012E+03 0.  0.
         24    2    3    3    0    0  0.56256365010E+01  0.25756015774E+02 -0.16968932707E+03  0.18513524096E+03  0.69177811405E+02 0.  0.
         -6    2    1    2    0  502  0.43965608552E+02 -0.36668492447E+02 -0.26121916637E+02  0.18468331542E+03  0.17363185017E+03 0.  0.
        -24    2    5    5    0    0  0.30637666411E+02  0.28250968531E+02  0.32542203037E+02  0.96050706342E+02  0.80187027531E+02 0.  0.
          5    1    3    3  501    0 -0.49591245053E+02  0.10912476673E+02  0.17739925869E+02  0.53992302256E+02  0.47000000000E+01 0. -1.
        -11    1    4    4    0    0 -0.15224337101E+02 -0.18637900678E+02 -0.70258776361E+02  0.74266058450E+02  0.00000000000E+00 0.  1.
         12    1    4    4    0    0  0.20849973603E+02  0.44393916452E+02 -0.99430550706E+02  0.11086918251E+03  0.00000000000E+00 0. -1.
         -5    1    5    5    0  502  0.13327942141E+02 -0.64919460979E+02 -0.58664119673E+02  0.88632609081E+02  0.47000000000E+01 0.  1.
         11    1    6    6    0    0  0.11634343928E+02 -0.77863354454E+01 -0.23146250515E+02  0.27050580238E+02  0.00000000000E+00 0. -1.
        -12    1    6    6    0    0  0.19003322483E+02  0.36037303977E+02  0.55688453552E+02  0.69000126104E+02  0.00000000000E+00 0.  1.
</event>
<event>
12    1  0.8219652E-002  0.1846260E+03  0.7818608E-02  0.1163837E+00
         21   -1    0    0  503  502  0.00000000000E+00  0.00000000000E+00  0.24623544733E+03  0.24623544733E+03  0.00000000000E+00 0. -1.
         21   -1    0    0  501  503 -0.00000000000E+00 -0.00000000000E+00 -0.55877848990E+03  0.55877848990E+03  0.00000000000E+00 0. -1.
          6    2    1    2  501    0  0.44919140160E+02  0.46408882295E+02 -0.50575957553E+03  0.53776990924E+03  0.17097430665E+03 0.  0.
         24    2    3    3    0    0  0.26954948534E+02  0.46613516852E+02 -0.12923552876E+03  0.16078820962E+03  0.79067295725E+02 0.  0.
         -6    2    1    2    0  502 -0.44919140160E+02 -0.46408882295E+02  0.19321653296E+03  0.26724402799E+03  0.17296019305E+03 0.  0.
        -24    2    5    5    0    0 -0.51126840982E+02  0.33354098179E+02  0.76687753765E+02  0.12581660850E+03  0.78881922280E+02 0.  0.
          5    1    3    3  501    0  0.17964191626E+02 -0.20463455672E+00 -0.37652404677E+03  0.37698169962E+03  0.47000000000E+01 0. -1.
        -13    1    4    4    0    0  0.40747854066E+01 -0.20869120190E+02 -0.14535260968E+02  0.25756511119E+02  0.00000000000E+00 0.  1.
         14    1    4    4    0    0  0.22880163127E+02  0.67482637042E+02 -0.11470026780E+03  0.13503169850E+03  0.00000000000E+00 0. -1.
         -5    1    5    5    0  502  0.62077008217E+01 -0.79762980474E+02  0.11652877919E+03  0.14142741949E+03  0.47000000000E+01 0.  1.
         11    1    6    6    0    0  0.16547068741E+02  0.27138054283E+02  0.24397211377E+02  0.40068733411E+02  0.00000000000E+00 0. -1.
        -12    1    6    6    0    0 -0.67673909723E+02  0.62160438959E+01  0.52290542387E+02  0.85747875088E+02  0.00000000000E+00 0.  1.
</event>
<event>
12    1  0.8219652E-002  0.1763396E+03  0.7818608E-02  0.1171506E+00
         21   -1    0    0  501  502  0.00000000000E+00  0.00000000000E+00  0.21952877387E+03  0.21952877387E+03  0.00000000000E+00 0. -1.
         21   -1    0    0  502  503 -0.00000000000E+00 -0.00000000000E+00 -0.15030256158E+03  0.15030256158E+03  0.00000000000E+00 0. -1.
         -6    2    1    2    0  503  0.37272916429E+02 -0.20091978122E+01 -0.10725170989E+02  0.17621344941E+03  0.17188031674E+03 0.  0.
        -24    2    3    3    0    0  0.88563436229E+02 -0.85126931112E+01  0.19896682977E+02  0.11594072910E+03  0.71626995542E+02 0.  0.
          6    2    1    2  501    0 -0.37272916429E+02  0.20091978122E+01  0.79951383275E+02  0.19361788605E+03  0.17234371162E+03 0.  0.
         24    2    5    5    0    0  0.17773522540E+02 -0.39800983532E+02  0.58061264894E+01  0.92139756333E+02  0.80969174373E+02 0.  0.
          5    1    5    5  501    0 -0.55046438968E+02  0.41810181345E+02  0.74145256786E+02  0.10147812972E+03  0.47000000000E+01 0. -1.
        -11    1    6    6    0    0  0.32431069484E+02 -0.92385262564E+00 -0.24547926289E+02  0.40684498973E+02  0.00000000000E+00 0.  1.
         12    1    6    6    0    0 -0.14657546944E+02 -0.38877130907E+02  0.30354052778E+02  0.51455257361E+02  0.00000000000E+00 0. -1.
         -5    1    3    3    0  503 -0.51290519801E+02  0.65034952990E+01 -0.30621853965E+02  0.60272720304E+02  0.47000000000E+01 0.  1.
         11    1    4    4    0    0  0.77339703528E+02 -0.34784459498E+02  0.20953449946E+02  0.87352363614E+02  0.00000000000E+00 0. -1.
        -12    1    4    4    0    0  0.11223732701E+02  0.26271766386E+02 -0.10567669695E+01  0.28588365487E+02  0.00000000000E+00 0.  1.
</event>
<event>
12    1  0.8219652E-002  0.2604266E+03  0.7818608E-02  0.1106933E+00
         21   -1    0    0  501  502  0.00000000000E+00  0.00000000000E+00  0.64472833880E+03  0.64472833880E+03  0.00000000000E+00 0.  1.
         21   -1    0    0  502  503 -0.00000000000E+00 -0.00000000000E+00 -0.31802410641E+03  0.31802410641E+03  0.00000000000E+00 0. -1.
         -6    2    1    2    0  503 -0.98002192474E+02 -0.16907770498E+03 -0.23058928503E+03  0.34761176404E+03  0.17167067332E+03 0.  0.
        -24    2    3    3    0    0 -0.54817152237E+02 -0.14479543144E+03 -0.24243928559E+03  0.29645427171E+03  0.71677687409E+02 0.  0.
          6    2    1    2  501    0  0.98002192474E+02  0.16907770498E+03  0.55729351741E+03  0.61514068117E+03  0.17213452013E+03 0.  0.
         24    2    5    5    0    0  0.26823260649E+01  0.66454972238E+02  0.34775398988E+03  0.36305695340E+03  0.80337137875E+02 0.  0.
          5    1    5    5  501    0  0.95319866409E+02  0.10262273274E+03  0.20953952753E+03  0.25208372777E+03  0.47000000000E+01 0. -1.
        -11    1    6    6    0    0  0.19883549154E+02  0.73532680685E+02  0.19791381309E+03  0.21206670665E+03  0.00000000000E+00 0.  1.
         12    1    6    6    0    0 -0.17201223089E+02 -0.70777084475E+01  0.14984017679E+03  0.15099024675E+03  0.00000000000E+00 0. -1.
         -5    1    3    3    0  503 -0.43185040237E+02 -0.24282273535E+02  0.11850000561E+02  0.51157492331E+02  0.47000000000E+01 0.  1.
         11    1    4    4    0    0 -0.40077881281E+02 -0.80435621831E+02 -0.77061141314E+02  0.11838304493E+03  0.00000000000E+00 0. -1.
        -12    1    4    4    0    0 -0.14739270956E+02 -0.64359809612E+02 -0.16537814428E+03  0.17807122678E+03  0.00000000000E+00 0.  1.
</event>
<event>
12    1  0.8219652E-002  0.5233012E+03  0.7818608E-02  0.1007899E+00
         21   -1    0    0  503  502  0.00000000000E+00  0.00000000000E+00  0.11639119451E+04  0.11639119451E+04  0.00000000000E+00 0.  1.
         21   -1    0    0  501  503 -0.00000000000E+00 -0.00000000000E+00 -0.34261372429E+03  0.34261372429E+03  0.00000000000E+00 0. -1.
          6    2    1    2  501    0  0.36529604824E+03  0.33321795293E+03 -0.11504523598E+02  0.52295841567E+03  0.16993452692E+03 0.  0.
         24    2    3    3    0    0  0.25666846605E+03  0.20309039161E+03 -0.68893183525E+02  0.34393695853E+03  0.80137083034E+02 0.  0.
         -6    2    1    2    0  502 -0.36529604824E+03 -0.33321795293E+03  0.83280274441E+03  0.98356725372E+03  0.17137305642E+03 0.  0.
        -24    2    5    5    0    0 -0.30181125587E+03 -0.19151515409E+03  0.54360225710E+03  0.65528534145E+03  0.78277559853E+02 0.  0.
          5    1    3    3  501    0  0.10862758219E+03  0.13012756132E+03  0.57388659927E+02  0.17902145714E+03  0.47000000000E+01 0. -1.
        -13    1    4    4    0    0  0.93369894490E+01 -0.34578050207E+01  0.78628917015E+01  0.12687034856E+02  0.00000000000E+00 0.  1.
         14    1    4    4    0    0  0.24733147660E+03  0.20654819663E+03 -0.76756075227E+02  0.33124992367E+03  0.00000000000E+00 0. -1.
         -5    1    5    5    0  502 -0.63484792375E+02 -0.14170279884E+03  0.28920048731E+03  0.32828191227E+03  0.47000000000E+01 0.  1.
         13    1    6    6    0    0 -0.17639975759E+03 -0.66719238333E+02  0.26519733480E+03  0.32541966386E+03  0.00000000000E+00 0. -1.
        -14    1    6    6    0    0 -0.12541149828E+03 -0.12479591576E+03  0.27840492230E+03  0.32986567759E+03  0.00000000000E+00 0.  1.
</event>
<event>
12    1  0.8219652E-002  0.1895438E+03  0.7818608E-02  0.1159136E+00
         21   -1    0    0  503  502  0.00000000000E+00  0.00000000000E+00  0.17881800236E+03  0.17881800236E+03  0.00000000000E+00 0. -1.
         21   -1    0    0  501  503 -0.00000000000E+00 -0.00000000000E+00 -0.32662891001E+03  0.32662891001E+03  0.00000000000E+00 0. -1.
          6    2    1    2  501    0 -0.73256091397E+02  0.11251718839E+02 -0.23159240410E+03  0.29926896277E+03  0.17445290005E+03 0.  0.
         24    2    3    3    0    0 -0.11428838615E+02  0.34540948615E+02 -0.21321200202E+03  0.23053086132E+03  0.79758540190E+02 0.  0.
         -6    2    1    2    0  502  0.73256091397E+02 -0.11251718839E+02  0.83781496460E+02  0.20617794959E+03  0.17319628069E+03 0.  0.
        -24    2    5    5    0    0 -0.17943123706E+02 -0.21004647490E+02  0.15801163302E+01  0.82923848860E+02  0.78171075454E+02 0.  0.
          5    1    3    3  501    0 -0.61827252782E+02 -0.23289229775E+02 -0.18380402082E+02  0.68738101449E+02  0.47000000000E+01 0. -1.
        -13    1    4    4    0    0  0.16360501307E+02 -0.15927816768E+02 -0.10983505954E+03  0.11218333947E+03  0.00000000000E+00 0.  1.
         14    1    4    4    0    0 -0.27789339922E+02  0.50468765383E+02 -0.10337694248E+03  0.11834752186E+03  0.00000000000E+00 0. -1.
         -5    1    5    5    0  502  0.91199215103E+02  0.97529286502E+01  0.82201380130E+02  0.12325410073E+03  0.47000000000E+01 0.  1.
         13    1    6    6    0    0  0.18571352447E+02 -0.30831428710E+02  0.19657964622E+02  0.41011068032E+02  0.00000000000E+00 0. -1.
        -14    1    6    6    0    0 -0.36514476153E+02  0.98267812207E+01 -0.18077848292E+02  0.41912780828E+02  0.00000000000E+00 0.  1.
</event>
<event>
12    1  0.8219652E-002  0.3389824E+03  0.7818608E-02  0.1067236E+00
         21   -1    0    0  501  502  0.00000000000E+00  0.00000000000E+00  0.36868918459E+03  0.36868918459E+03  0.00000000000E+00 0.  1.
         21   -1    0    0  502  503 -0.00000000000E+00 -0.00000000000E+00 -0.37251107957E+03  0.37251107957E+03  0.00000000000E+00 0.  1.
         -6    2    1    2    0  503 -0.27230325208E+03  0.10483529558E+03 -0.15174781167E+03  0.37139798266E+03  0.17253858376E+03 0.  0.
        -24    2    3    3    0    0 -0.90999678539E+02  0.15203790314E+02 -0.10822108543E+02  0.12484791408E+03  0.83413349551E+02 0.  0.
          6    2    1    2  501    0  0.27230325208E+03 -0.10483529558E+03  0.14792591669E+03  0.36980228150E+03  0.17243013159E+03 0.  0.
         24    2    5    5    0    0  0.54881584415E+02 -0.22002155716E+02  0.73996088246E+02  0.12562771246E+03  0.82527679594E+02 0.  0.
          5    1    5    5  501    0  0.21742166767E+03 -0.82833139866E+02  0.73929828443E+02  0.24417456904E+03  0.47000000000E+01 0. -1.
        -13    1    6    6    0    0  0.62362832787E+02 -0.41916695713E+02  0.72318056976E+02  0.10428822396E+03  0.00000000000E+00 0.  1.
         14    1    6    6    0    0 -0.74812483726E+01  0.19914539997E+02  0.16780312701E+01  0.21339488500E+02  0.00000000000E+00 0. -1.
         -5    1    3    3    0  503 -0.18130357354E+03  0.89631505267E+02 -0.14092570312E+03  0.24655006858E+03  0.47000000000E+01 0.  1.
         11    1    4    4    0    0 -0.96806849180E+02  0.93714923819E+00  0.11749123437E+02  0.97521721675E+02  0.00000000000E+00 0. -1.
        -12    1    4    4    0    0  0.58071706408E+01  0.14266641076E+02 -0.22571231980E+02  0.27326192408E+02  0.00000000000E+00 0.  1.
</event>
<event>
12    1  0.8219652E-002  0.2305761E+03  0.7818608E-02  0.1126344E+00
         21   -1    0    0  501  502  0.00000000000E+00  0.00000000000E+00  0.37697055225E+03  0.37697055225E+03  0.00000000000E+00 0. -1.
         21   -1    0    0  502  503 -0.00000000000E+00 -0.00000000000E+00 -0.14570664551E+03  0.14570664551E+03  0.00000000000E+00 0.  1.
         -6    2    1    2    0  503 -0.13498501096E+03 -0.74033455336E+02  0.16444405138E+03  0.28320872834E+03  0.17164915403E+03 0.  0.
        -24    2    3    3    0    0 -0.15100972445E+03 -0.58690835960E+02  0.17966931496E+03  0.25589415233E+03  0.83379873789E+02 0.  0.
          6    2    1    2  501    0  0.13498501096E+03  0.74033455336E+02  0.66819855360E+02  0.23946846942E+03  0.17081671195E+03 0.  0.
         24    2    5    5    0    0  0.13779299002E+03  0.23120417453E+02  0.73827803877E+01  0.16101543854E+03  0.79686913604E+02 0.  0.
          5    1    5    5  501    0 -0.28079790574E+01  0.50913037883E+02  0.59437074973E+02  0.78453030879E+02  0.47000000000E+01 0. -1.
        -13    1    6    6    0    0  0.26120925316E+02 -0.15955786527E+02 -0.23674111967E+02  0.38695651442E+02  0.00000000000E+00 0.  1.
         14    1    6    6    0    0  0.11167206470E+03  0.39076203981E+02  0.31056892355E+02  0.12231978710E+03  0.00000000000E+00 0. -1.
         -5    1    3    3    0  503  0.16024713487E+02 -0.15342619376E+02 -0.15225263579E+02  0.27314576012E+02  0.47000000000E+01 0.  1.
         11    1    4    4    0    0 -0.11191014932E+03 -0.60008767927E+02  0.17539843591E+03  0.21653993874E+03  0.00000000000E+00 0. -1.
        -12    1    4    4    0    0 -0.39099575124E+02  0.13179319670E+01  0.42708790579E+01  0.39354213593E+02  0.00000000000E+00 0.  1.
</event>
<event>
12    1  0.8219652E-002  0.2854586E+03  0.7818608E-02  0.1093174E+00
         21   -1    0    0  501  502  0.00000000000E+00  0.00000000000E+00  0.10167828063E+04  0.10167828063E+04  0.00000000000E+00 0. -1.
         21   -1    0    0  502  503 -0.00000000000E+00 -0.00000000000E+00 -0.98774806868E+02  0.98774806868E+02  0.00000000000E+00 0.  1.
         -6    2    1    2    0  503  0.21013610460E+03  0.74599050747E+02  0.70495111718E+03  0.75935561376E+03  0.17303950332E+03 0.  0.
        -24    2    3    3    0    0  0.22970362147E+03  0.72620173128E+02  0.58596779197E+03  0.63866623830E+03  0.80615553365E+02 0.  0.
          6    2    1    2  501    0 -0.21013610460E+03 -0.74599050747E+02  0.21305688222E+03  0.35620199937E+03  0.17822577947E+03 0.  0.
         24    2    5    5    0    0 -0.13615274790E+03 -0.27483152167E+02  0.43578406199E+02  0.16531331767E+03  0.78335950233E+02 0.  0.
          5    1    5    5  501    0 -0.73983356695E+02 -0.47115898579E+02  0.16947847602E+03  0.19088868170E+03  0.47000000000E+01 0. -1.
        -11    1    6    6    0    0 -0.46740456082E+02 -0.16181465200E+02  0.55570971097E+02  0.74395180485E+02  0.00000000000E+00 0.  1.
         12    1    6    6    0    0 -0.89412291821E+02 -0.11301686967E+02 -0.11992564898E+02  0.90918137189E+02  0.00000000000E+00 0. -1.
         -5    1    3    3    0  503 -0.19567516875E+02  0.19788776186E+01  0.11898332521E+03  0.12068937547E+03  0.47000000000E+01 0.  1.
         13    1    4    4    0    0  0.23580373732E+01 -0.27185995534E-03  0.71467488128E+02  0.71506378734E+02  0.00000000000E+00 0. -1.
        -14    1    4    4    0    0  0.22734558410E+03  0.72620444988E+02  0.51450030385E+03  0.56715985956E+03  0.00000000000E+00 0.  1.
</event>
<event>
12    1  0.8219652E-002  0.1806701E+03  0.7818608E-02  0.1167232E+00
         21   -1    0    0  503  502  0.00000000000E+00  0.00000000000E+00  0.67472097384E+03  0.67472097384E+03  0.00000000000E+00 0.  1.
         21   -1    0    0  501  503 -0.00000000000E+00 -0.00000000000E+00 -0.54446835303E+02  0.54446835303E+02  0.00000000000E+00 0.  1.
          6    2    1    2  501    0 -0.46682136553E+02  0.31561065109E+02  0.18733626258E+03  0.26004428092E+03  0.17132667643E+03 0.  0.
         24    2    3    3    0    0 -0.55872076136E+02 -0.36818619825E+02  0.74860904658E+02  0.12801007156E+03  0.79404809151E+02 0.  0.
         -6    2    1    2    0  502  0.46682136553E+02 -0.31561065109E+02  0.43293787596E+03  0.46912352823E+03  0.17165767560E+03 0.  0.
        -24    2    5    5    0    0  0.70615026685E+02  0.32080754850E+02  0.25861316008E+03  0.28194911479E+03  0.81233490273E+02 0.  0.
          5    1    3    3  501    0  0.91899395833E+01  0.68379684934E+02  0.11247535792E+03  0.13203420936E+03  0.47000000000E+01 0. -1.
        -13    1    4    4    0    0  0.11718154228E+02 -0.20676132756E+02 -0.26455280494E+01  0.23912683307E+02  0.00000000000E+00 0.  1.
         14    1    4    4    0    0 -0.67590230364E+02 -0.16142487068E+02  0.77506432707E+02  0.10409738825E+03  0.00000000000E+00 0. -1.
         -5    1    5    5    0  502 -0.23932890132E+02 -0.63641819960E+02  0.17432471588E+03  0.18717441343E+03  0.47000000000E+01 0.  1.
         13    1    6    6    0    0  0.65285341319E+01 -0.15853534816E+02  0.80982582660E+01  0.18961490211E+02  0.00000000000E+00 0. -1.
        -14    1    6    6    0    0  0.64086492553E+02  0.47934289667E+02  0.25051490181E+03  0.26298762458E+03  0.00000000000E+00 0.  1.
</event>
<event>
12    1  0.8219652E-002  0.2430174E+03  0.7818608E-02  0.1118004E+00
         21   -1    0    0  503  502  0.00000000000E+00  0.00000000000E+00  0.34349978381E+03  0.34349978381E+03  0.00000000000E+00 0. -1.
         21   -1    0    0  501  503 -0.00000000000E+00 -0.00000000000E+00 -0.18926152140E+03  0.18926152140E+03  0.00000000000E+00 0. -1.
          6    2    1    2  501    0 -0.16587789031E+03  0.44484728123E+02 -0.56947080844E+01  0.24183858367E+03  0.17017375039E+03 0.  0.
         24    2    3    3    0    0 -0.18381648961E+02 -0.10347631129E+02 -0.20330291965E+02  0.83730964785E+02  0.78438480378E+02 0.  0.
         -6    2    1    2    0  502  0.16587789031E+03 -0.44484728123E+02  0.15993297049E+03  0.29092272154E+03  0.17193926057E+03 0.  0.
        -24    2    5    5    0    0  0.17494477967E+03 -0.11848925735E+01  0.15348240322E+03  0.24596958973E+03  0.79605973817E+02 0.  0.
          5    1    3    3  501    0 -0.14749624135E+03  0.54832359252E+02  0.14635583880E+02  0.15810761888E+03  0.47000000000E+01 0. -1.
        -11    1    4    4    0    0 -0.38017246858E+02 -0.17345601138E+02  0.13569166903E+02  0.43935216262E+02  0.00000000000E+00 0.  1.
         12    1    4    4    0    0  0.19635597897E+02  0.69979700087E+01 -0.33899458868E+02  0.39795748524E+02  0.00000000000E+00 0. -1.
         -5    1    5    5    0  502 -0.90668893597E+01 -0.43299835550E+02  0.64505672710E+01  0.44953131809E+02  0.47000000000E+01 0.  1.
         13    1    6    6    0    0  0.15338268691E+03 -0.10121594028E+02  0.15985877549E+03  0.22177358592E+03  0.00000000000E+00 0. -1.
        -14    1    6    6    0    0  0.21562092760E+02  0.89367014540E+01 -0.63763722676E+01  0.24196003810E+02  0.00000000000E+00 0.  1.
</event>
<event>
12    1  0.8219652E-002  0.1732338E+03  0.7818608E-02  0.1174659E+00
         21   -1    0    0  501  502  0.00000000000E+00  0.00000000000E+00  0.16197123803E+03  0.16197123803E+03  0.00000000000E+00 0. -1.
         21   -1    0    0  502  503 -0.00000000000E+00 -0.00000000000E+00 -0.18729318133E+03  0.18729318133E+03  0.00000000000E+00 0. -1.
         -6    2    1    2    0  503  0.72158381562E+01 -0.17733238980E+01 -0.33290373208E+02  0.17640352496E+03  0.17307438191E+03 0.  0.
        -24    2    3    3    0    0 -0.15368023381E+02 -0.59658951107E+02 -0.49039609825E+01  0.10792977059E+03  0.88484009606E+02 0.  0.
          6    2    1    2  501    0 -0.72158381562E+01  0.17733238980E+01  0.79684299099E+01  0.17286089439E+03  0.17251718737E+03 0.  0.
         24    2    5    5    0    0 -0.17435979898E+02 -0.99568792612E+01  0.71927301826E+02  0.10686940812E+03  0.76448550050E+02 0.  0.
          5    1    5    5  501    0  0.10220141742E+02  0.11730203159E+02 -0.63958871916E+02  0.65991486270E+02  0.47000000000E+01 0. -1.
        -11    1    6    6    0    0 -0.22652262102E+02  0.11966742612E+01  0.85550249370E+02  0.88506509223E+02  0.00000000000E+00 0.  1.
         12    1    6    6    0    0  0.52162822039E+01 -0.11153553522E+02 -0.13622947543E+02  0.18362898899E+02  0.00000000000E+00 0. -1.
         -5    1    3    3    0  503  0.22583861537E+02  0.57885627209E+02 -0.28386412225E+02  0.68473754376E+02  0.47000000000E+01 0.  1.
         13    1    4    4    0    0  0.20557029675E+02 -0.61659501979E+02  0.15149313853E+02  0.66738200182E+02  0.00000000000E+00 0. -1.
        -14    1    4    4    0    0 -0.35925053056E+02  0.20005508719E+01 -0.20053274835E+02  0.41191570406E+02  0.00000000000E+00 0.  1.
</event>
<event>
12    1  0.8219652E-002  0.1727344E+03  0.7818608E-02  0.1175134E+00
         21   -1    0    0  501  502  0.00000000000E+00  0.00000000000E+00  0.33653978422E+03  0.33653978422E+03  0.00000000000E+00 0.  1.
         21   -1    0    0  502  503 -0.00000000000E+00 -0.00000000000E+00 -0.15680758865E+03  0.15680758865E+03  0.00000000000E+00 0.  1.
         -6    2    1    2    0  503  0.48702461124E+01 -0.58184851986E+01 -0.72948891668E+02  0.18750654765E+03  0.17256764050E+03 0.  0.
        -24    2    3    3    0    0  0.19925446933E+02  0.46646301410E+02  0.21495370198E+01  0.94549154738E+02  0.79762279816E+02 0.  0.
          6    2    1    2  501    0 -0.48702461124E+01  0.58184851986E+01  0.25268108723E+03  0.30584082522E+03  0.17214326724E+03 0.  0.
         24    2    5    5    0    0  0.64679242200E+02  0.25410606031E+02  0.19356846822E+03  0.21236690239E+03  0.52932467052E+02 0.  0.
          5    1    5    5  501    0 -0.69549488312E+02 -0.19592120832E+02  0.59112619008E+02  0.93473922830E+02  0.47000000000E+01 0. -1.
        -11    1    6    6    0    0  0.55182076618E+02  0.31141360504E+02  0.19064066896E+03  0.20089477488E+03  0.00000000000E+00 0.  1.
         12    1    6    6    0    0  0.94971655817E+01 -0.57307544733E+01  0.29277992644E+01  0.11472127503E+02  0.00000000000E+00 0. -1.
         -5    1    3    3    0  503 -0.15055200821E+02 -0.52464786609E+02 -0.75098428688E+02  0.92957392912E+02  0.47000000000E+01 0.  1.
         11    1    4    4    0    0 -0.55438898506E+01 -0.14947894982E+02  0.19972202475E+02  0.25555100289E+02  0.00000000000E+00 0. -1.
        -12    1    4    4    0    0  0.25469336784E+02  0.61594196392E+02 -0.17822665455E+02  0.68994054449E+02  0.00000000000E+00 0.  1.
</event>
<event>
12    1  0.8219652E-002  0.2755911E+03  0.7818608E-02  0.1098147E+00
         21   -1    0    0  503  502  0.00000000000E+00  0.00000000000E+00  0.23238665621E+03  0.23238665621E+03  0.00000000000E+00 0. -1.
         21   -1    0    0  501  503 -0.00000000000E+00 -0.00000000000E+00 -0.39503243029E+03  0.39503243029E+03  0.00000000000E+00 0. -1.
          6    2    1    2  501    0 -0.18945495304E+03  0.10200411287E+03  0.49252761578E+02  0.27978216969E+03  0.17191337841E+03 0.  0.
         24    2    3    3    0    0 -0.25470643349E+02  0.37182198387E+02 -0.13044735183E+02  0.92710518907E+02  0.79961275943E+02 0.  0.
         -6    2    1    2    0  502  0.18945495304E+03 -0.10200411287E+03 -0.21189853566E+03  0.34763691681E+03  0.17219877538E+03 0.  0.
        -24    2    5    5    0    0  0.74446223033E+02  0.17143129724E+02 -0.74631476754E+02  0.13249182889E+03  0.78409823238E+02 0.  0.
          5    1    3    3  501    0 -0.16398430969E+03  0.64821914480E+02  0.62297496762E+02  0.18707165078E+03  0.47000000000E+01 0. -1.
        -11    1    4    4    0    0  0.93489731537E+01  0.52715713429E+02 -0.99765365258E+01  0.54459902886E+02  0.00000000000E+00 0.  1.
         12    1    4    4    0    0 -0.34819616503E+02 -0.15533515041E+02 -0.30681986575E+01  0.38250616021E+02  0.00000000000E+00 0. -1.
         -5    1    5    5    0  502  0.11500873001E+03 -0.11914724259E+03 -0.13726705890E+03  0.21514508792E+03  0.47000000000E+01 0.  1.
         13    1    6    6    0    0  0.17747294942E+02 -0.24486597455E+02 -0.49090080836E+02  0.57657575124E+02  0.00000000000E+00 0. -1.
        -14    1    6    6    0    0  0.56698928091E+02  0.41629727179E+02 -0.25541395918E+02  0.74834253768E+02  0.00000000000E+00 0.  1.
</event>
<event>
12    1  0.8219652E-002  0.2002005E+03  0.7818608E-02  0.1150003E+00
         21   -1    0    0  501  502  0.00000000000E+00  0.00000000000E+00  0.20661869921E+03  0.20661869921E+03  0.00000000000E+00 0. -1.
         21   -1    0    0  502  503 -0.00000000000E+00 -0.00000000000E+00 -0.19701440046E+03  0.19701440046E+03  0.00000000000E+00 0. -1.
         -6    2    1    2    0  503 -0.84074478169E+02 -0.49621369815E+02  0.37008083636E+02  0.20359231946E+03  0.17478396971E+03 0.  0.
        -24    2    3    3    0    0 -0.11923141657E+03 -0.13517320228E+02  0.41763750606E+01  0.14326385353E+03  0.78155236385E+02 0.  0.
          6    2    1    2  501    0  0.84074478169E+02  0.49621369815E+02 -0.27403784890E+02  0.20004078020E+03  0.17243708446E+03 0.  0.
         24    2    5    5    0    0  0.70384515447E+02  0.49312588366E+02  0.45751465828E+02  0.12546671546E+03  0.79139046468E+02 0.  0.
          5    1    5    5  501    0  0.13689962722E+02  0.30878144930E+00 -0.73155250719E+02  0.74574064748E+02  0.47000000000E+01 0. -1.
        -13    1    6    6    0    0  0.75193943977E+02  0.64607071338E+02  0.31516441380E+02  0.10402638586E+03  0.00000000000E+00 0.  1.
         14    1    6    6    0    0 -0.48094285305E+01 -0.15294482972E+02  0.14235024449E+02  0.21440329597E+02  0.00000000000E+00 0. -1.
         -5    1    3    3    0  503  0.35156938404E+02 -0.36104049587E+02  0.32831708575E+02  0.60328465938E+02  0.47000000000E+01 0.  1.
         13    1    4    4    0    0 -0.32045762527E+02  0.24536757753E+02 -0.20096779702E+02  0.45087292349E+02  0.00000000000E+00 0. -1.
        -14    1    4    4    0    0 -0.87185654046E+02 -0.38054077982E+02  0.24273154763E+02  0.98176561177E+02  0.00000000000E+00 0.  1.
</event>
<event>
12    1  0.8219652E-002  0.2091612E+03  0.7818608E-02  0.1143848E+00
         21   -1    0    0  503  502  0.00000000000E+00  0.00000000000E+00  0.59607070759E+02  0.59607070759E+02  0.00000000000E+00 0.  1.
         21   -1    0    0  501  503 -0.00000000000E+00 -0.00000000000E+00 -0.25586766674E+04  0.25586766674E+04  0.00000000000E+00 0.  1.
          6    2    1    2  501    0  0.76381751316E+02  0.75664183389E+02 -0.23566846342E+04  0.23652582677E+04  0.17007341704E+03 0.  0.
         24    2    3    3    0    0  0.11459646362E+03  0.49237427322E+02 -0.20155503254E+04  0.20209423599E+04  0.78792349409E+02 0.  0.
         -6    2    1    2    0  502 -0.76381751316E+02 -0.75664183389E+02 -0.14238496238E+03  0.25302547042E+03  0.17941340693E+03 0.  0.
        -24    2    5    5    0    0 -0.11880067061E+03 -0.56451954903E+02 -0.13697789642E+03  0.20591070840E+03  0.79598072698E+02 0.  0.
          5    1    3    3  501    0 -0.38214712301E+02  0.26426756067E+02 -0.34113430884E+03  0.34431590776E+03  0.47000000000E+01 0. -1.
        -11    1    4    4    0    0 -0.85548303542E+01 -0.76865278630E+01 -0.19960018257E+03  0.19993123997E+03  0.00000000000E+00 0.  1.
         12    1    4    4    0    0  0.12315129397E+03  0.56923955185E+02 -0.18159501428E+04  0.18210111200E+04  0.00000000000E+00 0. -1.
         -5    1    5    5    0  502  0.42418919294E+02 -0.19212228485E+02 -0.54070659621E+01  0.47114762015E+02  0.47000000000E+01 0.  1.
         11    1    6    6    0    0 -0.15822630655E+02 -0.47681839354E+02 -0.40562759368E+02  0.64569736662E+02  0.00000000000E+00 0. -1.
        -12    1    6    6    0    0 -0.10297803995E+03 -0.87701155489E+01 -0.96415137051E+02  0.14134097174E+03  0.00000000000E+00 0.  1.
</event>
<event>
12    1  0.8219652E-002  0.3767288E+03  0.7818608E-02  0.1052170E+00
         21   -1    0    0  503  502  0.00000000000E+00  0.00000000000E+00  0.99211276840E+03  0.99211276840E+03  0.00000000000E+00 0.  1.
         21   -1    0    0  501  503 -0.00000000000E+00 -0.00000000000E+00 -0.18057741168E+03  0.18057741168E+03  0.00000000000E+00 0. -1.
          6    2    1    2  501    0 -0.30628052291E+03  0.13574520189E+03  0.67325849381E+03  0.77138600129E+03  0.17182795160E+03 0.  0.
         24    2    3    3    0    0 -0.11196757323E+03  0.93313030332E+02  0.21205357146E+03  0.26910113989E+03  0.78769583181E+02 0.  0.
         -6    2    1    2    0  502  0.30628052291E+03 -0.13574520189E+03  0.13827686291E+03  0.40130417879E+03  0.17230796428E+03 0.  0.
        -24    2    5    5    0    0  0.12437433867E+03  0.17540247650E+01  0.76525159073E+02  0.16501778452E+03  0.76829138441E+02 0.  0.
          5    1    3    3  501    0 -0.19431294967E+03  0.42432171555E+02  0.46120492235E+03  0.50228486140E+03  0.47000000000E+01 0. -1.
        -11    1    4    4    0    0 -0.99226742105E+02  0.10208566073E+03  0.20969273142E+03  0.25345309248E+03  0.00000000000E+00 0.  1.
         12    1    4    4    0    0 -0.12740831129E+02 -0.87726304030E+01  0.23608400406E+01  0.15648047410E+02  0.00000000000E+00 0. -1.
         -5    1    5    5    0  502  0.18190618424E+03 -0.13749922665E+03  0.61751703833E+02  0.23628639428E+03  0.47000000000E+01 0.  1.
         11    1    6    6    0    0  0.10377973663E+03  0.13145863929E+02  0.23805831257E+02  0.10728357319E+03  0.00000000000E+00 0. -1.
        -12    1    6    6    0    0  0.20594602038E+02 -0.11391839164E+02  0.52719327816E+02  0.57734211331E+02  0.00000000000E+00 0.  1.
</event>
<event>
12    1  0.8219652E-002  0.2272050E+03  0.7818608E-02  0.1128724E+00
         21   -1    0    0  501  502  0.00000000000E+00  0.00000000000E+00  0.14000179058E+03  0.14000179058E+03  0.00000000000E+00 0. -1.
         21   -1    0    0  502  503 -0.00000000000E+00 -0.00000000000E+00 -0.37101030114E+03  0.37101030114E+03  0.00000000000E+00 0. -1.
         -6    2    1    2    0  503 -0.14683614601E+03  0.11062663429E+02 -0.91605461697E+02  0.24445006397E+03  0.17228185298E+03 0.  0.
        -24    2    3    3    0    0 -0.91000590983E+02  0.70360012992E+02 -0.83399528066E+02  0.16245486767E+03  0.78768418539E+02 0.  0.
          6    2    1    2  501    0  0.14683614601E+03 -0.11062663429E+02 -0.13940304886E+03  0.26656202774E+03  0.17302851876E+03 0.  0.
         24    2    5    5    0    0  0.81314379698E+02 -0.32619562415E+02 -0.15583256362E+03  0.19549993722E+03  0.79122521263E+02 0.  0.
          5    1    5    5  501    0  0.65521766313E+02  0.21556898986E+02  0.16429514754E+02  0.71062090525E+02  0.47000000000E+01 0. -1.
        -13    1    6    6    0    0 -0.37552722208E+01 -0.29096914280E+02 -0.21170212357E+02  0.36178866501E+02  0.00000000000E+00 0.  1.
         14    1    6    6    0    0  0.85069651919E+02 -0.35226481351E+01 -0.13466235126E+03  0.15932107072E+03  0.00000000000E+00 0. -1.
         -5    1    3    3    0  503 -0.55835555028E+02 -0.59297349563E+02 -0.82059336312E+01  0.81995196306E+02  0.47000000000E+01 0.  1.
         13    1    4    4    0    0 -0.67478018684E+02  0.21047048168E+02 -0.81366579185E+02  0.10778117391E+03  0.00000000000E+00 0. -1.
        -14    1    4    4    0    0 -0.23522572300E+02  0.49312964824E+02 -0.20329488814E+01  0.54673693752E+02  0.00000000000E+00 0.  1.
</event>
<event>
12    1  0.8219652E-002  0.4657351E+03  0.7818608E-02  0.1023142E+00
         21   -1    0    0  503  502  0.00000000000E+00  0.00000000000E+00  0.37968352032E+03  0.37968352032E+03  0.00000000000E+00 0. -1.
         21   -1    0    0  501  503 -0.00000000000E+00 -0.00000000000E+00 -0.85507716645E+03  0.85507716645E+03  0.00000000000E+00 0.  1.
          6    2    1    2  501    0 -0.75810758998E+02 -0.42610559342E+03 -0.59345937194E+03  0.75429351260E+03  0.17161418670E+03 0.  0.
         24    2    3    3    0    0 -0.60883611750E+02 -0.43402915761E+03 -0.55968991483E+03  0.71624001304E+03  0.87514751225E+02 0.  0.
         -6    2    1    2    0  502  0.75810758998E+02  0.42610559342E+03  0.11806572582E+03  0.48046717417E+03  0.17203471139E+03 0.  0.
        -24    2    5    5    0    0  0.10227088030E+03  0.26121794745E+03  0.11583965237E+03  0.31338899123E+03  0.78100484855E+02 0.  0.
          5    1    3    3  501    0 -0.14927147248E+02  0.79235641970E+01 -0.33769457116E+02  0.38053499556E+02  0.47000000000E+01 0. -1.
        -13    1    4    4    0    0  0.85401960272E+01 -0.25148690598E+03 -0.31572198562E+03  0.40373131044E+03  0.00000000000E+00 0.  1.
         14    1    4    4    0    0 -0.69423807777E+02 -0.18254225163E+03 -0.24396792921E+03  0.31250870260E+03  0.00000000000E+00 0. -1.
         -5    1    5    5    0  502 -0.26460121303E+02  0.16488764597E+03  0.22260734425E+01  0.16707818294E+03  0.47000000000E+01 0.  1.
         11    1    6    6    0    0  0.11539749719E+03  0.23829689004E+03  0.10449969123E+03  0.28464394536E+03  0.00000000000E+00 0. -1.
        -12    1    6    6    0    0 -0.13126616885E+02  0.22921057406E+02  0.11339961144E+02  0.28745045873E+02  0.00000000000E+00 0.  1.
</event>
<event>
12    1  0.8219652E-002  0.2305797E+03  0.7818608E-02  0.1126293E+00
         21   -1    0    0  501  502  0.00000000000E+00  0.00000000000E+00  0.17544546575E+03  0.17544546575E+03  0.00000000000E+00 0. -1.
         21   -1    0    0  502  503 -0.00000000000E+00 -0.00000000000E+00 -0.57865450625E+03  0.57865450625E+03  0.00000000000E+00 0.  1.
         -6    2    1    2    0  503 -0.15246127177E+03 -0.15724784886E+01 -0.46211850842E+03  0.51644992646E+03  0.17297427160E+03 0.  0.
        -24    2    3    3    0    0 -0.14374514173E+03  0.52638094889E+02 -0.37173238334E+03  0.41058917454E+03  0.83456998665E+02 0.  0.
          6    2    1    2  501    0  0.15246127177E+03  0.15724784886E+01  0.58909467916E+02  0.23765004554E+03  0.17251175802E+03 0.  0.
         24    2    5    5    0    0  0.98041205921E+02  0.46079973332E+02 -0.16008019181E+02  0.13480462494E+03  0.78616717222E+02 0.  0.
          5    1    5    5  501    0  0.54420065852E+02 -0.44507494843E+02  0.74917487097E+02  0.10284542060E+03  0.47000000000E+01 0. -1.
        -13    1    6    6    0    0  0.32963348107E+02  0.58855572788E+02 -0.10296537630E+02  0.68239134328E+02  0.00000000000E+00 0.  1.
         14    1    6    6    0    0  0.65077857814E+02 -0.12775599456E+02 -0.57114815507E+01  0.66565490614E+02  0.00000000000E+00 0. -1.
         -5    1    3    3    0  503 -0.87161300422E+01 -0.54210573378E+02 -0.90386125081E+02  0.10586075192E+03  0.47000000000E+01 0.  1.
         13    1    4    4    0    0 -0.42227389791E+01  0.33162080475E+02 -0.67616205066E+02  0.75428816068E+02  0.00000000000E+00 0. -1.
        -14    1    4    4    0    0 -0.13952240275E+03  0.19476014414E+02 -0.30411617827E+03  0.33516035848E+03  0.00000000000E+00 0.  1.
</event>
<event>
12    1  0.8219652E-002  0.1788245E+03  0.7818608E-02  0.1170642E+00
         21   -1    0    0  501  502  0.00000000000E+00  0.00000000000E+00  0.47069796377E+03  0.47069796377E+03  0.00000000000E+00 0. -1.
         21   -1    0    0  502  503 -0.00000000000E+00 -0.00000000000E+00 -0.75429890014E+02  0.75429890014E+02  0.00000000000E+00 0. -1.
         -6    2    1    2    0  503  0.46494544401E+02 -0.71732543200E+01  0.10128101340E+03  0.20551407541E+03  0.17252534098E+03 0.  0.
        -24    2    3    3    0    0  0.87160868094E+02 -0.29404984273E+02  0.41282870393E+02  0.12955443571E+03  0.81353588717E+02 0.  0.
          6    2    1    2  501    0 -0.46494544401E+02  0.71732543200E+01  0.29398706036E+03  0.34061377838E+03  0.16545741484E+03 0.  0.
         24    2    5    5    0    0  0.22992878473E+02 -0.30942284635E+02  0.18946109020E+03  0.20935424658E+03  0.80296939080E+02 0.  0.
          5    1    5    5  501    0 -0.69487422874E+02  0.38115538955E+02  0.10452597016E+03  0.13125953179E+03  0.47000000000E+01 0. -1.
        -13    1    6    6    0    0  0.51444675872E+02 -0.74954122340E+01  0.10360382064E+03  0.11591586402E+03  0.00000000000E+00 0.  1.
         14    1    6    6    0    0 -0.28451797399E+02 -0.23446872401E+02  0.85857269558E+02  0.93438382566E+02  0.00000000000E+00 0. -1.
         -5    1    3    3    0  503 -0.40666323693E+02  0.22231729953E+02  0.59998143009E+02  0.75959639704E+02  0.47000000000E+01 0.  1.
         11    1    4    4    0    0  0.29971608524E+01 -0.29265260421E+02  0.34172197919E+02  0.45090770134E+02  0.00000000000E+00 0. -1.
        -12    1    4    4    0    0  0.84163707241E+02 -0.13972385222E+00  0.71106724736E+01  0.84463665575E+02  0.00000000000E+00 0.  1.
</event>
<event>
12    1  0.8219652E-002  0.2213086E+03  0.7818608E-02  0.1133429E+00
         21   -1    0    0  503  502  0.00000000000E+00  0.00000000000E+00  0.91552004589E+02  0.91552004589E+02  0.00000000000E+00 0. -1.
         21   -1    0    0  501  503 -0.00000000000E+00 -0.00000000000E+00 -0.17740448541E+04  0.17740448541E+04  0.00000000000E+00 0. -1.
          6    2    1    2  501    0 -0.95156830578E+02 -0.10305752912E+03 -0.16244984221E+04  0.16395037778E+04  0.17117779383E+03 0.  0.
         24    2    3    3    0    0 -0.79012544696E+02  0.29254483839E+01 -0.77200610823E+03  0.78028421052E+03  0.81231013612E+02 0.  0.
         -6    2    1    2    0  502  0.95156830578E+02  0.10305752912E+03 -0.57994427341E+02  0.22609308088E+03  0.16756804858E+03 0.  0.
        -24    2    5    5    0    0  0.30789145894E+02  0.49451327954E+02 -0.92889634270E+02  0.13522730568E+03  0.79148813677E+02 0.  0.
          5    1    3    3  501    0 -0.16144285883E+02 -0.10598297751E+03 -0.85249231391E+03  0.85921956726E+03  0.47000000000E+01 0. -1.
        -11    1    4    4    0    0 -0.62066910858E+02 -0.35184079229E+02 -0.45905356308E+03  0.46456473675E+03  0.00000000000E+00 0.  1.
         12    1    4    4    0    0 -0.16945633838E+02  0.38109527613E+02 -0.31295254516E+03  0.31571947378E+03  0.00000000000E+00 0. -1.
         -5    1    5    5    0  502  0.64367684684E+02  0.53606201170E+02  0.34895206929E+02  0.90865775196E+02  0.47000000000E+01 0.  1.
         13    1    6    6    0    0  0.52643291758E+02  0.11579821910E+02 -0.43511449547E+02  0.69272322642E+02  0.00000000000E+00 0. -1.
        -14    1    6    6    0    0 -0.21854145864E+02  0.37871506044E+02 -0.49378184723E+02  0.65954983042E+02  0.00000000000E+00 0.  1.
</event>
<event>
12    1  0.8219652E-002  0.1850831E+03  0.7818608E-02  0.1163089E+00
         21   -1    0    0  501  502  0.00000000000E+00  0.00000000000E+00  0.27553502687E+03  0.27553502687E+03  0.00000000000E+00 0.  1.
         21   -1    0    0  502  503 -0.00000000000E+00 -0.00000000000E+00 -0.58034479389E+03  0.58034479389E+03  0.00000000000E+00 0. -1.
         -6    2    1    2    0  503 -0.71206032803E+01  0.68681649908E+02 -0.53184336415E+03  0.56296345547E+03  0.17118006947E+03 0.  0.
        -24    2    3    3    0    0 -0.50169622346E+01  0.91238819348E+02 -0.22007545861E+03  0.25033817159E+03  0.76722230203E+02 0.  0.
          6    2    1    2  501    0  0.71206032803E+01 -0.68681649908E+02  0.22703359713E+03  0.29291636529E+03  0.17172032728E+03 0.  0.
         24    2    5    5    0    0  0.51337509826E+02 -0.69227222864E+02  0.90190490252E+02  0.14902905391E+03  0.81531503584E+02 0.  0.
          5    1    5    5  501    0 -0.44216906545E+02  0.54557295523E+00  0.13684310688E+03  0.14388731138E+03  0.47000000000E+01 0. -1.
        -11    1    6    6    0    0  0.48568975049E+02 -0.57057867363E+02  0.10542162995E+03  0.12933779659E+03  0.00000000000E+00 0.  1.
         12    1    6    6    0    0  0.27685347768E+01 -0.12169355500E+02 -0.15231139702E+02  0.19691257317E+02  0.00000000000E+00 0. -1.
         -5    1    3    3    0  503 -0.21036410457E+01 -0.22557169440E+02 -0.31176790554E+03  0.31262528388E+03  0.47000000000E+01 0.  1.
         13    1    4    4    0    0 -0.32717843270E+02  0.11765190228E+02 -0.73750711849E+02  0.81535541131E+02  0.00000000000E+00 0. -1.
        -14    1    4    4    0    0  0.27700881035E+02  0.79473629120E+02 -0.14632474676E+03  0.16880263046E+03  0.00000000000E+00 0.  1.
</event>
<event>
12    1  0.8219652E-002  0.2017440E+03  0.7818608E-02  0.1149279E+00
         21   -1    0    0  501  502  0.00000000000E+00  0.00000000000E+00  0.49354760229E+02  0.49354760229E+02  0.00000000000E+00 0.  1.
         21   -1    0    0  502  503 -0.00000000000E+00 -0.00000000000E+00 -0.11515793578E+04  0.11515793578E+04  0.00000000000E+00 0. -1.
         -6    2    1    2    0  503  0.10412666517E+03 -0.44680959129E+01 -0.87575239576E+03  0.89763509452E+03  0.16716512178E+03 0.  0.
        -24    2    3    3    0    0  0.77443236105E+02 -0.53453068247E+02 -0.75108083964E+03  0.76097266439E+03  0.78117110493E+02 0.  0.
          6    2    1    2  501    0 -0.10412666517E+03  0.44680959129E+01 -0.22647220181E+03  0.30329902352E+03  0.17273770056E+03 0.  0.
         24    2    5    5    0    0  0.43361390651E+01 -0.75106210323E+01 -0.14493131362E+03  0.16699540651E+03  0.82505567079E+02 0.  0.
          5    1    5    5  501    0 -0.10846280423E+03  0.11978716945E+02 -0.81540888195E+02  0.13630361701E+03  0.47000000000E+01 0. -1.
        -11    1    6    6    0    0  0.13163811028E+00  0.12158367671E+02  0.68036629183E+01  0.13933164110E+02  0.00000000000E+00 0.  1.
         12    1    6    6    0    0  0.42045009548E+01 -0.19668988704E+02 -0.15173497653E+03  0.15306224240E+03  0.00000000000E+00 0. -1.
         -5    1    3    3    0  503  0.26683429061E+02  0.48984972334E+02 -0.12467155612E+03  0.13666243012E+03  0.47000000000E+01 0.  1.
         11    1    4    4    0    0  0.13015937472E+02 -0.26633165949E+02 -0.48458590167E+03  0.48549174684E+03  0.00000000000E+00 0. -1.
        -12    1    4    4    0    0  0.64427298633E+02 -0.26819902299E+02 -0.26649493797E+03  0.27548091755E+03  0.00000000000E+00 0.  1.
</event>
<event>
12    1  0.8219652E-002  0.1765933E+03  0.7818608E-02  0.1171356E+00
         21   -1    0    0  503  502  0.00000000000E+00  0.00000000000E+00  0.40164034139E+02  0.40164034139E+02  0.00000000000E+00 0. -1.
         21   -1    0    0  501  503 -0.00000000000E+00 -0.00000000000E+00 -0.12674530698E+04  0.12674530698E+04  0.00000000000E+00 0. -1.
          6    2    1    2  501    0  0.28573430184E+02 -0.26495303757E+02 -0.10230629329E+04  0.10381921536E+04  0.17224035836E+03 0.  0.
         24    2    3    3    0    0 -0.31685615802E+02  0.18133949196E+02 -0.73254884030E+03  0.73811974425E+03  0.82825932315E+02 0.  0.
         -6    2    1    2    0  502 -0.28573430184E+02  0.26495303757E+02 -0.20422610279E+03  0.26942495039E+03  0.17135653124E+03 0.  0.
        -24    2    5    5    0    0 -0.38349146011E+02  0.56504674557E+02 -0.65973744696E+02  0.12753791266E+03  0.85146631938E+02 0.  0.
          5    1    3    3  501    0  0.60259045985E+02 -0.44629252953E+02 -0.29051409257E+03  0.30007240931E+03  0.47000000000E+01 0. -1.
        -13    1    4    4    0    0 -0.40650183919E+02  0.20448844202E+02 -0.18574562471E+03  0.19123814939E+03  0.00000000000E+00 0.  1.
         14    1    4    4    0    0  0.89645681169E+01 -0.23148950058E+01 -0.54680321559E+03  0.54688159486E+03  0.00000000000E+00 0. -1.
         -5    1    5    5    0  502  0.97757158278E+01 -0.30009370801E+02 -0.13825235810E+03  0.14188703773E+03  0.47000000000E+01 0.  1.
         13    1    6    6    0    0 -0.54345375970E+02  0.42881964886E+01 -0.31664596515E+02  0.63043280299E+02  0.00000000000E+00 0. -1.
        -14    1    6    6    0    0  0.15996229958E+02  0.52216478069E+02 -0.34309148182E+02  0.64494632364E+02  0.00000000000E+00 0.  1.
</event>
<event>
12    1  0.8219652E-002  0.2105309E+03  0.7818608E-02  0.1141986E+00
         21   -1    0    0  501  502  0.00000000000E+00  0.00000000000E+00  0.35353903701E+03  0.35353903701E+03  0.00000000000E+00 0. -1.
         21   -1    0    0  502  503 -0.00000000000E+00 -0.00000000000E+00 -0.39604129909E+03  0.39604129909E+03  0.00000000000E+00 0.  1.
         -6    2    1    2    0  503  0.58617483492E+02 -0.98103323801E+02 -0.33244425918E+03  0.39126537118E+03  0.17178222759E+03 0.  0.
        -24    2    3    3    0    0 -0.32067114498E+02 -0.64014166985E+02 -0.14621762855E+03  0.18129343287E+03  0.79759642026E+02 0.  0.
          6    2    1    2  501    0 -0.58617483492E+02  0.98103323801E+02  0.28994199709E+03  0.35831496491E+03  0.17681340699E+03 0.  0.
         24    2    5    5    0    0  0.78922455280E+01  0.55977729083E+02  0.63499369840E+02  0.11853076355E+03  0.82592846212E+02 0.  0.
          5    1    5    5  501    0 -0.66509729020E+02  0.42125594718E+02  0.22644262725E+03  0.23978420136E+03  0.47000000000E+01 0. -1.
        -13    1    6    6    0    0  0.40962612255E+02  0.52717607070E+02  0.39946798417E+02  0.77799925461E+02  0.00000000000E+00 0.  1.
         14    1    6    6    0    0 -0.33070366727E+02  0.32601220132E+01  0.23552571424E+02  0.40730838092E+02  0.00000000000E+00 0. -1.
         -5    1    3    3    0  503  0.90684597989E+02 -0.34089156815E+02 -0.18622663063E+03  0.20997193831E+03  0.47000000000E+01 0.  1.
         13    1    4    4    0    0  0.32784444432E+01 -0.36503581378E+02 -0.10130249904E+02  0.38024750025E+02  0.00000000000E+00 0. -1.
        -14    1    4    4    0    0 -0.35345558941E+02 -0.27510585607E+02 -0.13608737865E+03  0.14326868284E+03  0.00000000000E+00 0.  1.
</event>
<event>
12    1  0.8219652E-002  0.2024698E+03  0.7818608E-02  0.1147732E+00
         21   -1    0    0  501  502  0.00000000000E+00  0.00000000000E+00  0.56649311939E+03  0.56649311939E+03  0.00000000000E+00 0. -1.
         21   -1    0    0  502  503 -0.00000000000E+00 -0.00000000000E+00 -0.10250558696E+03  0.10250558696E+03  0.00000000000E+00 0.  1.
         -6    2    1    2    0  503 -0.27669932259E+02  0.10354902168E+03  0.50183028818E+02  0.20831639378E+03  0.17143324793E+03 0.  0.
        -24    2    3    3    0    0  0.28482335915E+01  0.24082665031E+02  0.81763584305E+02  0.11740059884E+03  0.80681656527E+02 0.  0.
          6    2    1    2  501    0  0.27669932259E+02 -0.10354902168E+03  0.41380450361E+03  0.46068231256E+03  0.17177310865E+03 0.  0.
         24    2    5    5    0    0 -0.20173489636E+02 -0.99171587688E+02  0.18043758573E+03  0.22237502499E+03  0.81553392981E+02 0.  0.
          5    1    5    5  501    0  0.47843421894E+02 -0.43774339869E+01  0.23336691789E+03  0.23830728757E+03  0.47000000000E+01 0. -1.
        -11    1    6    6    0    0  0.14566191516E+02 -0.99668011312E+01 -0.51825002046E+00  0.17657283006E+02  0.00000000000E+00 0.  1.
         12    1    6    6    0    0 -0.34739681152E+02 -0.89204786557E+02  0.18095583575E+03  0.20471774198E+03  0.00000000000E+00 0. -1.
         -5    1    3    3    0  503 -0.30518165850E+02  0.79466356644E+02 -0.31580555487E+02  0.90915794942E+02  0.47000000000E+01 0.  1.
         11    1    4    4    0    0 -0.43815286396E+00 -0.80376554194E+01 -0.14105293918E+02  0.16240541834E+02  0.00000000000E+00 0. -1.
        -12    1    4    4    0    0  0.32863864554E+01  0.32120320451E+02  0.95868878222E+02  0.10116005701E+03  0.00000000000E+00 0.  1.
</event>
<event>
12    1  0.8219652E-002  0.1866812E+03  0.7818608E-02  0.1161821E+00
         21   -1    0    0  501  502  0.00000000000E+00  0.00000000000E+00  0.69583997672E+02  0.69583997672E+02  0.00000000000E+00 0.  1.
         21   -1    0    0  502  503 -0.00000000000E+00 -0.00000000000E+00 -0.65867248954E+03  0.65867248954E+03  0.00000000000E+00 0.  1.
         -6    2    1    2    0  503  0.49849099394E+02 -0.51479509861E+02 -0.47409054766E+03  0.50899777334E+03  0.17082685161E+03 0.  0.
        -24    2    3    3    0    0  0.13250532510E+02 -0.16136734694E+02 -0.43890319662E+03  0.44695902312E+03  0.81855858255E+02 0.  0.
          6    2    1    2  501    0 -0.49849099394E+02  0.51479509861E+02 -0.11499794420E+03  0.21925871387E+03  0.17237976619E+03 0.  0.
         24    2    5    5    0    0  0.25421525288E+02  0.70039504385E+02 -0.78802872499E+02  0.13357141288E+03  0.77972068724E+02 0.  0.
          5    1    5    5  501    0 -0.75270624682E+02 -0.18559994524E+02 -0.36195071705E+02  0.85687300998E+02  0.47000000000E+01 0. -1.
        -11    1    6    6    0    0 -0.79286991535E+01 -0.70720574235E+01  0.75949677298E+01  0.13059931136E+02  0.00000000000E+00 0.  1.
         12    1    6    6    0    0  0.33350224441E+02  0.77111561809E+02 -0.86397840229E+02  0.12051148174E+03  0.00000000000E+00 0. -1.
         -5    1    3    3    0  503  0.36598566884E+02 -0.35342775168E+02 -0.35187351043E+02  0.62038750213E+02  0.47000000000E+01 0.  1.
         13    1    4    4    0    0 -0.15797296697E+02  0.25000348670E+02 -0.98269922915E+02  0.10262333929E+03  0.00000000000E+00 0. -1.
        -14    1    4    4    0    0  0.29047829207E+02 -0.41137083363E+02 -0.34063327370E+03  0.34433568384E+03  0.00000000000E+00 0.  1.
</event>
<event>
12    1  0.8219652E-002  0.2555575E+03  0.7818608E-02  0.1109901E+00
         21   -1    0    0  501  502  0.00000000000E+00  0.00000000000E+00  0.15652417945E+03  0.15652417945E+03  0.00000000000E+00 0.  1.
         21   -1    0    0  502  503 -0.00000000000E+00 -0.00000000000E+00 -0.43009544846E+03  0.43009544846E+03  0.00000000000E+00 0.  1.
         -6    2    1    2    0  503 -0.59120369682E+02 -0.17967856217E+03 -0.18858644570E+03  0.31730190068E+03  0.17127768348E+03 0.  0.
        -24    2    3    3    0    0 -0.43373841849E+02 -0.21457243329E+02 -0.55804759546E+02  0.11009426314E+03  0.81638668175E+02 0.  0.
          6    2    1    2  501    0  0.59120369682E+02  0.17967856217E+03 -0.84984823304E+02  0.26931772723E+03  0.17184299285E+03 0.  0.
         24    2    5    5    0    0  0.11765783628E+02  0.19070427557E+03 -0.67049643903E+02  0.21728135690E+03  0.78797074340E+02 0.  0.
          5    1    5    5  501    0  0.47354586055E+02 -0.11025713403E+02 -0.17935179401E+02  0.52036370325E+02  0.47000000000E+01 0. -1.
        -11    1    6    6    0    0  0.43755182861E+02  0.13543215341E+03 -0.39300644802E+02  0.14765136262E+03  0.00000000000E+00 0.  1.
         12    1    6    6    0    0 -0.31989399233E+02  0.55272122166E+02 -0.27748999102E+02  0.69629994278E+02  0.00000000000E+00 0. -1.
         -5    1    3    3    0  503 -0.15746527833E+02 -0.15822131884E+03 -0.13278168616E+03  0.20720763753E+03  0.47000000000E+01 0.  1.
         13    1    4    4    0    0 -0.51836626796E+01 -0.12077167920E+02  0.20442708209E+02  0.24302935269E+02  0.00000000000E+00 0. -1.
        -14    1    4    4    0    0 -0.38190179170E+02 -0.93800754093E+01 -0.76247467755E+02  0.85791327876E+02  0.00000000000E+00 0.  1.
</event>
<event>
12    1  0.8219652E-002  0.1889461E+03  0.7818608E-02  0.1161515E+00
         21   -1    0    0  501  502  0.00000000000E+00  0.00000000000E+00  0.17195240219E+03  0.17195240219E+03  0.00000000000E+00 0. -1.
         21   -1    0    0  502  503 -0.00000000000E+00 -0.00000000000E+00 -0.21549349261E+03  0.21549349261E+03  0.00000000000E+00 0. -1.
         -6    2    1    2    0  503 -0.51381275087E+02 -0.41714397456E+02 -0.77690289069E+02  0.20429492802E+03  0.17697601593E+03 0.  0.
        -24    2    3    3    0    0 -0.43490916851E+02  0.42838367480E+02 -0.32967471652E+02  0.10820305422E+03  0.83032892155E+02 0.  0.
          6    2    1    2  501    0  0.51381275087E+02  0.41714397456E+02  0.34149198649E+02  0.18315096679E+03  0.16732597671E+03 0.  0.
         24    2    5    5    0    0  0.86700201661E+02  0.12475946180E+02  0.56217224153E+02  0.13204909445E+03  0.81265077687E+02 0.  0.
          5    1    5    5  501    0 -0.35318926575E+02  0.29238451275E+02 -0.22068025504E+02  0.51101872344E+02  0.47000000000E+01 0. -1.
        -11    1    6    6    0    0  0.85484162738E+00 -0.12919402580E+02 -0.13407353920E+02  0.18638638801E+02  0.00000000000E+00 0.  1.
         12    1    6    6    0    0  0.85845360034E+02  0.25395348760E+02  0.69624578072E+02  0.11341045565E+03  0.00000000000E+00 0. -1.
         -5    1    3    3    0  503 -0.78903582356E+01 -0.84552764936E+02 -0.44722817417E+02  0.96091873793E+02  0.47000000000E+01 0.  1.
         13    1    4    4    0    0 -0.25900245430E+02 -0.22786729942E+02 -0.16768996045E+02  0.38356968117E+02  0.00000000000E+00 0. -1.
        -14    1    4    4    0    0 -0.17590671421E+02  0.65625097422E+02 -0.16198475607E+02  0.69846086108E+02  0.00000000000E+00 0.  1.
</event>
<event>
12    1  0.8219652E-002  0.1922352E+03  0.7818608E-02  0.1156652E+00
         21   -1    0    0  503  502  0.00000000000E+00  0.00000000000E+00  0.57938139849E+02  0.57938139849E+02  0.00000000000E+00 0. -1.
         21   -1    0    0  501  503 -0.00000000000E+00 -0.00000000000E+00 -0.71837759288E+03  0.71837759288E+03  0.00000000000E+00 0. -1.
          6    2    1    2  501    0 -0.72656699845E+02  0.30988676208E+02 -0.46313357107E+03  0.50144499807E+03  0.17525720343E+03 0.  0.
         24    2    3    3    0    0 -0.38934063659E+02 -0.39679979842E+02 -0.35762878218E+03  0.36997399131E+03  0.76759665790E+02 0.  0.
         -6    2    1    2    0  502  0.72656699845E+02 -0.30988676208E+02 -0.19730588197E+03  0.27487073466E+03  0.17431298182E+03 0.  0.
        -24    2    5    5    0    0 -0.20961822358E+02  0.63914788020E+01 -0.38736784522E+02  0.86913419421E+02  0.74653566576E+02 0.  0.
          5    1    3    3  501    0 -0.33722636187E+02  0.70668656050E+02 -0.10550478889E+03  0.13147100676E+03  0.47000000000E+01 0. -1.
        -11    1    4    4    0    0  0.56600433003E+01 -0.24103849678E+02 -0.29727817262E+02  0.38688173627E+02  0.00000000000E+00 0.  1.
         12    1    4    4    0    0 -0.44594106959E+02 -0.15576130164E+02 -0.32790096492E+03  0.33128581768E+03  0.00000000000E+00 0. -1.
         -5    1    5    5    0  502  0.93618522204E+02 -0.37380155010E+02 -0.15856909745E+03  0.18795731524E+03  0.47000000000E+01 0.  1.
         11    1    6    6    0    0  0.41037366426E+01  0.36795728476E+02 -0.10654947641E+02  0.38526538876E+02  0.00000000000E+00 0. -1.
        -12    1    6    6    0    0 -0.25065559001E+02 -0.30404249674E+02 -0.28081836882E+02  0.48386880545E+02  0.00000000000E+00 0.  1.
</event>
<event>
12    1  0.8219652E-002  0.1891637E+03  0.7818608E-02  0.1159468E+00
         21   -1    0    0  501  502  0.00000000000E+00  0.00000000000E+00  0.52906929422E+03  0.52906929422E+03  0.00000000000E+00 0. -1.
         21   -1    0    0  502  503 -0.00000000000E+00 -0.00000000000E+00 -0.23944143953E+03  0.23944143953E+03  0.00000000000E+00 0.  1.
         -6    2    1    2    0  503 -0.50738213920E+02 -0.60178668183E+02 -0.18116870406E+03  0.26113286579E+03  0.17079940224E+03 0.  0.
        -24    2    3    3    0    0 -0.43286601725E+02 -0.67811320236E+02 -0.20533194287E+03  0.23430496965E+03  0.79154955623E+02 0.  0.
          6    2    1    2  501    0  0.50738213920E+02  0.60178668183E+02  0.47079655875E+03  0.50737786796E+03  0.17200890298E+03 0.  0.
         24    2    5    5    0    0  0.90913549399E+01  0.39509987427E+02  0.44472415774E+03  0.45386604383E+03  0.81062429162E+02 0.  0.
          5    1    5    5  501    0  0.41646858981E+02  0.20668680756E+02  0.26072401011E+02  0.53511824129E+02  0.47000000000E+01 0. -1.
        -11    1    6    6    0    0  0.57761068667E+01 -0.15925973900E+02  0.23351341497E+02  0.28849353630E+02  0.00000000000E+00 0.  1.
         12    1    6    6    0    0  0.33152480732E+01  0.55435961327E+02  0.42137281625E+03  0.42501669020E+03  0.00000000000E+00 0. -1.
         -5    1    3    3    0  503 -0.74516121950E+01  0.76326520530E+01  0.24163238803E+02  0.26827896137E+02  0.47000000000E+01 0.  1.
         11    1    4    4    0    0 -0.34067874157E+02 -0.66666196185E+02 -0.83614804409E+02  0.11223385086E+03  0.00000000000E+00 0. -1.
        -12    1    4    4    0    0 -0.92187275689E+01 -0.11451240508E+01 -0.12171713846E+03  0.12207111879E+03  0.00000000000E+00 0.  1.
</event>
<event>
12    1  0.8219652E-002  0.1969658E+03  0.7818608E-02  0.1152383E+00
         21   -1    0    0  501  502  0.00000000000E+00  0.00000000000E+00  0.74819009741E+02  0.74819009741E+02  0.00000000000E+00 0. -1.
         21   -1    0    0  502  503 -0.00000000000E+00 -0.00000000000E+00 -0.10638851565E+04  0.10638851565E+04  0.00000000000E+00 0.  1.
         -6    2    1    2    0  503  0.93631169180E+02 -0.20242680494E+02 -0.90260735064E+03  0.92384824062E+03  0.17210165690E+03 0.  0.
        -24    2    3    3    0    0 -0.10243086834E+02  0.16235637977E+02 -0.47616524187E+03  0.48339904841E+03  0.81072718430E+02 0.  0.
          6    2    1    2  501    0 -0.93631169180E+02  0.20242680494E+02 -0.86458796103E+02  0.21485592561E+03  0.17178877551E+03 0.  0.
         24    2    5    5    0    0 -0.96506833425E+02  0.10255024656E+02  0.33757480477E+01  0.12430009732E+03  0.77591134099E+02 0.  0.
          5    1    5    5  501    0  0.28756642442E+01  0.99876558374E+01 -0.89834544151E+02  0.90555828287E+02  0.47000000000E+01 0. -1.
        -11    1    6    6    0    0  0.85154904330E+01  0.16506562446E+02  0.43966325941E+01  0.19086921157E+02  0.00000000000E+00 0.  1.
         12    1    6    6    0    0 -0.10502232386E+03 -0.62515377899E+01 -0.10208845463E+01  0.10521317616E+03  0.00000000000E+00 0. -1.
         -5    1    3    3    0  503  0.10387425601E+03 -0.36478318471E+02 -0.42644210877E+03  0.44044919221E+03  0.47000000000E+01 0.  1.
         13    1    4    4    0    0  0.13837566286E+02  0.44088701840E+02 -0.28469921668E+03  0.28842492238E+03  0.00000000000E+00 0. -1.
        -14    1    4    4    0    0 -0.24080653120E+02 -0.27853063862E+02 -0.19146602519E+03  0.19497412603E+03  0.00000000000E+00 0.  1.
</event>
<event>
12    1  0.8219652E-002  0.1744658E+03  0.7818608E-02  0.1173313E+00
         21   -1    0    0  503  502  0.00000000000E+00  0.00000000000E+00  0.51461080997E+02  0.51461080997E+02  0.00000000000E+00 0. -1.
         21   -1    0    0  501  503 -0.00000000000E+00 -0.00000000000E+00 -0.72940478674E+03  0.72940478674E+03  0.00000000000E+00 0. -1.
          6    2    1    2  501    0  0.95237412681E+01 -0.54038153459E+01 -0.50897403502E+03  0.53798925166E+03  0.17394816384E+03 0.  0.
         24    2    3    3    0    0  0.31436635352E+02  0.54356505011E+02 -0.39017955238E+03  0.40313492313E+03  0.79591403263E+02 0.  0.
         -6    2    1    2    0  502 -0.95237412681E+01  0.54038153459E+01 -0.16896967072E+03  0.24287661607E+03  0.17412179113E+03 0.  0.
        -24    2    5    5    0    0 -0.64621538114E+02 -0.59854973863E+01 -0.15262155775E+03  0.18409877621E+03  0.79920273669E+02 0.  0.
          5    1    3    3  501    0 -0.21912894084E+02 -0.59760320356E+02 -0.11879448264E+03  0.13485432853E+03  0.47000000000E+01 0. -1.
        -11    1    4    4    0    0 -0.10547691245E+02 -0.10012139120E+02 -0.18184896224E+02  0.23284912949E+02  0.00000000000E+00 0.  1.
         12    1    4    4    0    0  0.41984326597E+02  0.64368644131E+02 -0.37199465616E+03  0.37985001018E+03  0.00000000000E+00 0. -1.
         -5    1    5    5    0  502  0.55097796846E+02  0.11389312732E+02 -0.16348112964E+02  0.58777839866E+02  0.47000000000E+01 0.  1.
         11    1    6    6    0    0  0.15980116470E+02 -0.14789091262E+02 -0.29124222324E+02  0.36363466126E+02  0.00000000000E+00 0. -1.
        -12    1    6    6    0    0 -0.80601654585E+02  0.88035938759E+01 -0.12349733543E+03  0.14773531008E+03  0.00000000000E+00 0.  1.
</event>
<event>
12    1  0.8219652E-002  0.1841175E+03  0.7818608E-02  0.1164120E+00
         21   -1    0    0  503  502  0.00000000000E+00  0.00000000000E+00  0.50842454605E+03  0.50842454605E+03  0.00000000000E+00 0. -1.
         21   -1    0    0  501  503 -0.00000000000E+00 -0.00000000000E+00 -0.72142989422E+02  0.72142989422E+02  0.00000000000E+00 0. -1.
          6    2    1    2  501    0 -0.36916390737E+02 -0.49671094198E+02  0.13497831393E+03  0.22746289196E+03  0.17230839934E+03 0.  0.
         24    2    3    3    0    0 -0.35910501738E+02  0.35740493833E+02  0.70673153378E+02  0.12044235722E+03  0.83334985267E+02 0.  0.
         -6    2    1    2    0  502  0.36916390737E+02  0.49671094198E+02  0.30130324269E+03  0.35310464351E+03  0.17340475111E+03 0.  0.
        -24    2    5    5    0    0  0.91698943597E+02  0.26976984846E+02  0.20524840932E+03  0.24012335430E+03  0.79974131964E+02 0.  0.
          5    1    3    3  501    0 -0.10058889992E+01 -0.85411588031E+02  0.64305160554E+02  0.10702053474E+03  0.47000000000E+01 0. -1.
        -13    1    4    4    0    0  0.67786124565E+01  0.87648501049E+01  0.69034231941E+02  0.69917790038E+02  0.00000000000E+00 0.  1.
         14    1    4    4    0    0 -0.42689114194E+02  0.26975643728E+02  0.16389214369E+01  0.50524567180E+02  0.00000000000E+00 0. -1.
         -5    1    5    5    0  502 -0.54782552860E+02  0.22694109352E+02  0.96054833372E+02  0.11298128921E+03  0.47000000000E+01 0.  1.
         11    1    6    6    0    0  0.18714350810E+02  0.43947201470E+02  0.60053665709E+02  0.76733475148E+02  0.00000000000E+00 0. -1.
        -12    1    6    6    0    0  0.72984592787E+02 -0.16970216624E+02  0.14519474361E+03  0.16338987915E+03  0.00000000000E+00 0.  1.
</event>
<event>
12    1  0.8219652E-002  0.1900005E+03  0.7818608E-02  0.1158516E+00
         21   -1    0    0  501  502  0.00000000000E+00  0.00000000000E+00  0.32158389401E+02  0.32158389401E+02  0.00000000000E+00 0.  1.
         21   -1    0    0  502  503 -0.00000000000E+00 -0.00000000000E+00 -0.13290584175E+04  0.13290584175E+04  0.00000000000E+00 0.  1.
         -6    2    1    2    0  503  0.78051914885E+02  0.21649760365E+02 -0.91730598270E+03  0.93672671364E+03  0.17159795048E+03 0.  0.
        -24    2    3    3    0    0  0.23693438133E+02  0.21622715540E+02 -0.20311037486E+03  0.22045002061E+03  0.79469908591E+02 0.  0.
          6    2    1    2  501    0 -0.78051914885E+02 -0.21649760365E+02 -0.37959404539E+03  0.42449009325E+03  0.17187026047E+03 0.  0.
         24    2    5    5    0    0 -0.11452817401E+03 -0.22722127360E+02 -0.25545393410E+03  0.29501220062E+03  0.90235737652E+02 0.  0.
          5    1    5    5  501    0  0.36476259128E+02  0.10723669945E+01 -0.12414011129E+03  0.12947789264E+03  0.47000000000E+01 0. -1.
        -11    1    6    6    0    0 -0.73452688088E+02  0.13915613297E+02 -0.73201726283E+02  0.10462998811E+03  0.00000000000E+00 0.  1.
         12    1    6    6    0    0 -0.41075485926E+02 -0.36637740657E+02 -0.18225220782E+03  0.19038221251E+03  0.00000000000E+00 0. -1.
         -5    1    3    3    0  503  0.54358476753E+02  0.27044825124E-01 -0.71419560784E+03  0.71627669303E+03  0.47000000000E+01 0.  1.
         13    1    4    4    0    0  0.14376452721E+02  0.48979477455E+02 -0.16439509894E+03  0.17213779411E+03  0.00000000000E+00 0. -1.
        -14    1    4    4    0    0  0.93169854118E+01 -0.27356761915E+02 -0.38715275916E+02  0.48312226495E+02  0.00000000000E+00 0.  1.
</event>
<event>
12    1  0.8219652E-002  0.2710000E+03  0.7818608E-02  0.1100715E+00
         21   -1    0    0  501  502  0.00000000000E+00  0.00000000000E+00  0.67295873260E+03  0.67295873260E+03  0.00000000000E+00 0. -1.
         21   -1    0    0  502  503 -0.00000000000E+00 -0.00000000000E+00 -0.15865140701E+03  0.15865140701E+03  0.00000000000E+00 0. -1.
         -6    2    1    2    0  503  0.18915453629E+03  0.89986630047E+02  0.24789063727E+02  0.27208435241E+03  0.17186728880E+03 0.  0.
        -24    2    3    3    0    0  0.16002502915E+03  0.68970748704E+02 -0.41628058690E+02  0.19643040601E+03  0.80542131863E+02 0.  0.
          6    2    1    2  501    0 -0.18915453629E+03 -0.89986630047E+02  0.48951826186E+03  0.55952578720E+03  0.17194169260E+03 0.  0.
         24    2    5    5    0    0 -0.11594896651E+03 -0.40847436445E+02  0.19238757451E+03  0.24955409306E+03  0.10075510231E+03 0.  0.
          5    1    5    5  501    0 -0.73205569785E+02 -0.49139193602E+02  0.29713068736E+03  0.30997169413E+03  0.47000000000E+01 0. -1.
        -11    1    6    6    0    0 -0.62907998556E+02 -0.73429170806E+02  0.11818034871E+03  0.15269529864E+03  0.00000000000E+00 0.  1.
         12    1    6    6    0    0 -0.53040967952E+02  0.32581734361E+02  0.74207225799E+02  0.96858794418E+02  0.00000000000E+00 0. -1.
         -5    1    3    3    0  503  0.29129507141E+02  0.21015881343E+02  0.66417122417E+02  0.75653946394E+02  0.47000000000E+01 0.  1.
         11    1    4    4    0    0  0.33949831703E+02 -0.13919155540E+02  0.80773627359E+01  0.37570969542E+02  0.00000000000E+00 0. -1.
        -12    1    4    4    0    0  0.12607519745E+03  0.82889904243E+02 -0.49705421426E+02  0.15885943647E+03  0.00000000000E+00 0.  1.
</event>
<event>
12    1  0.8219652E-002  0.1865069E+03  0.7818608E-02  0.1161867E+00
         21   -1    0    0  503  502  0.00000000000E+00  0.00000000000E+00  0.26858296609E+03  0.26858296609E+03  0.00000000000E+00 0.  1.
         21   -1    0    0  501  503 -0.00000000000E+00 -0.00000000000E+00 -0.15436786254E+03  0.15436786254E+03  0.00000000000E+00 0.  1.
          6    2    1    2  501    0 -0.67101425964E+02 -0.28538015467E+02  0.14294536853E+03  0.23424403079E+03  0.17064544495E+03 0.  0.
         24    2    3    3    0    0 -0.68054031176E+02  0.11603895719E+02  0.15889906353E+03  0.19078265858E+03  0.79894360667E+02 0.  0.
         -6    2    1    2    0  502  0.67101425964E+02  0.28538015467E+02 -0.28730264978E+02  0.18870679784E+03  0.17166189947E+03 0.  0.
        -24    2    5    5    0    0  0.24766612162E+02  0.80305016438E+02 -0.27520713757E+02  0.12165747373E+03  0.83551603726E+02 0.  0.
          5    1    3    3  501    0  0.95260521122E+00 -0.40141911186E+02 -0.15953695001E+02  0.43461372212E+02  0.47000000000E+01 0. -1.
        -11    1    4    4    0    0 -0.32663870945E+02 -0.31358327194E+02  0.44127325957E+02  0.63225738790E+02  0.00000000000E+00 0.  1.
         12    1    4    4    0    0 -0.35390160231E+02  0.42962222913E+02  0.11477173758E+03  0.12755691979E+03  0.00000000000E+00 0. -1.
         -5    1    5    5    0  502  0.42334813803E+02 -0.51767000971E+02 -0.12095512212E+01  0.67049324108E+02  0.47000000000E+01 0.  1.
         11    1    6    6    0    0 -0.23857483214E+02  0.42786810931E+02 -0.34395903279E+02  0.59857905554E+02  0.00000000000E+00 0. -1.
        -12    1    6    6    0    0  0.48624095376E+02  0.37518205507E+02  0.68751895220E+01  0.61799568174E+02  0.00000000000E+00 0.  1.
</event>
<event>
12    1  0.8219652E-002  0.3180034E+03  0.7818608E-02  0.1076720E+00
         21   -1    0    0  501  502  0.00000000000E+00  0.00000000000E+00  0.11356475035E+04  0.11356475035E+04  0.00000000000E+00 0.  1.
         21   -1    0    0  502  503 -0.00000000000E+00 -0.00000000000E+00 -0.19095197487E+03  0.19095197487E+03  0.00000000000E+00 0.  1.
         -6    2    1    2    0  503  0.15227762526E+03 -0.21808859535E+03 -0.13500244521E+02  0.31701279057E+03  0.17194110098E+03 0.  0.
        -24    2    3    3    0    0  0.95689865720E+02 -0.20490701483E+03  0.33405289918E+02  0.24219201969E+03  0.79985160350E+02 0.  0.
          6    2    1    2  501    0 -0.15227762526E+03  0.21808859535E+03  0.95819577313E+03  0.10095866878E+04  0.17428433643E+03 0.  0.
         24    2    5    5    0    0 -0.95005882689E+02  0.40057654763E+02  0.37684954648E+03  0.39888169063E+03  0.80375922941E+02 0.  0.
          5    1    5    5  501    0 -0.57271742571E+02  0.17803094059E+03  0.58134622665E+03  0.61070499715E+03  0.47000000000E+01 0. -1.
        -13    1    6    6    0    0 -0.91474904116E+02  0.54809631110E+02  0.25951118009E+03  0.28056693736E+03  0.00000000000E+00 0.  1.
         14    1    6    6    0    0 -0.35309785731E+01 -0.14751976347E+02  0.11733836639E+03  0.11831475327E+03  0.00000000000E+00 0. -1.
         -5    1    3    3    0  503  0.56587759540E+02 -0.13181580520E+02 -0.46905534440E+02  0.74820770885E+02  0.47000000000E+01 0.  1.
         13    1    4    4    0    0 -0.90076678919E+01 -0.27969853097E+01  0.93921791188E+01  0.13310681285E+02  0.00000000000E+00 0. -1.
        -14    1    4    4    0    0  0.10469753361E+03 -0.20211002952E+03  0.24013110800E+02  0.22888133840E+03  0.00000000000E+00 0.  1.
</event>
<event>
12    1  0.8219652E-002  0.1890228E+03  0.7818608E-02  0.1159485E+00
         21   -1    0    0  503  502  0.00000000000E+00  0.00000000000E+00  0.36278368510E+02  0.36278368510E+02  0.00000000000E+00 0.  1.
         21   -1    0    0  501  503 -0.00000000000E+00 -0.00000000000E+00 -0.10090521116E+04  0.10090521116E+04  0.00000000000E+00 0. -1.
          6    2    1    2  501    0 -0.36532927814E+02  0.68717186900E+02 -0.57322134076E+03  0.60358291722E+03  0.17225831149E+03 0.  0.
         24    2    3    3    0    0 -0.17105446059E+02 -0.10850773837E+02 -0.43519690011E+03  0.44301728068E+03  0.80359402301E+02 0.  0.
         -6    2    1    2    0  502  0.36532927814E+02 -0.68717186900E+02 -0.39955240234E+03  0.44174756289E+03  0.17158694739E+03 0.  0.
        -24    2    5    5    0    0 -0.24079885591E+02 -0.69908348791E+02 -0.33679229255E+03  0.35436190391E+03  0.81708582762E+02 0.  0.
          5    1    3    3  501    0 -0.19427481755E+02  0.79567960736E+02 -0.13802444064E+03  0.16056563654E+03  0.47000000000E+01 0. -1.
        -13    1    4    4    0    0  0.19094447950E+02  0.73277424765E+01 -0.33265668500E+02  0.39049948182E+02  0.00000000000E+00 0.  1.
         14    1    4    4    0    0 -0.36199894009E+02 -0.18178516313E+02 -0.40193123161E+03  0.40396733250E+03  0.00000000000E+00 0. -1.
         -5    1    5    5    0  502  0.60612813405E+02  0.11911618910E+01 -0.62760109784E+02  0.87385658982E+02  0.47000000000E+01 0.  1.
         11    1    6    6    0    0  0.50722356540E+01 -0.78693547973E+01 -0.21015121910E+03  0.21035966630E+03  0.00000000000E+00 0. -1.
        -12    1    6    6    0    0 -0.29152121245E+02 -0.62038993993E+02 -0.12664107346E+03  0.14400223761E+03  0.00000000000E+00 0.  1.
</event>
<event>
12    1  0.8219652E-002  0.1749719E+03  0.7818608E-02  0.1172815E+00
         21   -1    0    0  503  502  0.00000000000E+00  0.00000000000E+00  0.27083621260E+03  0.27083621260E+03  0.00000000000E+00 0.  1.
         21   -1    0    0  501  503 -0.00000000000E+00 -0.00000000000E+00 -0.11334869319E+03  0.11334869319E+03  0.00000000000E+00 0.  1.
          6    2    1    2  501    0 -0.32597598890E+02 -0.16080489837E+02  0.66669964371E+02  0.18724328334E+03  0.17115483459E+03 0.  0.
         24    2    3    3    0    0 -0.43925997113E+02  0.45397108968E+02  0.13862566206E+02  0.10527658851E+03  0.83069841829E+02 0.  0.
         -6    2    1    2    0  502  0.32597598890E+02  0.16080489837E+02  0.90817555039E+02  0.19694162244E+03  0.17092977721E+03 0.  0.
        -24    2    5    5    0    0  0.24667123224E+02 -0.52165947765E+02  0.23916790510E+02  0.10092979512E+03  0.79278355184E+02 0.  0.
          5    1    3    3  501    0  0.11328398223E+02 -0.61477598805E+02  0.52807398164E+02  0.81966694834E+02  0.47000000000E+01 0. -1.
        -13    1    4    4    0    0 -0.61628310988E+01 -0.21455125240E+02 -0.10574763364E+02  0.24700779470E+02  0.00000000000E+00 0.  1.
         14    1    4    4    0    0 -0.37763166015E+02  0.66852234208E+02  0.24437329570E+02  0.80575809041E+02  0.00000000000E+00 0. -1.
         -5    1    5    5    0  502  0.79304756659E+01  0.68246437602E+02  0.66900764529E+02  0.96011827314E+02  0.47000000000E+01 0.  1.
         13    1    6    6    0    0 -0.25667244473E+02 -0.32000031377E+02  0.22278617104E+02  0.46681326320E+02  0.00000000000E+00 0. -1.
        -14    1    6    6    0    0  0.50334367697E+02 -0.20165916388E+02  0.16381734059E+01  0.54248468802E+02  0.00000000000E+00 0.  1.
</event>
<event>
12    1  0.8219652E-002  0.2308285E+03  0.7818608E-02  0.1126476E+00
         21   -1    0    0  501  502  0.00000000000E+00  0.00000000000E+00  0.16190436234E+04  0.16190436234E+04  0.00000000000E+00 0. -1.
         21   -1    0    0  502  503 -0.00000000000E+00 -0.00000000000E+00 -0.41623550499E+02  0.41623550499E+02  0.00000000000E+00 0. -1.
         -6    2    1    2    0  503  0.12076039704E+03  0.89685257873E+02  0.11790996562E+04  0.12014815052E+04  0.17508651836E+03 0.  0.
        -24    2    3    3    0    0  0.11007566050E+03  0.38184945352E+01  0.89091443596E+03  0.90054949319E+03  0.71621404183E+02 0.  0.
          6    2    1    2  501    0 -0.12076039704E+03 -0.89685257873E+02  0.39832041664E+03  0.45918566872E+03  0.17194709964E+03 0.  0.
         24    2    5    5    0    0 -0.97887754372E+02 -0.12572181186E+03  0.36134422817E+03  0.40251892787E+03  0.77870723822E+02 0.  0.
          5    1    5    5  501    0 -0.22872642664E+02  0.36036553983E+02  0.36976188474E+02  0.56666740858E+02  0.47000000000E+01 0. -1.
        -13    1    6    6    0    0  0.43388280275E+01 -0.48346615287E+02  0.11454038674E+03  0.12440145029E+03  0.00000000000E+00 0.  1.
         14    1    6    6    0    0 -0.10222658240E+03 -0.77375196569E+02  0.24680384143E+03  0.27811747758E+03  0.00000000000E+00 0. -1.
         -5    1    3    3    0  503  0.10684736537E+02  0.85866763338E+02  0.28818522027E+03  0.30093201196E+03  0.47000000000E+01 0.  1.
         11    1    4    4    0    0  0.30296644441E+02  0.25300693634E+02  0.46657021450E+03  0.46823688110E+03  0.00000000000E+00 0. -1.
        -12    1    4    4    0    0  0.79779016057E+02 -0.21482199099E+02  0.42434422146E+03  0.43231261209E+03  0.00000000000E+00 0.  1.
</event>
<event>
12    1  0.8219652E-002  0.2060564E+03  0.7818608E-02  0.1145589E+00
         21   -1    0    0  501  502  0.00000000000E+00  0.00000000000E+00  0.28238835031E+02  0.28238835031E+02  0.00000000000E+00 0.  1.
         21   -1    0    0  502  503 -0.00000000000E+00 -0.00000000000E+00 -0.18945893902E+04  0.18945893902E+04  0.00000000000E+00 0.  1.
         -6    2    1    2    0  503 -0.45922290966E+02  0.96681350646E+02 -0.48718947731E+03  0.52897338419E+03  0.17607701161E+03 0.  0.
        -24    2    3    3    0    0 -0.86405608275E+02  0.89988058377E+02 -0.26615624261E+03  0.30411458409E+03  0.77992018740E+02 0.  0.
          6    2    1    2  501    0  0.45922290966E+02 -0.96681350646E+02 -0.13791610779E+04  0.13938548411E+04  0.17114291928E+03 0.  0.
         24    2    5    5    0    0  0.19866020772E+02 -0.10921697323E+03 -0.13271261266E+04  0.13341405445E+04  0.79650679560E+02 0.  0.
          5    1    5    5  501    0  0.26056270194E+02  0.12535622587E+02 -0.52034951343E+02  0.59714296541E+02  0.47000000000E+01 0. -1.
        -11    1    6    6    0    0  0.37139625491E+02 -0.53024476831E+02 -0.40490224162E+03  0.41004484168E+03  0.00000000000E+00 0.  1.
         12    1    6    6    0    0 -0.17273604719E+02 -0.56192496402E+02 -0.92222388495E+03  0.92409570286E+03  0.00000000000E+00 0. -1.
         -5    1    3    3    0  503  0.40483317310E+02  0.66932922699E+01 -0.22103323470E+03  0.22485880010E+03  0.47000000000E+01 0.  1.
         11    1    4    4    0    0 -0.74452720366E+02  0.21963069456E+02 -0.12911995987E+03  0.15065705435E+03  0.00000000000E+00 0. -1.
        -12    1    4    4    0    0 -0.11952887910E+02  0.68024988920E+02 -0.13703628274E+03  0.15345752974E+03  0.00000000000E+00 0.  1.
</event>
<event>
12    1  0.8219652E-002  0.2124121E+03  0.7818608E-02  0.1140000E+00
         21   -1    0    0  503  502  0.00000000000E+00  0.00000000000E+00  0.16365624487E+03  0.16365624487E+03  0.00000000000E+00 0.  1.
         21   -1    0    0  501  503 -0.00000000000E+00 -0.00000000000E+00 -0.27473169320E+03  0.27473169320E+03  0.00000000000E+00 0.  1.
          6    2    1    2  501    0 -0.35668302173E+01  0.12404372479E+03 -0.70376608728E+02  0.22376724768E+03  0.17239299910E+03 0.  0.
         24    2    3    3    0    0  0.64121938456E+02  0.87835192292E+02 -0.43175617514E+02  0.14219022179E+03  0.80791591317E+02 0.  0.
         -6    2    1    2    0  502  0.35668302173E+01 -0.12404372479E+03 -0.40698839606E+02  0.21462069039E+03  0.17031170617E+03 0.  0.
        -24    2    5    5    0    0 -0.12973975037E+02 -0.11318547327E+03 -0.87217144098E+02  0.16385118658E+03  0.79127149133E+02 0.  0.
          5    1    3    3  501    0 -0.67688768673E+02  0.36208532498E+02 -0.27200991214E+02  0.81577025891E+02  0.47000000000E+01 0. -1.
        -11    1    4    4    0    0 -0.17951368755E+02  0.21153943434E+02 -0.19255858812E+02  0.33771719849E+02  0.00000000000E+00 0.  1.
         12    1    4    4    0    0  0.82073307211E+02  0.66681248858E+02 -0.23919758702E+02  0.10841850194E+03  0.00000000000E+00 0. -1.
         -5    1    5    5    0  502  0.16540805255E+02 -0.10858251521E+02  0.46518304492E+02  0.50769503813E+02  0.47000000000E+01 0.  1.
         13    1    6    6    0    0 -0.19957954274E+02 -0.50559782347E+00 -0.33099675299E+02  0.38654418543E+02  0.00000000000E+00 0. -1.
        -14    1    6    6    0    0  0.69839792365E+01 -0.11267987545E+03 -0.54117468799E+02  0.12519676803E+03  0.00000000000E+00 0.  1.
</event>
<event>
12    1  0.8219652E-002  0.1936796E+03  0.7818608E-02  0.1155216E+00
         21   -1    0    0  501  502  0.00000000000E+00  0.00000000000E+00  0.30004850845E+03  0.30004850845E+03  0.00000000000E+00 0.  1.
         21   -1    0    0  502  503 -0.00000000000E+00 -0.00000000000E+00 -0.13214198121E+03  0.13214198121E+03  0.00000000000E+00 0.  1.
         -6    2    1    2    0  503 -0.87880713540E+02  0.10122950023E+02  0.13442744586E+03  0.23563866147E+03  0.17213177118E+03 0.  0.
        -24    2    3    3    0    0 -0.45115968909E+02  0.68088431903E+01 -0.19696636845E+01  0.92578994973E+02  0.80530613676E+02 0.  0.
          6    2    1    2  501    0  0.87880713540E+02 -0.10122950023E+02  0.33479081385E+02  0.19655182819E+03  0.17229706424E+03 0.  0.
         24    2    5    5    0    0  0.12785571095E+03  0.40075945357E+01  0.24994575039E+02  0.15305758081E+03  0.80241825907E+02 0.  0.
          5    1    5    5  501    0 -0.39974997409E+02 -0.14130544559E+02  0.84845063459E+01  0.43494247382E+02  0.47000000000E+01 0. -1.
        -13    1    6    6    0    0  0.71426991353E+02  0.30226640439E+01  0.54009182856E+02  0.89598791423E+02  0.00000000000E+00 0.  1.
         14    1    6    6    0    0  0.56428719596E+02  0.98493049184E+00 -0.29014607817E+02  0.63458789384E+02  0.00000000000E+00 0. -1.
         -5    1    3    3    0  503 -0.42764744631E+02  0.33141068329E+01  0.13639710954E+03  0.14305966650E+03  0.47000000000E+01 0.  1.
         11    1    4    4    0    0  0.20424168626E+02  0.12103623763E+02  0.99707851405E+01  0.25749969487E+02  0.00000000000E+00 0. -1.
        -12    1    4    4    0    0 -0.65540137535E+02 -0.52947805729E+01 -0.11940448825E+02  0.66829025487E+02  0.00000000000E+00 0.  1.
</event>
<event>
12    1  0.8219652E-002  0.1901392E+03  0.7818608E-02  0.1158759E+00
         21   -1    0    0  501  502  0.00000000000E+00  0.00000000000E+00  0.40254541864E+03  0.40254541864E+03  0.00000000000E+00 0. -1.
         21   -1    0    0  502  503 -0.00000000000E+00 -0.00000000000E+00 -0.11866350960E+03  0.11866350960E+03  0.00000000000E+00 0. -1.
         -6    2    1    2    0  503  0.63698189749E+02  0.47101816567E+02  0.27186335889E+03  0.33069029268E+03  0.17079327641E+03 0.  0.
        -24    2    3    3    0    0  0.23455643007E+02  0.10136519410E+03  0.15384034476E+03  0.19461862563E+03  0.58176352621E+02 0.  0.
          6    2    1    2  501    0 -0.63698189749E+02 -0.47101816567E+02  0.12018550149E+02  0.19051863555E+03  0.17284925352E+03 0.  0.
         24    2    5    5    0    0 -0.44303906681E+01  0.35849599169E+02 -0.14270694273E+02  0.85129718902E+02  0.75753509511E+02 0.  0.
          5    1    5    5  501    0 -0.59267799081E+02 -0.82951415736E+02  0.26289244422E+02  0.10538891665E+03  0.47000000000E+01 0. -1.
        -13    1    6    6    0    0 -0.30826956414E+02  0.23291264185E+02 -0.32663181245E+02  0.50593158017E+02  0.00000000000E+00 0.  1.
         14    1    6    6    0    0  0.26396565746E+02  0.12558334984E+02  0.18392486972E+02  0.34536560885E+02  0.00000000000E+00 0. -1.
         -5    1    3    3    0  503  0.40242546742E+02 -0.54263377529E+02  0.11802301413E+03  0.13607166705E+03  0.47000000000E+01 0.  1.
         11    1    4    4    0    0  0.36627698430E+02  0.99206239526E+02  0.13906377361E+03  0.17470603705E+03  0.00000000000E+00 0. -1.
        -12    1    4    4    0    0 -0.13172055422E+02  0.21589545704E+01  0.14776571151E+02  0.19912588578E+02  0.00000000000E+00 0.  1.
</event>
<event>
12    1  0.8219652E-002  0.1744359E+03  0.7818608E-02  0.1173491E+00
         21   -1    0    0  501  502  0.00000000000E+00  0.00000000000E+00  0.97740695421E+03  0.97740695421E+03  0.00000000000E+00 0. -1.
         21   -1    0    0  502  503 -0.00000000000E+00 -0.00000000000E+00 -0.31761470629E+02  0.31761470629E+02  0.00000000000E+00 0. -1.
         -6    2    1    2    0  503  0.19783717618E+02 -0.14521598615E+02  0.39350188015E+03  0.43012573096E+03  0.17193644884E+03 0.  0.
        -24    2    3    3    0    0 -0.51227387599E+01 -0.59286646974E+02  0.12919082010E+03  0.16085510948E+03  0.75119566604E+02 0.  0.
          6    2    1    2  501    0 -0.19783717618E+02  0.14521598615E+02  0.55214360343E+03  0.57904269388E+03  0.17270092710E+03 0.  0.
         24    2    5    5    0    0 -0.75349840520E+02 -0.90007235665E+01  0.27633763515E+03  0.29667428950E+03  0.76775868330E+02 0.  0.
          5    1    5    5  501    0  0.55566122902E+02  0.23522322182E+02  0.27580596828E+03  0.28236840438E+03  0.47000000000E+01 0. -1.
        -11    1    6    6    0    0 -0.72128303683E+02 -0.54102881612E+01  0.28088284322E+03  0.29004643598E+03  0.00000000000E+00 0.  1.
         12    1    6    6    0    0 -0.32215368365E+01 -0.35904354052E+01 -0.45452080631E+01  0.66278535232E+01  0.00000000000E+00 0. -1.
         -5    1    3    3    0  503  0.24906456378E+02  0.44765048359E+02  0.26431106005E+03  0.26927062148E+03  0.47000000000E+01 0.  1.
         13    1    4    4    0    0 -0.31455089767E+02 -0.52323870856E+02  0.11486178087E+03  0.13007858716E+03  0.00000000000E+00 0. -1.
        -14    1    4    4    0    0  0.26332351007E+02 -0.69627761186E+01  0.14329039227E+02  0.30776522318E+02  0.00000000000E+00 0.  1.
</event>
<event>
12    1  0.8219652E-002  0.1852225E+03  0.7818608E-02  0.1163035E+00
         21   -1    0    0  503  502  0.00000000000E+00  0.00000000000E+00  0.13393391593E+03  0.13393391593E+03  0.00000000000E+00 0.  1.
         21   -1    0    0  501  503 -0.00000000000E+00 -0.00000000000E+00 -0.35090857968E+03  0.35090857968E+03  0.00000000000E+00 0.  1.
          6    2    1    2  501    0  0.69428203735E+02 -0.19390758004E+01  0.18064483904E+02  0.18610129145E+03  0.17170710414E+03 0.  0.
         24    2    3    3    0    0  0.41186227934E+02  0.11944528388E+02  0.78530650101E+02  0.11777405737E+03  0.76581253931E+02 0.  0.
         -6    2    1    2    0  502 -0.69428203735E+02  0.19390758004E+01 -0.23503914765E+03  0.29874120417E+03  0.17081823864E+03 0.  0.
        -24    2    5    5    0    0 -0.23440670718E+02  0.19545822072E+02 -0.36024785322E+02  0.93671320664E+02  0.80901340862E+02 0.  0.
          5    1    3    3  501    0  0.28241975801E+02 -0.13883604188E+02 -0.60466166197E+02  0.68327234080E+02  0.47000000000E+01 0. -1.
        -13    1    4    4    0    0 -0.22173350265E+01  0.24848697106E+02 -0.23735694193E+01  0.25060090867E+02  0.00000000000E+00 0.  1.
         14    1    4    4    0    0  0.43403562961E+02 -0.12904168718E+02  0.80904219520E+02  0.92713966500E+02  0.00000000000E+00 0. -1.
         -5    1    5    5    0  502 -0.45987533017E+02 -0.17606746272E+02 -0.19901436233E+03  0.20506988350E+03  0.47000000000E+01 0.  1.
         13    1    6    6    0    0 -0.23450708196E+02  0.13320004582E+02 -0.61655100760E+02  0.67295688470E+02  0.00000000000E+00 0. -1.
        -14    1    6    6    0    0  0.10037477675E-01  0.62258174903E+01  0.25630315438E+02  0.26375632194E+02  0.00000000000E+00 0.  1.
</event>
<event>
12    1  0.8219652E-002  0.1763761E+03  0.7818608E-02  0.1171521E+00
         21   -1    0    0  503  502  0.00000000000E+00  0.00000000000E+00  0.78122794308E+02  0.78122794308E+02  0.00000000000E+00 0. -1.
         21   -1    0    0  501  503 -0.00000000000E+00 -0.00000000000E+00 -0.89664066880E+03  0.89664066880E+03  0.00000000000E+00 0. -1.
          6    2    1    2  501    0  0.80028330605E+01 -0.35924875609E+02 -0.77284606635E+03  0.79257000349E+03  0.17181829393E+03 0.  0.
         24    2    3    3    0    0 -0.36839909329E+02 -0.72429513401E+02 -0.42880781624E+03  0.44367479334E+03  0.79799534114E+02 0.  0.
         -6    2    1    2    0  502 -0.80028330605E+01  0.35924875609E+02 -0.45671808134E+02  0.18219345961E+03  0.17249319013E+03 0.  0.
        -24    2    5    5    0    0 -0.27840061552E+02  0.85523607629E+02 -0.17393858225E+02  0.12156935299E+03  0.79919989954E+02 0.  0.
          5    1    3    3  501    0  0.44842742390E+02  0.36504637793E+02 -0.34403825011E+03  0.34889521015E+03  0.47000000000E+01 0. -1.
        -13    1    4    4    0    0 -0.37318882613E+02 -0.85872903569E+02 -0.40997556557E+03  0.42053159088E+03  0.00000000000E+00 0.  1.
         14    1    4    4    0    0  0.47897328374E+00  0.13443390168E+02 -0.18832250676E+02  0.23143202460E+02  0.00000000000E+00 0. -1.
         -5    1    5    5    0  502  0.19837228491E+02 -0.49598732021E+02 -0.28277949909E+02  0.60624106619E+02  0.47000000000E+01 0.  1.
         11    1    6    6    0    0 -0.21884363121E+02  0.55770611598E+02 -0.49264195290E+02  0.77564472568E+02  0.00000000000E+00 0. -1.
        -12    1    6    6    0    0 -0.59556984310E+01  0.29752996032E+02  0.31870337065E+02  0.44004880426E+02  0.00000000000E+00 0.  1.
</event>
<event>
12    1  0.8219652E-002  0.2168926E+03  0.7818608E-02  0.1136415E+00
         21   -1    0    0  501  502  0.00000000000E+00  0.00000000000E+00  0.19762790870E+03  0.19762790870E+03  0.00000000000E+00 0.  1.
         21   -1    0    0  502  503 -0.00000000000E+00 -0.00000000000E+00 -0.30879682720E+03  0.30879682720E+03  0.00000000000E+00 0.  1.
         -6    2    1    2    0  503  0.12022290696E+03 -0.51276782520E+02 -0.17764667995E+03  0.27957305748E+03  0.17181354949E+03 0.  0.
        -24    2    3    3    0    0  0.86285821137E+02 -0.61010302203E+02 -0.41688746586E+02  0.13902727546E+03  0.80144443507E+02 0.  0.
          6    2    1    2  501    0 -0.12022290696E+03  0.51276782520E+02  0.66477761446E+02  0.22685167843E+03  0.17308823026E+03 0.  0.
         24    2    5    5    0    0 -0.11132353883E+03  0.56680786426E+02 -0.10853619514E+02  0.14868113095E+03  0.79891400018E+02 0.  0.
          5    1    5    5  501    0 -0.88993681307E+01 -0.54040039059E+01  0.77331380960E+02  0.78170547475E+02  0.47000000000E+01 0. -1.
        -11    1    6    6    0    0 -0.92561219169E+02  0.59655343609E+02  0.20509658703E+02  0.11201332695E+03  0.00000000000E+00 0.  1.
         12    1    6    6    0    0 -0.18762319662E+02 -0.29745571826E+01 -0.31363278217E+02  0.36667803998E+02  0.00000000000E+00 0. -1.
         -5    1    3    3    0  503  0.33937085825E+02  0.97335196829E+01 -0.13595793336E+03  0.14054578202E+03  0.47000000000E+01 0.  1.
         13    1    4    4    0    0  0.80150215907E+01 -0.99973047620E+01  0.22347819327E+02  0.25760661915E+02  0.00000000000E+00 0. -1.
        -14    1    4    4    0    0  0.78270799547E+02 -0.51012997441E+02 -0.64036565913E+02  0.11326661354E+03  0.00000000000E+00 0.  1.
</event>
<event>
12    1  0.8219652E-002  0.2001339E+03  0.7818608E-02  0.1150091E+00
         21   -1    0    0  501  502  0.00000000000E+00  0.00000000000E+00  0.10494101669E+03  0.10494101669E+03  0.00000000000E+00 0.  1.
         21   -1    0    0  502  503 -0.00000000000E+00 -0.00000000000E+00 -0.37886560852E+03  0.37886560852E+03  0.00000000000E+00 0.  1.
         -6    2    1    2    0  503 -0.67585107342E+02 -0.72433035064E+02 -0.15068628411E+03  0.24877205635E+03  0.17136769969E+03 0.  0.
        -24    2    3    3    0    0  0.11650060758E+01  0.12674993378E+01 -0.11729762835E+03  0.14249299350E+03  0.80886066700E+02 0.  0.
          6    2    1    2  501    0  0.67585107342E+02  0.72433035064E+02 -0.12323830772E+03  0.23503456887E+03  0.17389444146E+03 0.  0.
         24    2    5    5    0    0  0.59074958963E+02 -0.28279741688E+01 -0.12539047327E+03  0.15911774628E+03  0.78088655882E+02 0.  0.
          5    1    5    5  501    0  0.85101483784E+01  0.75261009233E+02  0.21521655561E+01  0.75916822594E+02  0.47000000000E+01 0. -1.
        -11    1    6    6    0    0  0.32564294093E+02 -0.21927484259E+02 -0.11967188060E+03  0.12594684126E+03  0.00000000000E+00 0.  1.
         12    1    6    6    0    0  0.26510664870E+02  0.19099510090E+02 -0.57185926710E+01  0.33170905018E+02  0.00000000000E+00 0. -1.
         -5    1    3    3    0  503 -0.68750113417E+02 -0.73700534402E+02 -0.33388655761E+02  0.10627906285E+03  0.47000000000E+01 0.  1.
         11    1    4    4    0    0  0.17231129032E+02 -0.24683661657E+02 -0.11243597569E+02  0.32134303273E+02  0.00000000000E+00 0. -1.
        -12    1    4    4    0    0 -0.16066122956E+02  0.25951160995E+02 -0.10605403078E+03  0.11035869023E+03  0.00000000000E+00 0.  1.
</event>
<event>
12    1  0.8219652E-002  0.2392062E+03  0.7818608E-02  0.1120376E+00
         21   -1    0    0  503  502  0.00000000000E+00  0.00000000000E+00  0.12420299962E+04  0.12420299962E+04  0.00000000000E+00 0.  1.
         21   -1    0    0  501  503 -0.00000000000E+00 -0.00000000000E+00 -0.58383244365E+02  0.58383244365E+02  0.00000000000E+00 0.  1.
          6    2    1    2  501    0  0.16616145662E+03  0.19890617283E+01  0.29215963531E+03  0.37739163561E+03  0.17162053516E+03 0.  0.
         24    2    3    3    0    0  0.17370456575E+03  0.30745649201E+02  0.28758746568E+03  0.34694767802E+03  0.80917054835E+02 0.  0.
         -6    2    1    2    0  502 -0.16616145662E+03 -0.19890617283E+01  0.89148711654E+03  0.92302160497E+03  0.17206399464E+03 0.  0.
        -24    2    5    5    0    0 -0.10661840490E+03  0.40125047648E+02  0.35106226428E+03  0.37767759964E+03  0.80113370612E+02 0.  0.
          5    1    3    3  501    0 -0.75431091261E+01 -0.28756587472E+02  0.45721696314E+01  0.30443957586E+02  0.47000000000E+01 0. -1.
        -11    1    4    4    0    0  0.16440870719E+03  0.69629013215E+01  0.22027141992E+03  0.27495127465E+03  0.00000000000E+00 0.  1.
         12    1    4    4    0    0  0.92958585595E+01  0.23782747879E+02  0.67316045755E+02  0.71996403377E+02  0.00000000000E+00 0. -1.
         -5    1    5    5    0  502 -0.59543051720E+02 -0.42114109376E+02  0.54042485225E+03  0.54534400533E+03  0.47000000000E+01 0.  1.
         11    1    6    6    0    0 -0.24077341346E+02 -0.67286763027E+01  0.16600016094E+02  0.30009231669E+02  0.00000000000E+00 0. -1.
        -12    1    6    6    0    0 -0.82541063557E+02  0.46853723951E+02  0.33446224819E+03  0.34766836797E+03  0.00000000000E+00 0.  1.
</event>
<event>
12    1  0.8219652E-002  0.1782296E+03  0.7818608E-02  0.1169647E+00
         21   -1    0    0  501  502  0.00000000000E+00  0.00000000000E+00  0.93996647040E+02  0.93996647040E+02  0.00000000000E+00 0.  1.
         21   -1    0    0  502  503 -0.00000000000E+00 -0.00000000000E+00 -0.43694906707E+03  0.43694906707E+03  0.00000000000E+00 0.  1.
         -6    2    1    2    0  503  0.21680296454E+01  0.46786740781E+02 -0.44703932147E+02  0.18375045349E+03  0.17196536902E+03 0.  0.
        -24    2    3    3    0    0 -0.57547254527E+02  0.53204786793E+02 -0.49591206735E+02  0.12330972276E+03  0.81262316603E+02 0.  0.
          6    2    1    2  501    0 -0.21680296454E+01 -0.46786740781E+02 -0.29824848788E+03  0.34719526062E+03  0.17146045902E+03 0.  0.
         24    2    5    5    0    0  0.12999665815E+02  0.29457399243E+02 -0.85341227308E+02  0.12049100508E+03  0.78728822840E+02 0.  0.
          5    1    5    5  501    0 -0.15167695461E+02 -0.76244140024E+02 -0.21290726058E+03  0.22670425554E+03  0.47000000000E+01 0. -1.
        -13    1    6    6    0    0 -0.13782122612E+02  0.30999894324E+02 -0.87233473069E+02  0.93598179339E+02  0.00000000000E+00 0.  1.
         14    1    6    6    0    0  0.26781788428E+02 -0.15424950806E+01  0.18922457611E+01  0.26892825744E+02  0.00000000000E+00 0. -1.
         -5    1    3    3    0  503  0.59715284173E+02 -0.64180460122E+01  0.48872745886E+01  0.60440730732E+02  0.47000000000E+01 0.  1.
         13    1    4    4    0    0 -0.19765683125E+02 -0.20537835241E+02 -0.21904782867E+02  0.35948635833E+02  0.00000000000E+00 0. -1.
        -14    1    4    4    0    0 -0.37781571402E+02  0.73742622034E+02 -0.27686423869E+02  0.87361086925E+02  0.00000000000E+00 0.  1.
</event>
<event>
12    1  0.8219652E-002  0.2075447E+03  0.7818608E-02  0.1143824E+00
         21   -1    0    0  503  502  0.00000000000E+00  0.00000000000E+00  0.12385970465E+04  0.12385970465E+04  0.00000000000E+00 0.  1.
         21   -1    0    0  501  503 -0.00000000000E+00 -0.00000000000E+00 -0.34533639147E+02  0.34533639147E+02  0.00000000000E+00 0.  1.
          6    2    1    2  501    0 -0.89806673182E+01  0.11592571302E+03  0.59277905523E+03  0.62757406742E+03  0.17012577244E+03 0.  0.
         24    2    3    3    0    0  0.41916477356E+02  0.64918626049E+02  0.20486698604E+03  0.23299821199E+03  0.79663452986E+02 0.  0.
         -6    2    1    2    0  502  0.89806673182E+01 -0.11592571302E+03  0.61128435211E+03  0.64555661822E+03  0.17191673818E+03 0.  0.
        -24    2    5    5    0    0  0.58877649567E+02 -0.11956739334E+03  0.49640582283E+03  0.52016867158E+03  0.79961032915E+02 0.  0.
          5    1    3    3  501    0 -0.50897144674E+02  0.51007086974E+02  0.38791206919E+03  0.39457585543E+03  0.47000000000E+01 0. -1.
        -11    1    4    4    0    0  0.32240349584E+02  0.32871526515E+02  0.29996651001E+02  0.54952492828E+02  0.00000000000E+00 0.  1.
         12    1    4    4    0    0  0.96761277716E+01  0.32047099534E+02  0.17487033503E+03  0.17804571916E+03  0.00000000000E+00 0. -1.
         -5    1    5    5    0  502 -0.49896982249E+02  0.36416803135E+01  0.11487852928E+03  0.12538794664E+03  0.47000000000E+01 0.  1.
         13    1    6    6    0    0  0.11061898445E+02  0.52751772534E+01  0.12195233093E+03  0.12256657012E+03  0.00000000000E+00 0. -1.
        -14    1    6    6    0    0  0.47815751122E+02 -0.12484257059E+03  0.37445349190E+03  0.39760210146E+03  0.00000000000E+00 0.  1.
</event>
<event>
12    1  0.8219652E-002  0.3268132E+03  0.7818608E-02  0.1072597E+00
         21   -1    0    0  503  502  0.00000000000E+00  0.00000000000E+00  0.65416108994E+03  0.65416108994E+03  0.00000000000E+00 0. -1.
         21   -1    0    0  501  503 -0.00000000000E+00 -0.00000000000E+00 -0.17804233786E+03  0.17804233786E+03  0.00000000000E+00 0. -1.
          6    2    1    2  501    0  0.19286059145E+03 -0.19942634381E+03  0.11759618052E+03  0.34732651305E+03  0.17274481368E+03 0.  0.
         24    2    3    3    0    0  0.26509856405E+02 -0.41952291347E+02  0.16164661934E+02  0.96764969289E+02  0.81482487383E+02 0.  0.
         -6    2    1    2    0  502 -0.19286059145E+03  0.19942634381E+03  0.35852257157E+03  0.48487691475E+03  0.17204974222E+03 0.  0.
        -24    2    5    5    0    0 -0.19457537380E+03  0.14419328669E+03  0.34201920972E+03  0.42701430136E+03  0.81931640572E+02 0.  0.
          5    1    3    3  501    0  0.16635073505E+03 -0.15747405246E+03  0.10143151859E+03  0.25056154376E+03  0.47000000000E+01 0. -1.
        -11    1    4    4    0    0  0.36330734269E+02  0.11350956562E+02 -0.53770789864E+01  0.38440596325E+02  0.00000000000E+00 0.  1.
         12    1    4    4    0    0 -0.98208778638E+01 -0.53303247909E+02  0.21541740920E+02  0.58324372963E+02  0.00000000000E+00 0. -1.
         -5    1    5    5    0  502  0.17147823473E+01  0.55233057114E+02  0.16503361842E+02  0.57862613394E+02  0.47000000000E+01 0.  1.
         13    1    6    6    0    0 -0.13269939041E+03  0.67514166110E+02  0.15087036869E+03  0.21196499472E+03  0.00000000000E+00 0. -1.
        -14    1    6    6    0    0 -0.61875983393E+02  0.76679120582E+02  0.19114884104E+03  0.21504930664E+03  0.00000000000E+00 0.  1.
</event>
<event>
12    1  0.8219652E-002  0.2830899E+03  0.7818608E-02  0.1094189E+00
         21   -1    0    0  503  502  0.00000000000E+00  0.00000000000E+00  0.65367611363E+03  0.65367611363E+03  0.00000000000E+00 0.  1.
         21   -1    0    0  501  503 -0.00000000000E+00 -0.00000000000E+00 -0.15173746857E+03  0.15173746857E+03  0.00000000000E+00 0. -1.
          6    2    1    2  501    0 -0.22424398627E+03  0.14399180127E+02  0.73264382555E+02  0.29241671153E+03  0.17218351159E+03 0.  0.
         24    2    3    3    0    0 -0.15290713642E+03  0.34836832063E+02 -0.15721846500E+02  0.17645429208E+03  0.79339419584E+02 0.  0.
         -6    2    1    2    0  502  0.22424398627E+03 -0.14399180127E+02  0.42867426250E+03  0.51299687067E+03  0.17003371496E+03 0.  0.
        -24    2    5    5    0    0  0.22421009474E+03  0.13315669849E+02  0.42205646021E+03  0.48411782351E+03  0.76098211449E+02 0.  0.
          5    1    3    3  501    0 -0.71336849853E+02 -0.20437651937E+02  0.88986229054E+02  0.11596241945E+03  0.47000000000E+01 0. -1.
        -13    1    4    4    0    0 -0.37234904421E+02 -0.21999674568E+02  0.11452527517E+02  0.44739067657E+02  0.00000000000E+00 0.  1.
         14    1    4    4    0    0 -0.11567223200E+03  0.56836506631E+02 -0.27174374016E+02  0.13171522442E+03  0.00000000000E+00 0. -1.
         -5    1    5    5    0  502  0.33891529814E-01 -0.27714849976E+02  0.66178022868E+01  0.28879047161E+02  0.47000000000E+01 0.  1.
         11    1    6    6    0    0  0.11657596106E+03 -0.16756639488E+02  0.15537847366E+03  0.19496976622E+03  0.00000000000E+00 0. -1.
        -12    1    6    6    0    0  0.10763413368E+03  0.30072309337E+02  0.26667798655E+03  0.28914805729E+03  0.00000000000E+00 0.  1.
</event>
<event>
12    1  0.8219652E-002  0.1732436E+03  0.7818608E-02  0.1174605E+00
         21   -1    0    0  503  502  0.00000000000E+00  0.00000000000E+00  0.24188487644E+02  0.24188487644E+02  0.00000000000E+00 0.  1.
         21   -1    0    0  501  503 -0.00000000000E+00 -0.00000000000E+00 -0.13249414382E+04  0.13249414382E+04  0.00000000000E+00 0.  1.
          6    2    1    2  501    0 -0.14223056401E+02  0.76730540039E+01 -0.47695839001E+03  0.50731590912E+03  0.17210158266E+03 0.  0.
         24    2    3    3    0    0 -0.70106858946E+02 -0.23766610653E+01 -0.38349440954E+03  0.39785540572E+03  0.79374690681E+02 0.  0.
         -6    2    1    2    0  502  0.14223056401E+02 -0.76730540039E+01 -0.82379456058E+03  0.84181401676E+03  0.17248823055E+03 0.  0.
        -24    2    5    5    0    0  0.29176576681E+02 -0.42840493894E+02 -0.76936444316E+03  0.77514255150E+03  0.78979416346E+02 0.  0.
          5    1    3    3  501    0  0.55883802545E+02  0.10049715069E+02 -0.93463980474E+02  0.10946050341E+03  0.47000000000E+01 0. -1.
        -11    1    4    4    0    0 -0.49204975817E+02  0.36502551962E+02 -0.20314533584E+03  0.21218292443E+03  0.00000000000E+00 0.  1.
         12    1    4    4    0    0 -0.20901883129E+02 -0.38879213027E+02 -0.18034907370E+03  0.18567248129E+03  0.00000000000E+00 0. -1.
         -5    1    5    5    0  502 -0.14953520280E+02  0.35167439890E+02 -0.54430117423E+02  0.66671465260E+02  0.47000000000E+01 0.  1.
         11    1    6    6    0    0 -0.92283318759E+01 -0.34422524761E+02 -0.13707866608E+03  0.14163556409E+03  0.00000000000E+00 0. -1.
        -12    1    6    6    0    0  0.38404908557E+02 -0.84179691335E+01 -0.63228577708E+03  0.63350698741E+03  0.00000000000E+00 0.  1.
</event>
<event>
12    1  0.8219652E-002  0.1739216E+03  0.7818608E-02  0.1174031E+00
         21   -1    0    0  503  502  0.00000000000E+00  0.00000000000E+00  0.10762945184E+04  0.10762945184E+04  0.00000000000E+00 0. -1.
         21   -1    0    0  501  503 -0.00000000000E+00 -0.00000000000E+00 -0.10785378228E+03  0.10785378228E+03  0.00000000000E+00 0. -1.
          6    2    1    2  501    0 -0.13444588688E+02 -0.15700145513E+02 -0.25633133712E+02  0.17497459072E+03  0.17184818393E+03 0.  0.
         24    2    3    3    0    0 -0.47411338642E+02 -0.65528045253E+02 -0.11000757511E+02  0.11274311855E+03  0.77770395189E+02 0.  0.
         -6    2    1    2    0  502  0.13444588688E+02  0.15700145513E+02  0.99407386986E+03  0.10091737100E+04  0.17268893033E+03 0.  0.
        -24    2    5    5    0    0  0.73497630845E+02 -0.49497204742E+01  0.51293494579E+03  0.52383924893E+03  0.76673976237E+02 0.  0.
          5    1    3    3  501    0  0.33966749954E+02  0.49827899740E+02 -0.14632376201E+02  0.62231472168E+02  0.47000000000E+01 0. -1.
        -13    1    4    4    0    0 -0.19157611511E+02 -0.58820494748E+02 -0.38406196697E+02  0.72814151276E+02  0.00000000000E+00 0.  1.
         14    1    4    4    0    0 -0.28253727131E+02 -0.67075505050E+01  0.27405439186E+02  0.39928967274E+02  0.00000000000E+00 0. -1.
         -5    1    5    5    0  502 -0.60053042156E+02  0.20649865987E+02  0.48113892407E+03  0.48533446106E+03  0.47000000000E+01 0.  1.
         11    1    6    6    0    0  0.52096536497E+02  0.87494517899E+01  0.47649699594E+03  0.47941630047E+03  0.00000000000E+00 0. -1.
        -12    1    6    6    0    0  0.21401094347E+02 -0.13699172264E+02  0.36437949854E+02  0.44422948456E+02  0.00000000000E+00 0.  1.
</event>
<event>
12    1  0.8219652E-002  0.2915172E+03  0.7818608E-02  0.1089577E+00
         21   -1    0    0  501  502  0.00000000000E+00  0.00000000000E+00  0.25690794932E+03  0.25690794932E+03  0.00000000000E+00 0.  1.
         21   -1    0    0  502  503 -0.00000000000E+00 -0.00000000000E+00 -0.48114300475E+03  0.48114300475E+03  0.00000000000E+00 0.  1.
         -6    2    1    2    0  503  0.22974263380E+01  0.23522093511E+03 -0.31849409015E+03  0.43167364940E+03  0.17195780773E+03 0.  0.
        -24    2    3    3    0    0  0.40115845561E+02  0.56246974702E+02 -0.14203504783E+03  0.17746547692E+03  0.80913765570E+02 0.  0.
          6    2    1    2  501    0 -0.22974263380E+01 -0.23522093511E+03  0.94259034722E+02  0.30637730467E+03  0.17218629651E+03 0.  0.
         24    2    5    5    0    0 -0.50066148875E+01 -0.23837960214E+03  0.40753767838E+02  0.25250504404E+03  0.72443265850E+02 0.  0.
          5    1    5    5  501    0  0.27091885495E+01  0.31586670297E+01  0.53505266885E+02  0.53872260621E+02  0.47000000000E+01 0. -1.
        -11    1    6    6    0    0 -0.26275212464E+02 -0.12412317030E+03  0.48968826400E+02  0.13599593433E+03  0.00000000000E+00 0.  1.
         12    1    6    6    0    0  0.21268597577E+02 -0.11425643184E+03 -0.82150585622E+01  0.11650910972E+03  0.00000000000E+00 0. -1.
         -5    1    3    3    0  503 -0.37818419223E+02  0.17897396041E+03 -0.17645904233E+03  0.25420817248E+03  0.47000000000E+01 0.  1.
         11    1    4    4    0    0  0.56511826700E+02  0.64573495631E+02 -0.12896748542E+03  0.15490621417E+03  0.00000000000E+00 0. -1.
        -12    1    4    4    0    0 -0.16395981138E+02 -0.83265209295E+01 -0.13067562412E+02  0.22559262746E+02  0.00000000000E+00 0.  1.
</event>
<event>
12    1  0.8219652E-002  0.1948172E+03  0.7818608E-02  0.1154304E+00
         21   -1    0    0  501  502  0.00000000000E+00  0.00000000000E+00  0.60719483491E+03  0.60719483491E+03  0.00000000000E+00 0. -1.
         21   -1    0    0  502  503 -0.00000000000E+00 -0.00000000000E+00 -0.11990664528E+04  0.11990664528E+04  0.00000000000E+00 0. -1.
         -6    2    1    2    0  503  0.26319516599E+02 -0.88196720590E+02 -0.11752568278E+04  0.11912067977E+04  0.17109542733E+03 0.  0.
        -24    2    3    3    0    0 -0.24660790754E+02 -0.65277957212E+01 -0.77412493248E+03  0.77865656752E+03  0.79911653301E+02 0.  0.
          6    2    1    2  501    0 -0.26319516599E+02  0.88196720590E+02  0.58338520988E+03  0.61505448998E+03  0.17170423425E+03 0.  0.
         24    2    5    5    0    0 -0.78486293502E+02  0.44120893919E+02  0.44187419388E+03  0.45785554354E+03  0.79196868580E+02 0.  0.
          5    1    5    5  501    0  0.52166776903E+02  0.44075826672E+02  0.14151101601E+03  0.15719894643E+03  0.47000000000E+01 0. -1.
        -11    1    6    6    0    0 -0.33646834304E+02  0.55826347024E+02  0.17015000147E+03  0.18220788535E+03  0.00000000000E+00 0.  1.
         12    1    6    6    0    0 -0.44839459197E+02 -0.11705453106E+02  0.27172419240E+03  0.27564765820E+03  0.00000000000E+00 0. -1.
         -5    1    3    3    0  503  0.50980307352E+02 -0.81668924869E+02 -0.40113189528E+03  0.41255023020E+03  0.47000000000E+01 0.  1.
         11    1    4    4    0    0 -0.37680637615E+02 -0.32633055973E+02 -0.60356467891E+03  0.60561957401E+03  0.00000000000E+00 0. -1.
        -12    1    4    4    0    0  0.13019846862E+02  0.26105260251E+02 -0.17056025357E+03  0.17303699351E+03  0.00000000000E+00 0.  1.
</event>
<event>
12    1  0.8219652E-002  0.3663986E+03  0.7818608E-02  0.1056102E+00
         21   -1    0    0  501  502  0.00000000000E+00  0.00000000000E+00  0.55929069872E+03  0.55929069872E+03  0.00000000000E+00 0.  1.
         21   -1    0    0  502  503 -0.00000000000E+00 -0.00000000000E+00 -0.24478678764E+03  0.24478678764E+03  0.00000000000E+00 0. -1.
         -6    2    1    2    0  503  0.19675444972E+03 -0.25562758534E+03  0.21414345282E+03  0.42418252717E+03  0.17325017200E+03 0.  0.
        -24    2    3    3    0    0  0.62012581464E+02 -0.85618485076E+02  0.21121174305E+02  0.13377220498E+03  0.79201095786E+02 0.  0.
          6    2    1    2  501    0 -0.19675444972E+03  0.25562758534E+03  0.10036045826E+03  0.37989495920E+03  0.17375322321E+03 0.  0.
         24    2    5    5    0    0 -0.17526276661E+03  0.15110020487E+03  0.11785396105E+03  0.27165458619E+03  0.79739255011E+02 0.  0.
          5    1    5    5  501    0 -0.21491683103E+02  0.10452738046E+03 -0.17493502793E+02  0.10824037301E+03  0.47000000000E+01 0. -1.
        -11    1    6    6    0    0 -0.80794921165E+00  0.34737801652E+02  0.21636206276E+02  0.40932787195E+02  0.00000000000E+00 0.  1.
         12    1    6    6    0    0 -0.17445481740E+03  0.11636240322E+03  0.96217754772E+02  0.23072179900E+03  0.00000000000E+00 0. -1.
         -5    1    3    3    0  503  0.13474186825E+03 -0.17000910026E+03  0.19302227852E+03  0.29041032219E+03  0.47000000000E+01 0.  1.
         13    1    4    4    0    0 -0.16855731648E+02 -0.23617189477E+02  0.16423479518E+02  0.33340935915E+02  0.00000000000E+00 0. -1.
        -14    1    4    4    0    0  0.78868313112E+02 -0.62001295599E+02  0.46976947872E+01  0.10043126906E+03  0.00000000000E+00 0.  1.
</event>
<event>
12    1  0.8219652E-002  0.1725793E+03  0.7818608E-02  0.1175476E+00
         21   -1    0    0  501  502  0.00000000000E+00  0.00000000000E+00  0.46748774813E+03  0.46748774813E+03  0.00000000000E+00 0.  1.
         21   -1    0    0  502  503 -0.00000000000E+00 -0.00000000000E+00 -0.73224220158E+02  0.73224220158E+02  0.00000000000E+00 0.  1.
         -6    2    1    2    0  503  0.36983612863E+01  0.70208622033E+01  0.96994255161E+02  0.19697858785E+03  0.17125918415E+03 0.  0.
        -24    2    3    3    0    0 -0.65114435217E+02 -0.35532419952E+01  0.53616764420E+02  0.11481588740E+03  0.77816549462E+02 0.  0.
          6    2    1    2  501    0 -0.36983612863E+01 -0.70208622033E+01  0.29726927281E+03  0.34373338044E+03  0.17239676878E+03 0.  0.
         24    2    5    5    0    0  0.49545086876E+02  0.22597406401E+02  0.10604493603E+03  0.14298243129E+03  0.78949913171E+02 0.  0.
          5    1    5    5  501    0 -0.53243448162E+02 -0.29618268604E+02  0.19122433678E+03  0.20075094915E+03  0.47000000000E+01 0. -1.
        -13    1    6    6    0    0 -0.20054696858E+02  0.89276851900E+01  0.42120748945E+02  0.47497914908E+02  0.00000000000E+00 0.  1.
         14    1    6    6    0    0  0.69599783734E+02  0.13669721211E+02  0.63924187085E+02  0.95484516379E+02  0.00000000000E+00 0. -1.
         -5    1    3    3    0  503  0.68812796504E+02  0.10574104198E+02  0.43377490741E+02  0.82162700450E+02  0.47000000000E+01 0.  1.
         11    1    4    4    0    0 -0.62885925503E+02 -0.28346308729E+02  0.17871489261E+02  0.71256880182E+02  0.00000000000E+00 0. -1.
        -12    1    4    4    0    0 -0.22285097147E+01  0.24793066734E+02  0.35745275159E+02  0.43559007218E+02  0.00000000000E+00 0.  1.
</event>
<event>
12    1  0.8219652E-002  0.1935108E+03  0.7818608E-02  0.1155507E+00
         21   -1    0    0  503  502  0.00000000000E+00  0.00000000000E+00  0.19227657871E+04  0.19227657871E+04  0.00000000000E+00 0. -1.
         21   -1    0    0  501  503 -0.00000000000E+00 -0.00000000000E+00 -0.22189539642E+02  0.22189539642E+02  0.00000000000E+00 0.  1.
          6    2    1    2  501    0 -0.37723481722E+02  0.80992969432E+02  0.60692143581E+03  0.63702436368E+03  0.17164931842E+03 0.  0.
         24    2    3    3    0    0  0.27393259282E+01  0.82391777635E+02  0.22885581112E+03  0.25676800011E+03  0.82212618671E+02 0.  0.
         -6    2    1    2    0  502  0.37723481722E+02 -0.80992969432E+02  0.12936548116E+04  0.13079309630E+04  0.17075628905E+03 0.  0.
        -24    2    5    5    0    0  0.83896884003E+02 -0.83982537693E+02  0.11048657004E+04  0.11134975834E+04  0.71111873458E+02 0.  0.
          5    1    3    3  501    0 -0.40462807650E+02 -0.13988082037E+01  0.37806562469E+03  0.38025636358E+03  0.47000000000E+01 0. -1.
        -11    1    4    4    0    0 -0.79536617621E+01  0.77409686116E+02  0.23188059482E+03  0.24458971870E+03  0.00000000000E+00 0.  1.
         12    1    4    4    0    0  0.10692987690E+02  0.49820915190E+01 -0.30247837004E+01  0.12178281409E+02  0.00000000000E+00 0. -1.
         -5    1    5    5    0  502 -0.46173402281E+02  0.29895682615E+01  0.18878911126E+03  0.19443337966E+03  0.47000000000E+01 0.  1.
         13    1    6    6    0    0  0.77846217501E+02 -0.69844245092E+02  0.10733144883E+04  0.10783979984E+04  0.00000000000E+00 0. -1.
        -14    1    6    6    0    0  0.60506665020E+01 -0.14138292601E+02  0.31551212097E+02  0.35099585006E+02  0.00000000000E+00 0.  1.
</event>
<event>
12    1  0.8219652E-002  0.1788656E+03  0.7818608E-02  0.1169160E+00
         21   -1    0    0  503  502  0.00000000000E+00  0.00000000000E+00  0.22452689533E+03  0.22452689533E+03  0.00000000000E+00 0.  1.
         21   -1    0    0  501  503 -0.00000000000E+00 -0.00000000000E+00 -0.14958060430E+03  0.14958060430E+03  0.00000000000E+00 0.  1.
          6    2    1    2  501    0  0.48235060297E+02  0.12213006768E+02  0.80409318204E+02  0.19515850110E+03  0.17072024930E+03 0.  0.
         24    2    3    3    0    0  0.75309080808E+02 -0.36338884519E+02  0.55809604362E+02  0.13418699419E+03  0.88878936143E+02 0.  0.
         -6    2    1    2    0  502 -0.48235060297E+02 -0.12213006768E+02 -0.54630271774E+01  0.17894899854E+03  0.17180547382E+03 0.  0.
        -24    2    5    5    0    0 -0.25843125772E+02  0.28408466582E+02  0.48975646449E+02  0.10727500035E+03  0.87375074437E+02 0.  0.
          5    1    3    3  501    0 -0.27074020510E+02  0.48551891287E+02  0.24599713842E+02  0.60971506913E+02  0.47000000000E+01 0. -1.
        -11    1    4    4    0    0  0.66338084555E+02 -0.97780701301E+01  0.74700112474E+02  0.10038156664E+03  0.00000000000E+00 0.  1.
         12    1    4    4    0    0  0.89709962530E+01 -0.26560814389E+02 -0.18890508113E+02  0.33805427545E+02  0.00000000000E+00 0. -1.
         -5    1    5    5    0  502 -0.22391934525E+02 -0.40621473350E+02 -0.54438673627E+02  0.71673998180E+02  0.47000000000E+01 0.  1.
         13    1    6    6    0    0 -0.52186571307E+02  0.15026726657E+02  0.54808864858E+02  0.77157322438E+02  0.00000000000E+00 0. -1.
        -14    1    6    6    0    0  0.26343445535E+02  0.13381739925E+02 -0.58332184088E+01  0.30117677917E+02  0.00000000000E+00 0.  1.
</event>
<event>
12    1  0.8219652E-002  0.2124618E+03  0.7818608E-02  0.1140196E+00
         21   -1    0    0  501  502  0.00000000000E+00  0.00000000000E+00  0.57820627834E+03  0.57820627834E+03  0.00000000000E+00 0.  1.
         21   -1    0    0  502  503 -0.00000000000E+00 -0.00000000000E+00 -0.78028288096E+02  0.78028288096E+02  0.00000000000E+00 0. -1.
         -6    2    1    2    0  503  0.67944132941E+02 -0.10372167741E+03  0.28577044764E+03  0.35438922824E+03  0.16897450928E+03 0.  0.
        -24    2    3    3    0    0 -0.23567251213E+02 -0.19731753491E+02  0.12146335278E+03  0.14836119090E+03  0.79454008534E+02 0.  0.
          6    2    1    2  501    0 -0.67944132941E+02  0.10372167741E+03  0.21440754261E+03  0.30184533820E+03  0.17252658432E+03 0.  0.
         24    2    5    5    0    0 -0.94820914323E+02  0.99777205618E+02  0.22216689122E+03  0.27320589466E+03  0.79604250951E+02 0.  0.
          5    1    5    5  501    0  0.26876781381E+02  0.39444717912E+01 -0.77593486107E+01  0.28639443535E+02  0.47000000000E+01 0. -1.
        -11    1    6    6    0    0 -0.65263082311E+02  0.12282697814E+02  0.85490981620E+02  0.10825360279E+03  0.00000000000E+00 0.  1.
         12    1    6    6    0    0 -0.29557832012E+02  0.87494507804E+02  0.13667590960E+03  0.16495229187E+03  0.00000000000E+00 0. -1.
         -5    1    3    3    0  503  0.91511384154E+02 -0.83989923918E+02  0.16430709485E+03  0.20602803734E+03  0.47000000000E+01 0.  1.
         13    1    4    4    0    0 -0.14845766187E+02  0.27229484816E+02  0.22001887908E+02  0.38025316416E+02  0.00000000000E+00 0. -1.
        -14    1    4    4    0    0 -0.87214850260E+01 -0.46961238307E+02  0.99461464873E+02  0.11033587449E+03  0.00000000000E+00 0.  1.
</event>
<event>
12    1  0.8219652E-002  0.2069512E+03  0.7818608E-02  0.1144166E+00
         21   -1    0    0  503  502  0.00000000000E+00  0.00000000000E+00  0.26125400057E+02  0.26125400057E+02  0.00000000000E+00 0. -1.
         21   -1    0    0  501  503 -0.00000000000E+00 -0.00000000000E+00 -0.32197364926E+04  0.32197364926E+04  0.00000000000E+00 0. -1.
          6    2    1    2  501    0  0.25490878094E+02  0.11131166749E+03 -0.27377006840E+04  0.27455115816E+04  0.17259414068E+03 0.  0.
         24    2    3    3    0    0 -0.34056025238E+02  0.96030534182E+01 -0.98512549338E+03  0.98897169745E+03  0.79628821152E+02 0.  0.
         -6    2    1    2    0  502 -0.25490878094E+02 -0.11131166749E+03 -0.45591040853E+03  0.50035031103E+03  0.17162768122E+03 0.  0.
        -24    2    5    5    0    0 -0.27438141166E+02 -0.13277869715E+03 -0.45147729018E+03  0.47784769487E+03  0.78253702343E+02 0.  0.
          5    1    3    3  501    0  0.59546903333E+02  0.10170861407E+03 -0.17525751906E+04  0.17565398842E+04  0.47000000000E+01 0. -1.
        -11    1    4    4    0    0  0.19292401986E+02  0.87352005506E+01 -0.98925370534E+02  0.10116683962E+03  0.00000000000E+00 0.  1.
         12    1    4    4    0    0 -0.53348427224E+02  0.86785286760E+00 -0.88620012284E+03  0.88780485783E+03  0.00000000000E+00 0. -1.
         -5    1    5    5    0  502  0.19472630719E+01  0.21467029662E+02 -0.44331183438E+01  0.22502616164E+02  0.47000000000E+01 0.  1.
         13    1    6    6    0    0 -0.18803977044E+02 -0.71065480235E+02 -0.35823492659E+03  0.36569954151E+03  0.00000000000E+00 0. -1.
        -14    1    6    6    0    0 -0.86341641221E+01 -0.61713216916E+02 -0.93242363592E+02  0.11214815335E+03  0.00000000000E+00 0.  1.
</event>
<event>
12    1  0.8219652E-002  0.2224118E+03  0.7818608E-02  0.1132149E+00
         21   -1    0    0  503  502  0.00000000000E+00  0.00000000000E+00  0.13298998443E+03  0.13298998443E+03  0.00000000000E+00 0. -1.
         21   -1    0    0  501  503 -0.00000000000E+00 -0.00000000000E+00 -0.43905188701E+03  0.43905188701E+03  0.00000000000E+00 0. -1.
          6    2    1    2  501    0  0.51757598358E+02  0.13049387848E+03 -0.40917595161E+02  0.22614428668E+03  0.17250938380E+03 0.  0.
         24    2    3    3    0    0  0.66397183633E+02  0.57289698630E+02 -0.77999907163E+02  0.14265562118E+03  0.81092201675E+02 0.  0.
         -6    2    1    2    0  502 -0.51757598358E+02 -0.13049387848E+03 -0.26514430742E+03  0.34589758476E+03  0.17215148585E+03 0.  0.
        -24    2    5    5    0    0 -0.59548220018E+02 -0.15303320393E+03 -0.26482612709E+03  0.32158902214E+03  0.79507669813E+02 0.  0.
          5    1    3    3  501    0 -0.14639585276E+02  0.73204179849E+02  0.37082312002E+02  0.83488665505E+02  0.47000000000E+01 0. -1.
        -13    1    4    4    0    0 -0.35296648712E+01  0.48684935420E+02 -0.35751160113E+02  0.60504767749E+02  0.00000000000E+00 0.  1.
         14    1    4    4    0    0  0.69926848505E+02  0.86047632097E+01 -0.42248747050E+02  0.82150853428E+02  0.00000000000E+00 0. -1.
         -5    1    5    5    0  502  0.77906216602E+01  0.22539325455E+02 -0.31818032568E+00  0.24308562618E+02  0.47000000000E+01 0.  1.
         11    1    6    6    0    0 -0.27517054622E+02 -0.14735492493E+03 -0.21908648339E+03  0.26546101296E+03  0.00000000000E+00 0. -1.
        -12    1    6    6    0    0 -0.32031165396E+02 -0.56782790013E+01 -0.45739643697E+02  0.56128009181E+02  0.00000000000E+00 0.  1.
</event>
<event>
12    1  0.8219652E-002  0.1765652E+03  0.7818608E-02  0.1171729E+00
         21   -1    0    0  501  502  0.00000000000E+00  0.00000000000E+00  0.37917505551E+03  0.37917505551E+03  0.00000000000E+00 0.  1.
         21   -1    0    0  502  503 -0.00000000000E+00 -0.00000000000E+00 -0.11810173103E+03  0.11810173103E+03  0.00000000000E+00 0.  1.
         -6    2    1    2    0  503 -0.22291908479E+02  0.26502207283E+02 -0.90584477964E+01  0.17455951980E+03  0.17084985894E+03 0.  0.
        -24    2    3    3    0    0 -0.71367338830E+02  0.14606929634E+02  0.28626191840E+02  0.11137631349E+03  0.79237395861E+02 0.  0.
          6    2    1    2  501    0  0.22291908479E+02 -0.26502207283E+02  0.27013177228E+03  0.32271726674E+03  0.17313567998E+03 0.  0.
         24    2    5    5    0    0  0.38976767227E+02 -0.18706985255E+02  0.28440088877E+03  0.29895074231E+03  0.81354416694E+02 0.  0.
          5    1    5    5  501    0 -0.16684858748E+02 -0.77952220277E+01 -0.14269116490E+02  0.23766524427E+02  0.47000000000E+01 0. -1.
        -13    1    6    6    0    0  0.56135845873E+02  0.85349665713E+01  0.14149082236E+03  0.15245895073E+03  0.00000000000E+00 0.  1.
         14    1    6    6    0    0 -0.17159078646E+02 -0.27241951826E+02  0.14291006641E+03  0.14649179158E+03  0.00000000000E+00 0. -1.
         -5    1    3    3    0  503  0.49075430351E+02  0.11895277649E+02 -0.37684639637E+02  0.63183206305E+02  0.47000000000E+01 0.  1.
         11    1    4    4    0    0 -0.37704071439E+02 -0.14455791546E+02  0.48120386071E+02  0.62818297238E+02  0.00000000000E+00 0. -1.
        -12    1    4    4    0    0 -0.33663267391E+02  0.29062721179E+02 -0.19494194231E+02  0.48558016253E+02  0.00000000000E+00 0.  1.
</event>
<event>
12    1  0.8219652E-002  0.1896547E+03  0.7818608E-02  0.1160308E+00
         21   -1    0    0  501  502  0.00000000000E+00  0.00000000000E+00  0.20188371062E+03  0.20188371062E+03  0.00000000000E+00 0.  1.
         21   -1    0    0  502  503 -0.00000000000E+00 -0.00000000000E+00 -0.24877364626E+03  0.24877364626E+03  0.00000000000E+00 0.  1.
         -6    2    1    2    0  503 -0.49281863386E+02  0.58248771524E+02 -0.14892626427E+03  0.24113886621E+03  0.17362977615E+03 0.  0.
        -24    2    3    3    0    0  0.26560818259E+02  0.56636539555E+02 -0.61381709234E+02  0.12520418302E+03  0.89415874082E+02 0.  0.
          6    2    1    2  501    0  0.49281863386E+02 -0.58248771524E+02  0.10203632862E+03  0.20951849067E+03  0.16632788140E+03 0.  0.
         24    2    5    5    0    0  0.83659079382E+02 -0.67637530047E+02  0.10946537962E+03  0.17281396009E+03  0.79424923255E+02 0.  0.
          5    1    5    5  501    0 -0.34377215997E+02  0.93887585236E+01 -0.74290509969E+01  0.36704530579E+02  0.47000000000E+01 0. -1.
        -11    1    6    6    0    0  0.10694432141E+02 -0.48085134868E+02  0.75126711239E+02  0.89836372454E+02  0.00000000000E+00 0.  1.
         12    1    6    6    0    0  0.72964647242E+02 -0.19552395179E+02  0.34338668379E+02  0.82977587639E+02  0.00000000000E+00 0. -1.
         -5    1    3    3    0  503 -0.75842681645E+02  0.16122319690E+01 -0.87544555033E+02  0.11593468319E+03  0.47000000000E+01 0.  1.
         11    1    4    4    0    0  0.27456235864E+02  0.34115058310E+01 -0.66204908629E+02  0.71753558702E+02  0.00000000000E+00 0. -1.
        -12    1    4    4    0    0 -0.89541760507E+00  0.53225033724E+02  0.48231993946E+01  0.53450624318E+02  0.00000000000E+00 0.  1.
</event>
<event>
12    1  0.8219652E-002  0.3564044E+03  0.7818608E-02  0.1060074E+00
         21   -1    0    0  503  502  0.00000000000E+00  0.00000000000E+00  0.36189942405E+03  0.36189942405E+03  0.00000000000E+00 0.  1.
         21   -1    0    0  501  503 -0.00000000000E+00 -0.00000000000E+00 -0.35173377468E+03  0.35173377468E+03  0.00000000000E+00 0.  1.
          6    2    1    2  501    0 -0.81648742102E+02  0.30074074293E+03 -0.16677525042E+02  0.35621933294E+03  0.17176309782E+03 0.  0.
         24    2    3    3    0    0 -0.77702380336E+02  0.97221967139E+02 -0.31571760005E+02  0.15206401436E+03  0.81467279491E+02 0.  0.
         -6    2    1    2    0  502  0.81648742102E+02 -0.30074074293E+03  0.26843174414E+02  0.35741386579E+03  0.17295260594E+03 0.  0.
        -24    2    5    5    0    0  0.10905612593E+03 -0.19629028814E+03 -0.21856517565E+02  0.23886087261E+03  0.78445479667E+02 0.  0.
          5    1    3    3  501    0 -0.39463617659E+01  0.20351877579E+03  0.14894234963E+02  0.20415531858E+03  0.47000000000E+01 0. -1.
        -11    1    4    4    0    0 -0.28997594587E+02  0.17511940023E+02  0.25674955823E+02  0.42505668936E+02  0.00000000000E+00 0.  1.
         12    1    4    4    0    0 -0.48704785749E+02  0.79710027117E+02 -0.57246715828E+02  0.10955834542E+03  0.00000000000E+00 0. -1.
         -5    1    5    5    0  502 -0.27407383832E+02 -0.10445045479E+03  0.48699691980E+02  0.11855299318E+03  0.47000000000E+01 0.  1.
         11    1    6    6    0    0  0.10037248012E+03 -0.10594620441E+03 -0.20127989258E+01  0.14595644677E+03  0.00000000000E+00 0. -1.
        -12    1    6    6    0    0  0.86836458101E+01 -0.90344083738E+02 -0.19843718640E+02  0.92904425839E+02  0.00000000000E+00 0.  1.
</event>
<event>
12    1  0.8219652E-002  0.1801521E+03  0.7818608E-02  0.1167715E+00
         21   -1    0    0  503  502  0.00000000000E+00  0.00000000000E+00  0.13022884837E+03  0.13022884837E+03  0.00000000000E+00 0.  1.
         21   -1    0    0  501  503 -0.00000000000E+00 -0.00000000000E+00 -0.25468613061E+03  0.25468613061E+03  0.00000000000E+00 0.  1.
          6    2    1    2  501    0  0.15128864841E+02  0.52460142592E+02 -0.91341257034E+02  0.20198514166E+03  0.17167941957E+03 0.  0.
         24    2    3    3    0    0 -0.44163916254E+02  0.52036150593E+02 -0.14165734309E+02  0.10454816220E+03  0.77919430971E+02 0.  0.
         -6    2    1    2    0  502 -0.15128864841E+02 -0.52460142592E+02 -0.33116025208E+02  0.18292983732E+03  0.17142259229E+03 0.  0.
        -24    2    5    5    0    0  0.37577372086E+02  0.10437344004E+02 -0.48548666368E+02  0.99297919708E+02  0.77344080637E+02 0.  0.
          5    1    3    3  501    0  0.59292781094E+02  0.42399199870E+00 -0.77175522725E+02  0.97436979464E+02  0.47000000000E+01 0. -1.
        -11    1    4    4    0    0 -0.28994298275E+01  0.57739529750E+02  0.62653576625E+01  0.58150792735E+02  0.00000000000E+00 0.  1.
         12    1    4    4    0    0 -0.41264486426E+02 -0.57033791572E+01 -0.20431091971E+02  0.46397369462E+02  0.00000000000E+00 0. -1.
         -5    1    5    5    0  502 -0.52706236926E+02 -0.62897486596E+02  0.15432641160E+02  0.83631917616E+02  0.47000000000E+01 0.  1.
         13    1    6    6    0    0 -0.10362936297E+02  0.18282236032E+02 -0.46093385186E+02  0.50657978256E+02  0.00000000000E+00 0. -1.
        -14    1    6    6    0    0  0.47940308383E+02 -0.78448920282E+01 -0.24552811813E+01  0.48639941452E+02  0.00000000000E+00 0.  1.
</event>
<event>
12    1  0.8219652E-002  0.1769975E+03  0.7818608E-02  0.1170814E+00
         21   -1    0    0  503  502  0.00000000000E+00  0.00000000000E+00  0.37939689992E+03  0.37939689992E+03  0.00000000000E+00 0. -1.
         21   -1    0    0  501  503 -0.00000000000E+00 -0.00000000000E+00 -0.10400259962E+03  0.10400259962E+03  0.00000000000E+00 0. -1.
          6    2    1    2  501    0  0.34953260920E+02 -0.22786528950E+02  0.27542089844E+02  0.17883616928E+03  0.17170571446E+03 0.  0.
         24    2    3    3    0    0 -0.20860124882E+02 -0.52556638091E+02  0.43752293259E+02  0.11336667922E+03  0.87979519068E+02 0.  0.
         -6    2    1    2    0  502 -0.34953260920E+02  0.22786528950E+02  0.24785221045E+03  0.30456333027E+03  0.17200914966E+03 0.  0.
        -24    2    5    5    0    0 -0.69885134092E+02  0.53527755312E+02  0.22034117668E+03  0.25030279451E+03  0.79700076803E+02 0.  0.
          5    1    3    3  501    0  0.55813385802E+02  0.29770109141E+02 -0.16210203415E+02  0.65469490052E+02  0.47000000000E+01 0. -1.
        -11    1    4    4    0    0 -0.34248944429E+02  0.11477795757E+01 -0.10522969753E+02  0.35847461344E+02  0.00000000000E+00 0.  1.
         12    1    4    4    0    0  0.13388819547E+02 -0.53704417667E+02  0.54275263012E+02  0.77519217880E+02  0.00000000000E+00 0. -1.
         -5    1    5    5    0  502  0.34931873172E+02 -0.30741226362E+02  0.27511033768E+02  0.54260535756E+02  0.47000000000E+01 0.  1.
         11    1    6    6    0    0 -0.35514499091E+02  0.36422885398E+02  0.36792700563E+02  0.62782235076E+02  0.00000000000E+00 0. -1.
        -12    1    6    6    0    0 -0.34370635001E+02  0.17104869915E+02  0.18354847612E+03  0.18752055943E+03  0.00000000000E+00 0.  1.
</event>
<event>
12    1  0.8219652E-002  0.2425680E+03  0.7818608E-02  0.1118151E+00
         21   -1    0    0  501  502  0.00000000000E+00  0.00000000000E+00  0.48910674313E+03  0.48910674313E+03  0.00000000000E+00 0.  1.
         21   -1    0    0  502  503 -0.00000000000E+00 -0.00000000000E+00 -0.13083448289E+03  0.13083448289E+03  0.00000000000E+00 0.  1.
         -6    2    1    2    0  503  0.16133378406E+03  0.56968696366E+02  0.26792345329E+03  0.36141696156E+03  0.17194540132E+03 0.  0.
        -24    2    3    3    0    0  0.41127404271E+02  0.75559269043E+02  0.15580049742E+03  0.19592125053E+03  0.81918709052E+02 0.  0.
          6    2    1    2  501    0 -0.16133378406E+03 -0.56968696366E+02  0.90348806948E+02  0.25852426447E+03  0.17145805946E+03 0.  0.
         24    2    5    5    0    0 -0.62282539606E+02 -0.49662510217E+02 -0.14964552135E+02  0.11368807083E+03  0.79721765963E+02 0.  0.
          5    1    5    5  501    0 -0.99051244459E+02 -0.73061861486E+01  0.10531335908E+03  0.14483619363E+03  0.47000000000E+01 0. -1.
        -11    1    6    6    0    0 -0.52453875218E+02 -0.59304343142E+02  0.15118596595E+02  0.80603883925E+02  0.00000000000E+00 0.  1.
         12    1    6    6    0    0 -0.98286643884E+01  0.96418329245E+01 -0.30083148730E+02  0.33084186908E+02  0.00000000000E+00 0. -1.
         -5    1    3    3    0  503  0.12020637979E+03 -0.18590572677E+02  0.11212295587E+03  0.16549571103E+03  0.47000000000E+01 0.  1.
         11    1    4    4    0    0  0.13173993728E+02 -0.63110734111E+01  0.78684500200E+02  0.80028959321E+02  0.00000000000E+00 0. -1.
        -12    1    4    4    0    0  0.27953410542E+02  0.81870342455E+02  0.77115997224E+02  0.11589229121E+03  0.00000000000E+00 0.  1.
</event>
<event>
12    1  0.8219652E-002  0.2580199E+03  0.7818608E-02  0.1108621E+00
         21   -1    0    0  503  502  0.00000000000E+00  0.00000000000E+00  0.47023438470E+03  0.47023438470E+03  0.00000000000E+00 0. -1.
         21   -1    0    0  501  503 -0.00000000000E+00 -0.00000000000E+00 -0.56517573038E+03  0.56517573038E+03  0.00000000000E+00 0. -1.
          6    2    1    2  501    0  0.18340429781E+03  0.50720288133E+02 -0.49624443462E+03  0.55931460739E+03  0.17425443198E+03 0.  0.
         24    2    3    3    0    0  0.67106551922E+02 -0.37533140444E+02 -0.21583242689E+03  0.24313931197E+03  0.81369912047E+02 0.  0.
         -6    2    1    2    0  502 -0.18340429781E+03 -0.50720288133E+02  0.40130308894E+03  0.47609550769E+03  0.17150241737E+03 0.  0.
        -24    2    5    5    0    0 -0.20073449430E+03 -0.61366957249E+02  0.31218027568E+03  0.38456052466E+03  0.79812479984E+02 0.  0.
          5    1    3    3  501    0  0.11629774588E+03  0.88253428576E+02 -0.28041200773E+03  0.31617529542E+03  0.47000000000E+01 0. -1.
        -13    1    4    4    0    0  0.36044210080E+02  0.21526958369E+02 -0.56444220235E+02  0.70345895508E+02  0.00000000000E+00 0.  1.
         14    1    4    4    0    0  0.31062341842E+02 -0.59060098813E+02 -0.15938820665E+03  0.17279341646E+03  0.00000000000E+00 0. -1.
         -5    1    5    5    0  502  0.17330196493E+02  0.10646669116E+02  0.89122813261E+02  0.91534983025E+02  0.47000000000E+01 0.  1.
         13    1    6    6    0    0 -0.13269069621E+03 -0.25502064272E+02  0.25545463110E+03  0.28898831238E+03  0.00000000000E+00 0. -1.
        -14    1    6    6    0    0 -0.68043798093E+02 -0.35864892977E+02  0.56725644574E+02  0.95572212277E+02  0.00000000000E+00 0.  1.
</event>
<event>
12    1  0.8219652E-002  0.1881871E+03  0.7818608E-02  0.1160179E+00
         21   -1    0    0  501  502  0.00000000000E+00  0.00000000000E+00  0.56343107021E+02  0.56343107021E+02  0.00000000000E+00 0.  1.
         21   -1    0    0  502  503 -0.00000000000E+00 -0.00000000000E+00 -0.12385392046E+04  0.12385392046E+04  0.00000000000E+00 0. -1.
         -6    2    1    2    0  503 -0.12614415375E+02  0.77150765070E+02 -0.10456068041E+04  0.10623505824E+04  0.17083268769E+03 0.  0.
        -24    2    3    3    0    0 -0.80187768158E+02  0.56605715658E+02 -0.61203978556E+03  0.62304350688E+03  0.62898546504E+02 0.  0.
          6    2    1    2  501    0  0.12614415375E+02 -0.77150765070E+02 -0.13658929352E+03  0.23253172923E+03  0.17118120799E+03 0.  0.
         24    2    5    5    0    0 -0.83827735819E+01  0.18829732520E+02 -0.92440716306E+02  0.12471556750E+03  0.81140970076E+02 0.  0.
          5    1    5    5  501    0  0.20997188957E+02 -0.95980497590E+02 -0.44148577218E+02  0.10781616174E+03  0.47000000000E+01 0. -1.
        -13    1    6    6    0    0  0.28942681667E+02 -0.11622642866E+02 -0.17890704735E+02  0.35956111653E+02  0.00000000000E+00 0.  1.
         14    1    6    6    0    0 -0.37325455249E+02  0.30452375386E+02 -0.74550011571E+02  0.88759455843E+02  0.00000000000E+00 0. -1.
         -5    1    3    3    0  503  0.67573352783E+02  0.20545049412E+02 -0.43356701850E+03  0.43930707551E+03  0.47000000000E+01 0.  1.
         13    1    4    4    0    0 -0.81877914027E+01  0.41433011425E+02 -0.25853952081E+03  0.26196644477E+03  0.00000000000E+00 0. -1.
        -14    1    4    4    0    0 -0.71999976755E+02  0.15172704233E+02 -0.35350026475E+03  0.36107706211E+03  0.00000000000E+00 0.  1.
</event>
<event>
12    1  0.8219652E-002  0.2077258E+03  0.7818608E-02  0.1143745E+00
         21   -1    0    0  501  502  0.00000000000E+00  0.00000000000E+00  0.30645740361E+02  0.30645740361E+02  0.00000000000E+00 0. -1.
         21   -1    0    0  502  503 -0.00000000000E+00 -0.00000000000E+00 -0.14200807991E+04  0.14200807991E+04  0.00000000000E+00 0. -1.
         -6    2    1    2    0  503 -0.11313778185E+03 -0.11474048008E+02 -0.59684588141E+03  0.63136849546E+03  0.17166641908E+03 0.  0.
        -24    2    3    3    0    0 -0.12854595346E+03 -0.33332325720E+02 -0.32129817552E+03  0.35448616616E+03  0.69230183562E+02 0.  0.
          6    2    1    2  501    0  0.11313778185E+03  0.11474048008E+02 -0.79258917728E+03  0.81935804396E+03  0.17383379647E+03 0.  0.
         24    2    5    5    0    0  0.13778239735E+03  0.41788924526E+02 -0.69193249969E+03  0.71128304428E+03  0.80141635361E+02 0.  0.
          5    1    5    5  501    0 -0.24644615504E+02 -0.30314876518E+02 -0.10065667759E+03  0.10807499968E+03  0.47000000000E+01 0. -1.
        -13    1    6    6    0    0  0.83567684021E+02  0.64698822089E+02 -0.42577772135E+03  0.43869826007E+03  0.00000000000E+00 0.  1.
         14    1    6    6    0    0  0.54214713331E+02 -0.22909897562E+02 -0.26615477834E+03  0.27258478421E+03  0.00000000000E+00 0. -1.
         -5    1    3    3    0  503  0.15408171613E+02  0.21858277712E+02 -0.27554770589E+03  0.27688232930E+03  0.47000000000E+01 0.  1.
         11    1    4    4    0    0 -0.87582505817E+02  0.96793203443E+01 -0.16097477617E+03  0.18351365924E+03  0.00000000000E+00 0. -1.
        -12    1    4    4    0    0 -0.40963447644E+02 -0.43011646065E+02 -0.16032339935E+03  0.17097250691E+03  0.00000000000E+00 0.  1.
</event>
<event>
12    1  0.8219652E-002  0.1930374E+03  0.7818608E-02  0.1156507E+00
         21   -1    0    0  503  502  0.00000000000E+00  0.00000000000E+00  0.13685042610E+03  0.13685042610E+03  0.00000000000E+00 0. -1.
         21   -1    0    0  501  503 -0.00000000000E+00 -0.00000000000E+00 -0.32077183622E+03  0.32077183622E+03  0.00000000000E+00 0. -1.
          6    2    1    2  501    0  0.62619812516E+02  0.55610641606E+02  0.19373524337E+01  0.18965415511E+03  0.17015040651E+03 0.  0.
         24    2    3    3    0    0  0.62487035878E+02 -0.24758758099E+02  0.21423656124E+02  0.10682261480E+03  0.80215162124E+02 0.  0.
         -6    2    1    2    0  502 -0.62619812516E+02 -0.55610641606E+02 -0.18585876255E+03  0.26796810722E+03  0.17392424354E+03 0.  0.
        -24    2    5    5    0    0 -0.44469139931E+02 -0.80371998223E+01 -0.19541244137E+03  0.21594847576E+03  0.80035123233E+02 0.  0.
          5    1    3    3  501    0  0.13277663781E+00  0.80369399706E+02 -0.19486303691E+02  0.82831540311E+02  0.47000000000E+01 0. -1.
        -11    1    4    4    0    0  0.12679684791E+02 -0.35883642306E+02 -0.18224694293E+02  0.42196559974E+02  0.00000000000E+00 0.  1.
         12    1    4    4    0    0  0.49807351087E+02  0.11124884207E+02  0.39648350418E+02  0.64626054822E+02  0.00000000000E+00 0. -1.
         -5    1    5    5    0  502 -0.18150672585E+02 -0.47573441784E+02  0.95536788224E+01  0.52019631463E+02  0.47000000000E+01 0.  1.
         13    1    6    6    0    0 -0.57698163067E+01 -0.37377812541E+02 -0.50348229835E+02  0.62970913111E+02  0.00000000000E+00 0. -1.
        -14    1    6    6    0    0 -0.38699323624E+02  0.29340612718E+02 -0.14506421154E+03  0.15297756264E+03  0.00000000000E+00 0.  1.
</event>
<event>
12    1  0.8219652E-002  0.2257195E+03  0.7818608E-02  0.1131344E+00
         21   -1    0    0  501  502  0.00000000000E+00  0.00000000000E+00  0.15248428138E+03  0.15248428138E+03  0.00000000000E+00 0. -1.
         21   -1    0    0  502  503 -0.00000000000E+00 -0.00000000000E+00 -0.49865408118E+03  0.49865408118E+03  0.00000000000E+00 0.  1.
         -6    2    1    2    0  503  0.18370464417E+02 -0.13045243486E+03 -0.36966185084E+03  0.43312719994E+03  0.18328659427E+03 0.  0.
        -24    2    3    3    0    0 -0.38808684557E+02 -0.89842332633E+01 -0.12423347689E+03  0.15333950218E+03  0.80574286874E+02 0.  0.
          6    2    1    2  501    0 -0.18370464417E+02  0.13045243486E+03  0.23492051038E+02  0.21801116262E+03  0.17210949666E+03 0.  0.
         24    2    5    5    0    0  0.36984409053E+01  0.74076694109E+02 -0.52932763755E+02  0.12039916006E+03  0.78695903260E+02 0.  0.
          5    1    5    5  501    0 -0.22068905322E+02  0.56375740748E+02  0.76424814793E+02  0.97612002557E+02  0.47000000000E+01 0. -1.
        -11    1    6    6    0    0 -0.34444765869E+02  0.56205171204E+02 -0.29803221419E+02  0.72344282240E+02  0.00000000000E+00 0.  1.
         12    1    6    6    0    0  0.38143206774E+02  0.17871522905E+02 -0.23129542336E+02  0.48054877823E+02  0.00000000000E+00 0. -1.
         -5    1    3    3    0  503  0.57179148974E+02 -0.12146820159E+03 -0.24542837395E+03  0.27978769776E+03  0.47000000000E+01 0.  1.
         11    1    4    4    0    0 -0.42038146126E+02 -0.29257807099E+01 -0.16291490141E+02  0.45179404307E+02  0.00000000000E+00 0. -1.
        -12    1    4    4    0    0  0.32294615692E+01 -0.60584525535E+01 -0.10794198675E+03  0.10816009788E+03  0.00000000000E+00 0.  1.
</event>
<event>
12    1  0.8219652E-002  0.2052736E+03  0.7818608E-02  0.1149124E+00
         21   -1    0    0  501  502  0.00000000000E+00  0.00000000000E+00  0.11193050109E+03  0.11193050109E+03  0.00000000000E+00 0.  1.
         21   -1    0    0  502  503 -0.00000000000E+00 -0.00000000000E+00 -0.54790502316E+03  0.54790502316E+03  0.00000000000E+00 0.  1.
         -6    2    1    2    0  503  0.70515552362E+02  0.23347635325E+02 -0.41253621609E+03  0.45322816492E+03  0.17237193708E+03 0.  0.
        -24    2    3    3    0    0 -0.22599480919E+02  0.13303539002E+02 -0.26806815198E+03  0.28099458852E+03  0.80060626920E+02 0.  0.
          6    2    1    2  501    0 -0.70515552362E+02 -0.23347635325E+02 -0.23438305973E+02  0.20660735933E+03  0.19136272244E+03 0.  0.
         24    2    5    5    0    0 -0.11514373477E+03 -0.45522056552E+02  0.70536516857E+01  0.14799653180E+03  0.80764361781E+02 0.  0.
          5    1    5    5  501    0  0.44628182406E+02  0.22174421227E+02 -0.30491957659E+02  0.58610827528E+02  0.47000000000E+01 0. -1.
        -11    1    6    6    0    0  0.60990243908E+01  0.11842803489E+02  0.37019540929E+01  0.13825865510E+02  0.00000000000E+00 0.  1.
         12    1    6    6    0    0 -0.12124275916E+03 -0.57364860042E+02  0.33516975927E+01  0.13417066629E+03  0.00000000000E+00 0. -1.
         -5    1    3    3    0  503  0.93115033281E+02  0.10044096323E+02 -0.14446806411E+03  0.17223357641E+03  0.47000000000E+01 0.  1.
         13    1    4    4    0    0 -0.40450598112E+02  0.20897840789E+02 -0.80966778536E+02  0.92890203271E+02  0.00000000000E+00 0. -1.
        -14    1    4    4    0    0  0.17851117192E+02 -0.75943017870E+01 -0.18710137344E+03  0.18810438525E+03  0.00000000000E+00 0.  1.
</event>
<event>
12    1  0.8219652E-002  0.3103823E+03  0.7818608E-02  0.1080271E+00
         21   -1    0    0  501  502  0.00000000000E+00  0.00000000000E+00  0.48161959377E+03  0.48161959377E+03  0.00000000000E+00 0. -1.
         21   -1    0    0  502  503 -0.00000000000E+00 -0.00000000000E+00 -0.19951780870E+03  0.19951780870E+03  0.00000000000E+00 0.  1.
         -6    2    1    2    0  503 -0.21239805685E+03  0.14559090105E+03  0.14727741041E+03  0.34273704836E+03  0.17166363529E+03 0.  0.
        -24    2    3    3    0    0 -0.16564116709E+03  0.12149392091E+03  0.41753587372E+02  0.22473603811E+03  0.81025648500E+02 0.  0.
          6    2    1    2  501    0  0.21239805685E+03 -0.14559090105E+03  0.13482437466E+03  0.33840035410E+03  0.17328457125E+03 0.  0.
         24    2    5    5    0    0  0.36471003245E+02 -0.18889652219E+02  0.46557334691E+02  0.10427069987E+03  0.83772551588E+02 0.  0.
          5    1    5    5  501    0  0.17592705360E+03 -0.12670124883E+03  0.88267039974E+02  0.23412965423E+03  0.47000000000E+01 0. -1.
        -13    1    6    6    0    0 -0.63975677045E+01 -0.19487664298E+02 -0.17653947056E+02  0.27062146607E+02  0.00000000000E+00 0.  1.
         14    1    6    6    0    0  0.42868570950E+02  0.59801207894E+00  0.64211281746E+02  0.77208553265E+02  0.00000000000E+00 0. -1.
         -5    1    3    3    0  503 -0.46756889754E+02  0.24096980148E+02  0.10552382304E+03  0.11800101025E+03  0.47000000000E+01 0.  1.
         13    1    4    4    0    0 -0.88267738116E+02  0.33389571486E+02  0.50718849708E+02  0.10713756947E+03  0.00000000000E+00 0. -1.
        -14    1    4    4    0    0 -0.77373428978E+02  0.88104349420E+02 -0.89652623354E+01  0.11759846864E+03  0.00000000000E+00 0.  1.
</event>
<event>
12    1  0.8219652E-002  0.2195666E+03  0.7818608E-02  0.1134509E+00
         21   -1    0    0  503  502  0.00000000000E+00  0.00000000000E+00  0.34689272231E+03  0.34689272231E+03  0.00000000000E+00 0.  1.
         21   -1    0    0  501  503 -0.00000000000E+00 -0.00000000000E+00 -0.14830465392E+03  0.14830465392E+03  0.00000000000E+00 0. -1.
          6    2    1    2  501    0  0.11826548088E+03 -0.62970617191E+02  0.34232663422E+02  0.22221922292E+03  0.17394678840E+03 0.  0.
         24    2    3    3    0    0  0.66293805593E+02 -0.94774159498E+02  0.60671530965E+02  0.15563375865E+03  0.84639365514E+02 0.  0.
         -6    2    1    2    0  502 -0.11826548088E+03  0.62970617191E+02  0.16435540497E+03  0.27297815331E+03  0.17190797087E+03 0.  0.
        -24    2    5    5    0    0 -0.14859891757E+03  0.53815998377E+02  0.10629739255E+03  0.20667018069E+03  0.80222365570E+02 0.  0.
          5    1    3    3  501    0  0.51971675282E+02  0.31803542306E+02 -0.26438867543E+02  0.66585464268E+02  0.47000000000E+01 0. -1.
        -13    1    4    4    0    0  0.86070855698E+02 -0.70530228514E+02  0.53799704605E+02  0.12360062116E+03  0.00000000000E+00 0.  1.
         14    1    4    4    0    0 -0.19777050105E+02 -0.24243930984E+02  0.68718263601E+01  0.32033137497E+02  0.00000000000E+00 0. -1.
         -5    1    5    5    0  502  0.30333436698E+02  0.91546188141E+01  0.58058012423E+02  0.66307972628E+02  0.47000000000E+01 0.  1.
         13    1    6    6    0    0 -0.24188477215E+02  0.22529896561E+02 -0.89231510146E+01  0.34238885687E+02  0.00000000000E+00 0. -1.
        -14    1    6    6    0    0 -0.12441044036E+03  0.31286101816E+02  0.11522054356E+03  0.17243129500E+03  0.00000000000E+00 0.  1.
</event>
<event>
12    1  0.8219652E-002  0.1753309E+03  0.7818608E-02  0.1172940E+00
         21   -1    0    0  501  502  0.00000000000E+00  0.00000000000E+00  0.47638973392E+03  0.47638973392E+03  0.00000000000E+00 0.  1.
         21   -1    0    0  502  503 -0.00000000000E+00 -0.00000000000E+00 -0.63864691805E+02  0.63864691805E+02  0.00000000000E+00 0.  1.
         -6    2    1    2    0  503 -0.12270715191E+02 -0.29052776810E+02  0.19321535853E+03  0.25947395479E+03  0.17029364096E+03 0.  0.
        -24    2    3    3    0    0 -0.68138340821E+02 -0.20521114362E+02  0.16487028955E+03  0.19607431920E+03  0.78733580187E+02 0.  0.
          6    2    1    2  501    0  0.12270715191E+02  0.29052776810E+02  0.21930968358E+03  0.28078047093E+03  0.17247116064E+03 0.  0.
         24    2    5    5    0    0 -0.35144229503E+02  0.53972287168E+02  0.19255667494E+03  0.22072239530E+03  0.86557368686E+02 0.  0.
          5    1    5    5  501    0  0.47414944694E+02 -0.24919510358E+02  0.26753008638E+02  0.60058075627E+02  0.47000000000E+01 0. -1.
        -13    1    6    6    0    0 -0.15115276273E+02  0.69266042780E+02  0.17804820207E+03  0.19164398900E+03  0.00000000000E+00 0.  1.
         14    1    6    6    0    0 -0.20028953230E+02 -0.15293755611E+02  0.14508472877E+02  0.29078406308E+02  0.00000000000E+00 0. -1.
         -5    1    3    3    0  503  0.55867625630E+02 -0.85316624477E+01  0.28345068985E+02  0.63399635593E+02  0.47000000000E+01 0.  1.
         11    1    4    4    0    0  0.10699164518E+02  0.14959900551E+02  0.18553598542E+02  0.26124830425E+02  0.00000000000E+00 0. -1.
        -12    1    4    4    0    0 -0.78837505339E+02 -0.35481014913E+02  0.14631669101E+03  0.16994948877E+03  0.00000000000E+00 0.  1.
</event>
<event>
12    1  0.8219652E-002  0.2459234E+03  0.7818608E-02  0.1116122E+00
         21   -1    0    0  503  502  0.00000000000E+00  0.00000000000E+00  0.42824927859E+03  0.42824927859E+03  0.00000000000E+00 0. -1.
         21   -1    0    0  501  503 -0.00000000000E+00 -0.00000000000E+00 -0.20133580064E+03  0.20133580064E+03  0.00000000000E+00 0. -1.
          6    2    1    2  501    0  0.14771273797E+03  0.97147891630E+02 -0.59416264161E+02  0.25299919083E+03  0.17094306744E+03 0.  0.
         24    2    3    3    0    0  0.43251935948E+02  0.10781695412E+03 -0.41424820599E+02  0.14636115777E+03  0.78805756025E+02 0.  0.
         -6    2    1    2    0  502 -0.14771273797E+03 -0.97147891630E+02  0.28632974211E+03  0.37658588840E+03  0.16904272927E+03 0.  0.
        -24    2    5    5    0    0 -0.33498223142E+02 -0.15093210716E+02  0.18671864980E+03  0.20418407353E+03  0.74009092278E+02 0.  0.
          5    1    3    3  501    0  0.10446080202E+03 -0.10669062489E+02 -0.17991443563E+02  0.10663803306E+03  0.47000000000E+01 0. -1.
        -11    1    4    4    0    0  0.66572757818E+02  0.79865222233E+02 -0.30896950199E+02  0.10846661854E+03  0.00000000000E+00 0.  1.
         12    1    4    4    0    0 -0.23320821870E+02  0.27951731887E+02 -0.10527870400E+02  0.37894539228E+02  0.00000000000E+00 0. -1.
         -5    1    5    5    0  502 -0.11421451483E+03 -0.82054680914E+02  0.99611092313E+02  0.17240181486E+03  0.47000000000E+01 0.  1.
         11    1    6    6    0    0 -0.42903175741E+02  0.48123383101E+01  0.51576879735E+02  0.67260802938E+02  0.00000000000E+00 0. -1.
        -12    1    6    6    0    0  0.94049525987E+01 -0.19905549027E+02  0.13514177006E+03  0.13692327060E+03  0.00000000000E+00 0.  1.
</event>
<event>
12    1  0.8219652E-002  0.1723683E+03  0.7818608E-02  0.1175766E+00
         21   -1    0    0  503  502  0.00000000000E+00  0.00000000000E+00  0.12575535904E+03  0.12575535904E+03  0.00000000000E+00 0. -1.
         21   -1    0    0  501  503 -0.00000000000E+00 -0.00000000000E+00 -0.79292170705E+03  0.79292170705E+03  0.00000000000E+00 0. -1.
          6    2    1    2  501    0  0.16347491746E+02  0.90492142471E+01 -0.71953208229E+03  0.73989003090E+03  0.17135259443E+03 0.  0.
         24    2    3    3    0    0  0.53359865074E+00 -0.32177791936E+01 -0.15430298640E+03  0.17428718509E+03  0.80968959768E+02 0.  0.
         -6    2    1    2    0  502 -0.16347491746E+02 -0.90492142471E+01  0.52365734283E+02  0.17878703519E+03  0.16992205583E+03 0.  0.
        -24    2    5    5    0    0 -0.69701197829E+02 -0.29085218673E+01  0.56790614628E+01  0.10747040687E+03  0.81553173665E+02 0.  0.
          5    1    3    3  501    0  0.15813893095E+02  0.12266993441E+02 -0.56522909589E+03  0.56560284581E+03  0.47000000000E+01 0. -1.
        -11    1    4    4    0    0 -0.12494698239E+02 -0.44891170381E+01 -0.15961065010E+03  0.16016188461E+03  0.00000000000E+00 0.  1.
         12    1    4    4    0    0  0.13028296889E+02  0.12713378445E+01  0.53076637038E+01  0.14125300483E+02  0.00000000000E+00 0. -1.
         -5    1    5    5    0  502  0.53353706084E+02 -0.61406923798E+01  0.46686672820E+02  0.71316628319E+02  0.47000000000E+01 0.  1.
         13    1    6    6    0    0 -0.36095957011E+02  0.35820747217E+02 -0.13680350891E+02  0.52661143590E+02  0.00000000000E+00 0. -1.
        -14    1    6    6    0    0 -0.33605240818E+02 -0.38729269084E+02  0.19359412354E+02  0.54809263277E+02  0.00000000000E+00 0.  1.
</event>
<event>
12    1  0.8219652E-002  0.3728895E+03  0.7818608E-02  0.1053614E+00
         21   -1    0    0  501  502  0.00000000000E+00  0.00000000000E+00  0.67709019369E+03  0.67709019369E+03  0.00000000000E+00 0. -1.
         21   -1    0    0  502  503 -0.00000000000E+00 -0.00000000000E+00 -0.30549949788E+03  0.30549949788E+03  0.00000000000E+00 0. -1.
         -6    2    1    2    0  503 -0.35747771489E+02 -0.32843072637E+03 -0.95619169625E+02  0.38495404090E+03  0.17292178237E+03 0.  0.
        -24    2    3    3    0    0 -0.13074735947E+02 -0.19507761772E+03  0.12840446101E+02  0.21151040057E+03  0.79658940738E+02 0.  0.
          6    2    1    2  501    0  0.35747771489E+02  0.32843072637E+03  0.46720986544E+03  0.59763565068E+03  0.17244902844E+03 0.  0.
         24    2    5    5    0    0  0.27269127064E+02  0.22599341791E+03  0.41997564504E+03  0.48441705172E+03  0.80397184859E+02 0.  0.
          5    1    5    5  501    0  0.84786444256E+01  0.10243730845E+03  0.47234220394E+02  0.11321859896E+03  0.47000000000E+01 0. -1.
        -13    1    6    6    0    0  0.48474606364E+02  0.81972937012E+02  0.14952538064E+03  0.17727715397E+03  0.00000000000E+00 0.  1.
         14    1    6    6    0    0 -0.21205479300E+02  0.14402048090E+03  0.27045026440E+03  0.30713989775E+03  0.00000000000E+00 0. -1.
         -5    1    3    3    0  503 -0.22673035543E+02 -0.13335310865E+03 -0.10845961573E+03  0.17344364033E+03  0.47000000000E+01 0.  1.
         11    1    4    4    0    0  0.19225322951E+02 -0.13152144915E+03 -0.17430390303E+02  0.13405716368E+03  0.00000000000E+00 0. -1.
        -12    1    4    4    0    0 -0.32300058898E+02 -0.63556168574E+02  0.30270836404E+02  0.77453236893E+02  0.00000000000E+00 0.  1.
</event>
<event>
12    1  0.8219652E-002  0.1777014E+03  0.7818608E-02  0.1170295E+00
         21   -1    0    0  503  502  0.00000000000E+00  0.00000000000E+00  0.14165712542E+03  0.14165712542E+03  0.00000000000E+00 0.  1.
         21   -1    0    0  501  503 -0.00000000000E+00 -0.00000000000E+00 -0.97728864325E+03  0.97728864325E+03  0.00000000000E+00 0.  1.
          6    2    1    2  501    0 -0.34166603840E+02 -0.25936446389E+02 -0.91003662994E+03  0.92722405398E+03  0.17244628840E+03 0.  0.
         24    2    3    3    0    0  0.91296729167E+01 -0.77144239109E+02 -0.58254920064E+03  0.59290846660E+03  0.78372788943E+02 0.  0.
         -6    2    1    2    0  502  0.34166603840E+02  0.25936446389E+02  0.74405112116E+02  0.19172171469E+03  0.17140898198E+03 0.  0.
        -24    2    5    5    0    0  0.29994082962E+02  0.81889105289E+02  0.62379080905E+02  0.13414719432E+03  0.80615441652E+02 0.  0.
          5    1    3    3  501    0 -0.43296276757E+02  0.51207792721E+02 -0.32748742930E+03  0.33431558739E+03  0.47000000000E+01 0. -1.
        -11    1    4    4    0    0  0.11282316205E+02  0.96513985344E+01 -0.28877898506E+02  0.32471112927E+02  0.00000000000E+00 0.  1.
         12    1    4    4    0    0 -0.21526432881E+01 -0.86795637644E+02 -0.55367130213E+03  0.56043735367E+03  0.00000000000E+00 0. -1.
         -5    1    5    5    0  502  0.41725208784E+01 -0.55952658900E+02  0.12026031210E+02  0.57574520364E+02  0.47000000000E+01 0.  1.
         13    1    6    6    0    0 -0.27817519262E+02  0.31988610749E+02  0.22088448832E+02  0.47801518463E+02  0.00000000000E+00 0. -1.
        -14    1    6    6    0    0  0.57811602224E+02  0.49900494540E+02  0.40290632073E+02  0.86345675861E+02  0.00000000000E+00 0.  1.
</event>
<event>
12    1  0.8219652E-002  0.1752062E+03  0.7818608E-02  0.1173070E+00
         21   -1    0    0  501  502  0.00000000000E+00  0.00000000000E+00  0.32515241350E+03  0.32515241350E+03  0.00000000000E+00 0. -1.
         21   -1    0    0  502  503 -0.00000000000E+00 -0.00000000000E+00 -0.13959471387E+03  0.13959471387E+03  0.00000000000E+00 0. -1.
         -6    2    1    2    0  503 -0.12445085802E+02  0.17269493773E+02 -0.40728862039E+02  0.17987790092E+03  0.17390831913E+03 0.  0.
        -24    2    3    3    0    0  0.60321630332E+02  0.10785479706E+01 -0.30344033925E+01  0.96211277257E+02  0.74883508971E+02 0.  0.
          6    2    1    2  501    0  0.12445085802E+02 -0.17269493773E+02  0.22628656167E+03  0.28486922645E+03  0.17173162962E+03 0.  0.
         24    2    5    5    0    0 -0.27604729592E+02  0.15149594928E+02  0.49376294586E+02  0.10054799158E+03  0.81733400892E+02 0.  0.
          5    1    5    5  501    0  0.40049815394E+02 -0.32419088701E+02  0.17691026708E+03  0.18432123487E+03  0.47000000000E+01 0. -1.
        -13    1    6    6    0    0 -0.89830231155E+01  0.39431411709E+02 -0.22827556555E+01  0.40506072472E+02  0.00000000000E+00 0.  1.
         14    1    6    6    0    0 -0.18621706477E+02 -0.24281816782E+02  0.51659050242E+02  0.60041919108E+02  0.00000000000E+00 0. -1.
         -5    1    3    3    0  503 -0.72766716134E+02  0.16190945802E+02 -0.37694458647E+02  0.83666623666E+02  0.47000000000E+01 0.  1.
         13    1    4    4    0    0 -0.13609519423E+02 -0.15003078079E+02  0.21726163337E+01  0.20372325162E+02  0.00000000000E+00 0. -1.
        -14    1    4    4    0    0  0.73931149755E+02  0.16081626050E+02 -0.52070197262E+01  0.75838952095E+02  0.00000000000E+00 0.  1.
</event>
<event>
12    1  0.8219652E-002  0.2013416E+03  0.7818608E-02  0.1148982E+00
         21   -1    0    0  501  502  0.00000000000E+00  0.00000000000E+00  0.18259169814E+03  0.18259169814E+03  0.00000000000E+00 0. -1.
         21   -1    0    0  502  503 -0.00000000000E+00 -0.00000000000E+00 -0.24511606588E+03  0.24511606588E+03  0.00000000000E+00 0. -1.
         -6    2    1    2    0  503  0.22639333136E+01  0.10310291475E+03  0.36959943520E+02  0.20470587436E+03  0.17292518945E+03 0.  0.
        -24    2    3    3    0    0  0.69954471035E+02  0.48435097833E+02  0.32434152702E+01  0.11127422351E+03  0.71636906370E+02 0.  0.
          6    2    1    2  501    0 -0.22639333136E+01 -0.10310291475E+03 -0.99484311256E+02  0.22300188966E+03  0.17087240322E+03 0.  0.
         24    2    5    5    0    0 -0.55281649108E+02 -0.10448299699E+03 -0.49697626544E+02  0.15010753604E+03  0.78036279416E+02 0.  0.
          5    1    5    5  501    0  0.53017715794E+02  0.13800822379E+01 -0.49786684713E+02  0.72894353620E+02  0.47000000000E+01 0. -1.
        -13    1    6    6    0    0 -0.25741608829E+02  0.65483441307E+01 -0.63616468144E+01  0.27312667137E+02  0.00000000000E+00 0.  1.
         14    1    6    6    0    0 -0.29540040279E+02 -0.11103134112E+03 -0.43335979729E+02  0.12279486891E+03  0.00000000000E+00 0. -1.
         -5    1    3    3    0  503 -0.67690537722E+02  0.54667816919E+02  0.33716528250E+02  0.93431650852E+02  0.47000000000E+01 0.  1.
         13    1    4    4    0    0  0.62614270943E+02  0.63715670325E+02 -0.98233057587E+01  0.89870634284E+02  0.00000000000E+00 0. -1.
        -14    1    4    4    0    0  0.73402000926E+01 -0.15280572492E+02  0.13066721029E+02  0.21403589221E+02  0.00000000000E+00 0.  1.
</event>
<event>
12    1  0.8219652E-002  0.2425192E+03  0.7818608E-02  0.1118563E+00
         21   -1    0    0  503  502  0.00000000000E+00  0.00000000000E+00  0.19011602272E+03  0.19011602272E+03  0.00000000000E+00 0. -1.
         21   -1    0    0  501  503 -0.00000000000E+00 -0.00000000000E+00 -0.30744823907E+03  0.30744823907E+03  0.00000000000E+00 0. -1.
          6    2    1    2  501    0  0.16694080066E+03  0.39669184225E+01 -0.41933229436E+02  0.24611778997E+03  0.17587098523E+03 0.  0.
         24    2    3    3    0    0  0.66138000668E+02 -0.13051890617E+02  0.43398627604E+02  0.11287192635E+03  0.79448372541E+02 0.  0.
         -6    2    1    2    0  502 -0.16694080066E+03 -0.39669184225E+01 -0.75398986911E+02  0.25144647181E+03  0.17220729832E+03 0.  0.
        -24    2    5    5    0    0 -0.16130856204E+03 -0.54899219698E+02 -0.60197900401E+02  0.19779030296E+03  0.80391792005E+02 0.  0.
          5    1    3    3  501    0  0.10080279999E+03  0.17018809040E+02 -0.85331857040E+02  0.13324586362E+03  0.47000000000E+01 0. -1.
        -13    1    4    4    0    0 -0.79842682989E+01  0.86903864617E+01  0.32855195875E+02  0.34910388899E+02  0.00000000000E+00 0.  1.
         14    1    4    4    0    0  0.74122268967E+02 -0.21742277079E+02  0.10543431729E+02  0.77961537453E+02  0.00000000000E+00 0. -1.
         -5    1    5    5    0  502 -0.56322386182E+01  0.50932301275E+02 -0.15201086510E+02  0.53656168854E+02  0.47000000000E+01 0.  1.
         13    1    6    6    0    0 -0.11679215842E+03 -0.69990183775E+01 -0.14243078043E+02  0.11786543089E+03  0.00000000000E+00 0. -1.
        -14    1    6    6    0    0 -0.44516403621E+02 -0.47900201320E+02 -0.45954822358E+02  0.79924872072E+02  0.00000000000E+00 0.  1.
</event>
<event>
12    1  0.8219652E-002  0.3219879E+03  0.7818608E-02  0.1074957E+00
         21   -1    0    0  501  502  0.00000000000E+00  0.00000000000E+00  0.54403665865E+02  0.54403665865E+02  0.00000000000E+00 0.  1.
         21   -1    0    0  502  503 -0.00000000000E+00 -0.00000000000E+00 -0.27987780502E+04  0.27987780502E+04  0.00000000000E+00 0. -1.
         -6    2    1    2    0  503  0.10235740962E+03  0.24986244849E+03 -0.21858901048E+04  0.22094777129E+04  0.17540789973E+03 0.  0.
        -24    2    3    3    0    0  0.12986947307E+03  0.14050660198E+03 -0.15015020643E+04  0.15158461862E+04  0.81688592508E+02 0.  0.
          6    2    1    2  501    0 -0.10235740962E+03 -0.24986244849E+03 -0.55848427959E+03  0.64370400317E+03  0.17187748741E+03 0.  0.
         24    2    5    5    0    0 -0.93919927083E+02 -0.23515467305E+03 -0.37141834026E+03  0.45581237103E+03  0.75462978616E+02 0.  0.
          5    1    5    5  501    0 -0.84374825318E+01 -0.14707775440E+02 -0.18706593934E+03  0.18789163214E+03  0.47000000000E+01 0. -1.
        -11    1    6    6    0    0 -0.36712226836E+01  0.57462182465E+01 -0.12260522303E+02  0.14029159179E+02  0.00000000000E+00 0.  1.
         12    1    6    6    0    0 -0.90248704400E+02 -0.24090089130E+03 -0.35915781795E+03  0.44178321185E+03  0.00000000000E+00 0. -1.
         -5    1    3    3    0  503 -0.27512063456E+02  0.10935584651E+03 -0.68438804052E+03  0.69363152669E+03  0.47000000000E+01 0.  1.
         11    1    4    4    0    0  0.63275507126E+02  0.73324196399E+02 -0.10548548520E+04  0.10592917381E+04  0.00000000000E+00 0. -1.
        -12    1    4    4    0    0  0.66593965946E+02  0.67182405584E+02 -0.44664721227E+03  0.45655444818E+03  0.00000000000E+00 0.  1.
</event>
<event>
12    1  0.8219652E-002  0.2279315E+03  0.7818608E-02  0.1128275E+00
         21   -1    0    0  503  502  0.00000000000E+00  0.00000000000E+00  0.91759633054E+02  0.91759633054E+02  0.00000000000E+00 0.  1.
         21   -1    0    0  501  503 -0.00000000000E+00 -0.00000000000E+00 -0.74513607457E+03  0.74513607457E+03  0.00000000000E+00 0. -1.
          6    2    1    2  501    0 -0.79824317994E+02 -0.12475880107E+03 -0.53362838638E+03  0.58026892021E+03  0.17325150742E+03 0.  0.
         24    2    3    3    0    0 -0.70240688110E+02 -0.82858972988E+02 -0.17872026992E+03  0.22273668015E+03  0.76624605261E+02 0.  0.
         -6    2    1    2    0  502  0.79824317994E+02  0.12475880107E+03 -0.11974805513E+03  0.25662678742E+03  0.17199136933E+03 0.  0.
        -24    2    5    5    0    0  0.85932060888E+02  0.45279323515E+02 -0.12350772453E+03  0.17668607821E+03  0.80803935470E+02 0.  0.
          5    1    3    3  501    0 -0.95836298844E+01 -0.41899828077E+02 -0.35490811646E+03  0.35753224007E+03  0.47000000000E+01 0. -1.
        -13    1    4    4    0    0 -0.83742503192E+02 -0.79441874573E+02 -0.17232277445E+03  0.20741011757E+03  0.00000000000E+00 0.  1.
         14    1    4    4    0    0  0.13501815082E+02 -0.34170984148E+01 -0.63974954705E+01  0.15326562575E+02  0.00000000000E+00 0. -1.
         -5    1    5    5    0  502 -0.61077428935E+01  0.79479477550E+02  0.37596693932E+01  0.79940709209E+02  0.47000000000E+01 0.  1.
         13    1    6    6    0    0 -0.10306274304E+02  0.17216699647E+02 -0.45287300312E+02  0.49533560405E+02  0.00000000000E+00 0. -1.
        -14    1    6    6    0    0  0.96238335192E+02  0.28062623867E+02 -0.78220424215E+02  0.12715251780E+03  0.00000000000E+00 0.  1.
</event>
<event>
12    1  0.8219652E-002  0.1872359E+03  0.7818608E-02  0.1161408E+00
         21   -1    0    0  503  502  0.00000000000E+00  0.00000000000E+00  0.44332412540E+03  0.44332412540E+03  0.00000000000E+00 0.  1.
         21   -1    0    0  501  503 -0.00000000000E+00 -0.00000000000E+00 -0.14533069489E+03  0.14533069489E+03  0.00000000000E+00 0.  1.
          6    2    1    2  501    0 -0.36256243205E+02  0.60291935252E+02 -0.50498193969E+02  0.19392618655E+03  0.17351560623E+03 0.  0.
         24    2    3    3    0    0 -0.16654061052E+01  0.47353196223E+02 -0.97115593149E+02  0.13426708091E+03  0.79693863084E+02 0.  0.
         -6    2    1    2    0  502  0.36256243205E+02 -0.60291935252E+02  0.34849162448E+03  0.39472863374E+03  0.17150699499E+03 0.  0.
        -24    2    5    5    0    0  0.28479646229E+02  0.18999417164E+02  0.26234354712E+03  0.27729279908E+03  0.83036688312E+02 0.  0.
          5    1    3    3  501    0 -0.34590837100E+02  0.12938739029E+02  0.46617399180E+02  0.59659105636E+02  0.47000000000E+01 0. -1.
        -11    1    4    4    0    0 -0.22482944107E+02  0.55341625205E+02 -0.37282436518E+02  0.70414191246E+02  0.00000000000E+00 0.  1.
         12    1    4    4    0    0  0.20817538002E+02 -0.79884289815E+01 -0.59833156631E+02  0.63852889664E+02  0.00000000000E+00 0. -1.
         -5    1    5    5    0  502  0.77765969761E+01 -0.79291352415E+02  0.86148077364E+02  0.11743583466E+03  0.47000000000E+01 0.  1.
         11    1    6    6    0    0 -0.88618313909E+01  0.42613941580E+02  0.10036144315E+03  0.10939332403E+03  0.00000000000E+00 0. -1.
        -12    1    6    6    0    0  0.37341477620E+02 -0.23614524417E+02  0.16198210397E+03  0.16789947505E+03  0.00000000000E+00 0.  1.
</event>
<event>
12    1  0.8219652E-002  0.1843756E+03  0.7818608E-02  0.1163971E+00
         21   -1    0    0  503  502  0.00000000000E+00  0.00000000000E+00  0.41611368669E+03  0.41611368669E+03  0.00000000000E+00 0.  1.
         21   -1    0    0  501  503 -0.00000000000E+00 -0.00000000000E+00 -0.13879246655E+03  0.13879246655E+03  0.00000000000E+00 0.  1.
          6    2    1    2  501    0 -0.31425788704E+02  0.56597284558E+02 -0.39964255522E+02  0.18865712734E+03  0.17263700982E+03 0.  0.
         24    2    3    3    0    0 -0.43427036799E+01  0.64768221866E+02 -0.85599999225E+02  0.13475936473E+03  0.81356898145E+02 0.  0.
         -6    2    1    2    0  502  0.31425788704E+02 -0.56597284558E+02  0.31728547566E+03  0.36624902590E+03  0.17110652557E+03 0.  0.
        -24    2    5    5    0    0 -0.40711939252E+02  0.36024679540E+01  0.15336163334E+03  0.17724908390E+03  0.78911389467E+02 0.  0.
          5    1    3    3  501    0 -0.27083085024E+02 -0.81709373081E+01  0.45635743704E+02  0.53897762610E+02  0.47000000000E+01 0. -1.
        -13    1    4    4    0    0  0.12445471000E+02  0.75015180032E+02 -0.41860798546E+02  0.86801459887E+02  0.00000000000E+00 0.  1.
         14    1    4    4    0    0 -0.16788174679E+02 -0.10246958166E+02 -0.43739200679E+02  0.47957904841E+02  0.00000000000E+00 0. -1.
         -5    1    5    5    0  502  0.72137727957E+02 -0.60199752512E+02  0.16392384232E+03  0.18899994201E+03  0.47000000000E+01 0.  1.
         11    1    6    6    0    0  0.65989158925E+01 -0.18105663392E+02  0.48391715676E+01  0.19869029148E+02  0.00000000000E+00 0. -1.
        -12    1    6    6    0    0 -0.47310855145E+02  0.21708131346E+02  0.14852246177E+03  0.15738005475E+03  0.00000000000E+00 0.  1.
</event>
<event>
12    1  0.8219652E-002  0.1827823E+03  0.7818608E-02  0.1165311E+00
         21   -1    0    0  501  502  0.00000000000E+00  0.00000000000E+00  0.26858134291E+04  0.26858134291E+04  0.00000000000E+00 0.  1.
         21   -1    0    0  502  503 -0.00000000000E+00 -0.00000000000E+00 -0.16326370279E+02  0.16326370279E+02  0.00000000000E+00 0.  1.
         -6    2    1    2    0  503 -0.35217454068E+02 -0.46306139702E+02  0.67332367895E+03  0.69769200953E+03  0.17327676096E+03 0.  0.
        -24    2    3    3    0    0 -0.26597810747E+02 -0.44786271264E+01  0.63282198001E+03  0.63864697014E+03  0.81723879358E+02 0.  0.
          6    2    1    2  501    0  0.35217454068E+02  0.46306139702E+02  0.19961633798E+04  0.20044477898E+04  0.17250558088E+03 0.  0.
         24    2    5    5    0    0  0.55404470422E+02 -0.17111546282E+02  0.15706096269E+04  0.15736956509E+04  0.79630027269E+02 0.  0.
          5    1    5    5  501    0 -0.20187016354E+02  0.63417685984E+02  0.42555375296E+03  0.43075213892E+03  0.47000000000E+01 0. -1.
        -13    1    6    6    0    0  0.18490533454E+01  0.27933788506E+02  0.37862115649E+03  0.37965470586E+03  0.00000000000E+00 0.  1.
         14    1    6    6    0    0  0.53555417077E+02 -0.45045334788E+02  0.11919884704E+04  0.11940409450E+04  0.00000000000E+00 0. -1.
         -5    1    3    3    0  503 -0.86196433213E+01 -0.41827512576E+02  0.40501698945E+02  0.59045039391E+02  0.47000000000E+01 0.  1.
         13    1    4    4    0    0  0.24832182786E+02  0.80851789943E+01  0.34568257585E+03  0.34666763718E+03  0.00000000000E+00 0. -1.
        -14    1    4    4    0    0 -0.51429993533E+02 -0.12563806121E+02  0.28713940415E+03  0.29197933296E+03  0.00000000000E+00 0.  1.
</event>
<event>
12    1  0.8219652E-002  0.1926260E+03  0.7818608E-02  0.1156124E+00
         21   -1    0    0  501  502  0.00000000000E+00  0.00000000000E+00  0.12376625416E+03  0.12376625416E+03  0.00000000000E+00 0.  1.
         21   -1    0    0  502  503 -0.00000000000E+00 -0.00000000000E+00 -0.37159183046E+03  0.37159183046E+03  0.00000000000E+00 0. -1.
         -6    2    1    2    0  503 -0.72719700806E+02  0.45343924683E+02 -0.23282441582E+03  0.30214885824E+03  0.17246013320E+03 0.  0.
        -24    2    3    3    0    0 -0.63750547284E+02 -0.27892535451E+02 -0.18549446913E+03  0.21436367349E+03  0.81862449404E+02 0.  0.
          6    2    1    2  501    0  0.72719700806E+02 -0.45343924683E+02 -0.15001160476E+02  0.19320922638E+03  0.17251244579E+03 0.  0.
         24    2    5    5    0    0 -0.21731114927E+02 -0.14259632165E+02 -0.10943553462E+02  0.93581198155E+02  0.89230604729E+02 0.  0.
          5    1    5    5  501    0  0.94450815734E+02 -0.31084292518E+02 -0.40576070140E+01  0.99628028229E+02  0.47000000000E+01 0. -1.
        -11    1    6    6    0    0 -0.12746261221E+02 -0.18903118980E+01  0.39145075480E+02  0.41211374504E+02  0.00000000000E+00 0.  1.
         12    1    6    6    0    0 -0.89848537062E+01 -0.12369320267E+02 -0.50088628942E+02  0.52369823651E+02  0.00000000000E+00 0. -1.
         -5    1    3    3    0  503 -0.89691535227E+01  0.73236460134E+02 -0.47329946697E+02  0.87785184754E+02  0.47000000000E+01 0.  1.
         13    1    4    4    0    0  0.17974705303E+02  0.94898257202E+00 -0.16385575843E+02  0.24340864701E+02  0.00000000000E+00 0. -1.
        -14    1    4    4    0    0 -0.81725252587E+02 -0.28841518023E+02 -0.16910889328E+03  0.19002280879E+03  0.00000000000E+00 0.  1.
</event>
<event>
12    1  0.8219652E-002  0.1853686E+03  0.7818608E-02  0.1162925E+00
         21   -1    0    0  503  502  0.00000000000E+00  0.00000000000E+00  0.45851315377E+03  0.45851315377E+03  0.00000000000E+00 0. -1.
         21   -1    0    0  501  503 -0.00000000000E+00 -0.00000000000E+00 -0.13435612563E+03  0.13435612563E+03  0.00000000000E+00 0. -1.
          6    2    1    2  501    0  0.65075214133E+02  0.21128433352E+02 -0.35447707658E+02  0.18872749009E+03  0.17227980540E+03 0.  0.
         24    2    3    3    0    0  0.44538541616E+02 -0.23059119235E+02 -0.79317348408E+02  0.12299370805E+03  0.79503495475E+02 0.  0.
         -6    2    1    2    0  502 -0.65075214133E+02 -0.21128433352E+02  0.35960473579E+03  0.40414178931E+03  0.17127120503E+03 0.  0.
        -24    2    5    5    0    0 -0.15840155308E+02  0.22503818444E+02  0.79804273208E+02  0.11667308966E+03  0.80539154853E+02 0.  0.
          5    1    3    3  501    0  0.20536672517E+02  0.44187552587E+02  0.43869640750E+02  0.65733782040E+02  0.47000000000E+01 0. -1.
        -13    1    4    4    0    0  0.85546589812E+00 -0.35641879122E+02 -0.67000327574E+02  0.75895449562E+02  0.00000000000E+00 0.  1.
         14    1    4    4    0    0  0.43683075718E+02  0.12582759887E+02 -0.12317020834E+02  0.47098258490E+02  0.00000000000E+00 0. -1.
         -5    1    5    5    0  502 -0.49235058824E+02 -0.43632251797E+02  0.27980046258E+03  0.28746869965E+03  0.47000000000E+01 0.  1.
         11    1    6    6    0    0  0.75195783124E+01 -0.82082468419E+01  0.77200516113E+02  0.77998968341E+02  0.00000000000E+00 0. -1.
        -12    1    6    6    0    0 -0.23359733621E+02  0.30712065286E+02  0.26037570949E+01  0.38674121322E+02  0.00000000000E+00 0.  1.
</event>
<event>
12    1  0.8219652E-002  0.2098184E+03  0.7818608E-02  0.1141743E+00
         21   -1    0    0  501  502  0.00000000000E+00  0.00000000000E+00  0.15435158133E+03  0.15435158133E+03  0.00000000000E+00 0.  1.
         21   -1    0    0  502  503 -0.00000000000E+00 -0.00000000000E+00 -0.32862410813E+03  0.32862410813E+03  0.00000000000E+00 0.  1.
         -6    2    1    2    0  503 -0.11581180895E+03  0.34237920456E+02 -0.17509992565E+03  0.27315569367E+03  0.17137514035E+03 0.  0.
        -24    2    3    3    0    0 -0.14893999519E+02  0.64677863872E+02 -0.66124905195E+02  0.12146970388E+03  0.77313185009E+02 0.  0.
          6    2    1    2  501    0  0.11581180895E+03 -0.34237920456E+02  0.82739885230E+00  0.20981999578E+03  0.17157836621E+03 0.  0.
         24    2    5    5    0    0  0.14864857934E+03 -0.14369620906E+02  0.19277047868E+02  0.16697746591E+03  0.72159430439E+02 0.  0.
          5    1    5    5  501    0 -0.32836770394E+02 -0.19868299550E+02 -0.18449649016E+02  0.42842529870E+02  0.47000000000E+01 0. -1.
        -11    1    6    6    0    0  0.99749843062E+02 -0.13885777370E+02 -0.21880775531E+02  0.10306121648E+03  0.00000000000E+00 0.  1.
         12    1    6    6    0    0  0.48898736283E+02 -0.48384353597E+00  0.41157823399E+02  0.63916249433E+02  0.00000000000E+00 0. -1.
         -5    1    3    3    0  503 -0.10091780943E+03 -0.30439943417E+02 -0.10897502046E+03  0.15168598979E+03  0.47000000000E+01 0.  1.
         11    1    4    4    0    0 -0.46813663152E+02  0.38350174894E+02 -0.39014381437E+02  0.72002617529E+02  0.00000000000E+00 0. -1.
        -12    1    4    4    0    0  0.31919663633E+02  0.26327688979E+02 -0.27110523758E+02  0.49467086349E+02  0.00000000000E+00 0.  1.
</event>
<event>
12    1  0.8219652E-002  0.1748232E+03  0.7818608E-02  0.1173149E+00
         21   -1    0    0  501  502  0.00000000000E+00  0.00000000000E+00  0.45482088702E+02  0.45482088702E+02  0.00000000000E+00 0. -1.
         21   -1    0    0  502  503 -0.00000000000E+00 -0.00000000000E+00 -0.76015707790E+03  0.76015707790E+03  0.00000000000E+00 0. -1.
         -6    2    1    2    0  503 -0.31923971493E+02 -0.52204386483E+01 -0.21819150310E+03  0.27959020389E+03  0.17180441539E+03 0.  0.
        -24    2    3    3    0    0  0.20434839452E+02  0.41687675011E+02 -0.64161121117E+02  0.11021114738E+03  0.76644651684E+02 0.  0.
          6    2    1    2  501    0  0.31923971493E+02  0.52204386483E+01 -0.49648348610E+03  0.52604896272E+03  0.17083695815E+03 0.  0.
         24    2    5    5    0    0  0.35054147460E+02  0.20979731270E+02 -0.16862837799E+03  0.19776674386E+03  0.94906336639E+02 0.  0.
          5    1    5    5  501    0 -0.31301759672E+01 -0.15759292622E+02 -0.32785510811E+03  0.32828221886E+03  0.47000000000E+01 0. -1.
        -13    1    6    6    0    0 -0.25130066170E+02 -0.15436417601E+02 -0.28701167612E+02  0.41152888554E+02  0.00000000000E+00 0.  1.
         14    1    6    6    0    0  0.60184213630E+02  0.36416148871E+02 -0.13992721038E+03  0.15661385530E+03  0.00000000000E+00 0. -1.
         -5    1    3    3    0  503 -0.52358810944E+02 -0.46908113660E+02 -0.15403038198E+03  0.16937905651E+03  0.47000000000E+01 0.  1.
         13    1    4    4    0    0 -0.21805991158E+02 -0.89641646375E+01 -0.18961634204E+02  0.30255595677E+02  0.00000000000E+00 0. -1.
        -14    1    4    4    0    0  0.42240830610E+02  0.50651839649E+02 -0.45199486913E+02  0.79955551700E+02  0.00000000000E+00 0.  1.
</event>
<event>
12    1  0.8219652E-002  0.2287886E+03  0.7818608E-02  0.1127506E+00
         21   -1    0    0  501  502  0.00000000000E+00  0.00000000000E+00  0.12228394033E+04  0.12228394033E+04  0.00000000000E+00 0. -1.
         21   -1    0    0  502  503 -0.00000000000E+00 -0.00000000000E+00 -0.64672635731E+02  0.64672635731E+02  0.00000000000E+00 0. -1.
         -6    2    1    2    0  503  0.62345973418E+01 -0.14987270913E+03  0.20460060692E+03  0.30688333502E+03  0.17267099876E+03 0.  0.
        -24    2    3    3    0    0  0.40651940567E+01 -0.64005218853E+02  0.25621747814E+02  0.10830475056E+03  0.83428119901E+02 0.  0.
          6    2    1    2  501    0 -0.62345973418E+01  0.14987270913E+03  0.95356616066E+03  0.98062870403E+03  0.17275280969E+03 0.  0.
         24    2    5    5    0    0 -0.30297550433E+02  0.11432748311E+03  0.90258681205E+03  0.91381947720E+03  0.80089753842E+02 0.  0.
          5    1    5    5  501    0  0.24062953091E+02  0.35545226019E+02  0.50979348619E+02  0.66809226832E+02  0.47000000000E+01 0. -1.
        -13    1    6    6    0    0 -0.27714433573E+02 -0.57538350433E+00  0.19462723486E+03  0.19659140735E+03  0.00000000000E+00 0.  1.
         14    1    6    6    0    0 -0.25831168602E+01  0.11490286662E+03  0.70795957718E+03  0.71722806984E+03  0.00000000000E+00 0. -1.
         -5    1    3    3    0  503  0.21694032851E+01 -0.85867490278E+02  0.17897885911E+03  0.19857858446E+03  0.47000000000E+01 0.  1.
         11    1    4    4    0    0  0.38640426553E+02 -0.27718803297E+02 -0.76212851095E+01  0.48161173233E+02  0.00000000000E+00 0. -1.
        -12    1    4    4    0    0 -0.34575232496E+02 -0.36286415556E+02  0.33243032924E+02  0.60143577330E+02  0.00000000000E+00 0.  1.
</event>
<event>
12    1  0.8219652E-002  0.2595488E+03  0.7818608E-02  0.1108061E+00
         21   -1    0    0  503  502  0.00000000000E+00  0.00000000000E+00  0.13892540790E+03  0.13892540790E+03  0.00000000000E+00 0.  1.
         21   -1    0    0  501  503 -0.00000000000E+00 -0.00000000000E+00 -0.70605729632E+03  0.70605729632E+03  0.00000000000E+00 0.  1.
          6    2    1    2  501    0 -0.10666727771E+03 -0.15510919268E+03 -0.52579234647E+03  0.58636434844E+03  0.17868628298E+03 0.  0.
         24    2    3    3    0    0 -0.14332648651E+03 -0.10794365086E+03 -0.36418893480E+03  0.41400937001E+03  0.81091705686E+02 0.  0.
         -6    2    1    2    0  502  0.10666727771E+03  0.15510919268E+03 -0.41339541943E+02  0.25861835578E+03  0.17244630014E+03 0.  0.
        -24    2    5    5    0    0  0.39053367542E+02  0.11151660163E+03 -0.87270730101E+02  0.16586212209E+03  0.77025614290E+02 0.  0.
          5    1    3    3  501    0  0.36659208800E+02 -0.47165541820E+02 -0.16160341168E+03  0.17235497843E+03  0.47000000000E+01 0. -1.
        -13    1    4    4    0    0 -0.65613700014E+02 -0.23264915256E+01 -0.12838675445E+03  0.14420030828E+03  0.00000000000E+00 0.  1.
         14    1    4    4    0    0 -0.77712786498E+02 -0.10561715933E+03 -0.23580218035E+03  0.26980906172E+03  0.00000000000E+00 0. -1.
         -5    1    5    5    0  502  0.67613910170E+02  0.43592591047E+02  0.45931188158E+02  0.92756233690E+02  0.47000000000E+01 0.  1.
         11    1    6    6    0    0  0.60254147231E+02  0.61955966982E+02 -0.61773918882E+02  0.10623145089E+03  0.00000000000E+00 0. -1.
        -12    1    6    6    0    0 -0.21200779689E+02  0.49560634647E+02 -0.25496811219E+02  0.59630671205E+02  0.00000000000E+00 0.  1.
</event>
<event>
12    1  0.8219652E-002  0.2100028E+03  0.7818608E-02  0.1141691E+00
         21   -1    0    0  503  502  0.00000000000E+00  0.00000000000E+00  0.14627792743E+04  0.14627792743E+04  0.00000000000E+00 0. -1.
         21   -1    0    0  501  503 -0.00000000000E+00 -0.00000000000E+00 -0.60611857239E+02  0.60611857239E+02  0.00000000000E+00 0. -1.
          6    2    1    2  501    0 -0.45130573671E+02 -0.11207563421E+03  0.15973959378E+03  0.26334030525E+03  0.17097854277E+03 0.  0.
         24    2    3    3    0    0  0.36757757767E+01 -0.48273160592E+02  0.15741024725E+03  0.18283980065E+03  0.79426679398E+02 0.  0.
         -6    2    1    2    0  502  0.45130573671E+02  0.11207563421E+03  0.12424278233E+04  0.12600508263E+04  0.17176574834E+03 0.  0.
        -24    2    5    5    0    0 -0.23381834070E+02  0.68684599651E+01  0.37462334253E+03  0.38319895377E+03  0.76843369880E+02 0.  0.
          5    1    3    3  501    0 -0.48806349448E+02 -0.63802473618E+02  0.23293465269E+01  0.80500504604E+02  0.47000000000E+01 0. -1.
        -11    1    4    4    0    0 -0.36619950183E+02 -0.32575830468E+02  0.71899029294E+02  0.87015377351E+02  0.00000000000E+00 0.  1.
         12    1    4    4    0    0  0.40295725960E+02 -0.15697330124E+02  0.85511217959E+02  0.95824423299E+02  0.00000000000E+00 0. -1.
         -5    1    5    5    0  502  0.68512407742E+02  0.10520717424E+03  0.86780448079E+03  0.87685187256E+03  0.47000000000E+01 0.  1.
         13    1    6    6    0    0  0.20464971906E+01 -0.16381030794E+02  0.30568014101E+03  0.30612558686E+03  0.00000000000E+00 0. -1.
        -14    1    6    6    0    0 -0.25428331261E+02  0.23249490759E+02  0.68943201519E+02  0.77073366911E+02  0.00000000000E+00 0.  1.
</event>
<event>
12    1  0.8219652E-002  0.2031217E+03  0.7818608E-02  0.1147164E+00
         21   -1    0    0  503  502  0.00000000000E+00  0.00000000000E+00  0.67278959544E+03  0.67278959544E+03  0.00000000000E+00 0. -1.
         21   -1    0    0  501  503 -0.00000000000E+00 -0.00000000000E+00 -0.74779026657E+02  0.74779026657E+02  0.00000000000E+00 0. -1.
          6    2    1    2  501    0  0.62942529192E+02 -0.87587359786E+02  0.14027320804E+03  0.24685016285E+03  0.17211950043E+03 0.  0.
         24    2    3    3    0    0  0.90878282868E+02 -0.11300627167E+02  0.80892274727E+02  0.14611160445E+03  0.80115381628E+02 0.  0.
         -6    2    1    2    0  502 -0.62942529192E+02  0.87587359786E+02  0.45773736074E+03  0.50071845924E+03  0.17193654770E+03 0.  0.
        -24    2    5    5    0    0 -0.96582077834E+02  0.99136888184E+02  0.31112227754E+03  0.34977779719E+03  0.79945077834E+02 0.  0.
          5    1    3    3  501    0 -0.27935753676E+02 -0.76286732619E+02  0.59380933313E+02  0.10073855840E+03  0.47000000000E+01 0. -1.
        -11    1    4    4    0    0  0.97597876009E+02 -0.11769442931E+02  0.42441745858E+02  0.10707551998E+03  0.00000000000E+00 0.  1.
         12    1    4    4    0    0 -0.67195931413E+01  0.46881576375E+00  0.38450528869E+02  0.39036084467E+02  0.00000000000E+00 0. -1.
         -5    1    5    5    0  502  0.33639548642E+02 -0.11549528398E+02  0.14661508320E+03  0.15094066205E+03  0.47000000000E+01 0.  1.
         13    1    6    6    0    0 -0.86663875375E+02  0.90600815466E+02  0.31240981603E+03  0.33662891766E+03  0.00000000000E+00 0. -1.
        -14    1    6    6    0    0 -0.99182024585E+01  0.85360727177E+01 -0.12875384882E+01  0.13148879527E+02  0.00000000000E+00 0.  1.
</event>
<event>
12    1  0.8219652E-002  0.1715449E+03  0.7818608E-02  0.1179066E+00
         21   -1    0    0  503  502  0.00000000000E+00  0.00000000000E+00  0.26465353147E+03  0.26465353147E+03  0.00000000000E+00 0.  1.
         21   -1    0    0  501  503 -0.00000000000E+00 -0.00000000000E+00 -0.17431132306E+03  0.17431132306E+03  0.00000000000E+00 0.  1.
          6    2    1    2  501    0  0.56440965029E+00  0.38177204581E+01 -0.94604172870E+02  0.18670942833E+03  0.16092099787E+03 0.  0.
         24    2    3    3    0    0  0.22996404198E+02  0.53563184159E+02 -0.32252187686E+02  0.10371746731E+03  0.79493774040E+02 0.  0.
         -6    2    1    2    0  502 -0.56440965029E+00 -0.38177204581E+01  0.18494638127E+03  0.25225542620E+03  0.17150143601E+03 0.  0.
        -24    2    5    5    0    0 -0.52707715350E+01 -0.38403585751E+02  0.33243587682E+02  0.96517956385E+02  0.81902157185E+02 0.  0.
          5    1    3    3  501    0 -0.22431994547E+02 -0.49745463701E+02 -0.62351985184E+02  0.82991961024E+02  0.47000000000E+01 0. -1.
        -13    1    4    4    0    0  0.48176537981E+02  0.52636547276E+02 -0.32757521363E+02  0.78515222262E+02  0.00000000000E+00 0.  1.
         14    1    4    4    0    0 -0.25180133784E+02  0.92663688316E+00  0.50533367727E+00  0.25202245047E+02  0.00000000000E+00 0. -1.
         -5    1    5    5    0  502  0.47063618847E+01  0.34585865293E+02  0.15170279359E+03  0.15573746981E+03  0.47000000000E+01 0.  1.
         13    1    6    6    0    0  0.32506606138E+02  0.49584310153E+01  0.15347217686E+02  0.36287774408E+02  0.00000000000E+00 0. -1.
        -14    1    6    6    0    0 -0.37777377673E+02 -0.43362016767E+02  0.17896369996E+02  0.60230181977E+02  0.00000000000E+00 0.  1.
</event>
<event>
12    1  0.8219652E-002  0.2364236E+03  0.7818608E-02  0.1122243E+00
         21   -1    0    0  501  502  0.00000000000E+00  0.00000000000E+00  0.25893171116E+03  0.25893171116E+03  0.00000000000E+00 0.  1.
         21   -1    0    0  502  503 -0.00000000000E+00 -0.00000000000E+00 -0.26093893857E+03  0.26093893857E+03  0.00000000000E+00 0.  1.
         -6    2    1    2    0  503 -0.84441526515E+01 -0.16177264788E+03 -0.10931501211E+03  0.26047240794E+03  0.17220455892E+03 0.  0.
        -24    2    3    3    0    0 -0.53701109072E+02 -0.12168292481E+03 -0.25394652278E+02  0.15693451732E+03  0.79328500910E+02 0.  0.
          6    2    1    2  501    0  0.84441526515E+01  0.16177264788E+03  0.10730778470E+03  0.25939824178E+03  0.17184526140E+03 0.  0.
         24    2    5    5    0    0  0.60243289617E+02  0.15332370716E+03  0.78422656127E+02  0.19930684604E+03  0.80222769615E+02 0.  0.
          5    1    5    5  501    0 -0.51799136965E+02  0.84489407241E+01  0.28885128569E+02  0.60091395741E+02  0.47000000000E+01 0. -1.
        -13    1    6    6    0    0  0.71818591629E+01  0.11613118061E+03  0.35756273099E+02  0.12172321585E+03  0.00000000000E+00 0.  1.
         14    1    6    6    0    0  0.53061430454E+02  0.37192526544E+02  0.42666383028E+02  0.77583630189E+02  0.00000000000E+00 0. -1.
         -5    1    3    3    0  503  0.45256956421E+02 -0.40089723068E+02 -0.83920359830E+02  0.10353789062E+03  0.47000000000E+01 0.  1.
         11    1    4    4    0    0 -0.64789603643E+02 -0.53542687000E+02 -0.25717809715E+02  0.87897200228E+02  0.00000000000E+00 0. -1.
        -12    1    4    4    0    0  0.11088494570E+02 -0.68140237813E+02  0.32315743709E+00  0.69037317095E+02  0.00000000000E+00 0.  1.
</event>
<event>
12    1  0.8219652E-002  0.2461636E+03  0.7818608E-02  0.1115880E+00
         21   -1    0    0  503  502  0.00000000000E+00  0.00000000000E+00  0.70448740974E+02  0.70448740974E+02  0.00000000000E+00 0.  1.
         21   -1    0    0  501  503 -0.00000000000E+00 -0.00000000000E+00 -0.94721894778E+03  0.94721894778E+03  0.00000000000E+00 0.  1.
          6    2    1    2  501    0  0.13269190350E+03 -0.11478836201E+03 -0.59568230210E+03  0.64454164228E+03  0.17266445579E+03 0.  0.
         24    2    3    3    0    0  0.53082695446E+02 -0.12340767332E+03 -0.31954374772E+03  0.35698902144E+03  0.85356477993E+02 0.  0.
         -6    2    1    2    0  502 -0.13269190350E+03  0.11478836201E+03 -0.28108790471E+03  0.37312604648E+03  0.17154919725E+03 0.  0.
        -24    2    5    5    0    0 -0.14281521604E+03  0.42174833545E+02 -0.16684659689E+03  0.23730126086E+03  0.79367493325E+02 0.  0.
          5    1    3    3  501    0  0.79609208051E+02  0.86193113105E+01 -0.27613855438E+03  0.28755262084E+03  0.47000000000E+01 0. -1.
        -13    1    4    4    0    0  0.64996884462E+02 -0.12500785220E+03 -0.31311941560E+03  0.34335888881E+03  0.00000000000E+00 0.  1.
         14    1    4    4    0    0 -0.11914189016E+02  0.16001788811E+01 -0.64243321205E+01  0.13630132632E+02  0.00000000000E+00 0. -1.
         -5    1    5    5    0  502  0.10123312547E+02  0.72613528468E+02 -0.11424130783E+03  0.13582478561E+03  0.47000000000E+01 0.  1.
         11    1    6    6    0    0 -0.91904695517E+02  0.87484749621E+01 -0.14636118556E+03  0.17304509676E+03  0.00000000000E+00 0. -1.
        -12    1    6    6    0    0 -0.50910520527E+02  0.33426358583E+02 -0.20485411320E+02  0.64256164104E+02  0.00000000000E+00 0.  1.
</event>
<event>
12    1  0.8219652E-002  0.3003970E+03  0.7818608E-02  0.1085147E+00
         21   -1    0    0  501  502  0.00000000000E+00  0.00000000000E+00  0.11630834016E+03  0.11630834016E+03  0.00000000000E+00 0.  1.
         21   -1    0    0  502  503 -0.00000000000E+00 -0.00000000000E+00 -0.85038083877E+03  0.85038083877E+03  0.00000000000E+00 0. -1.
         -6    2    1    2    0  503  0.24315341193E+03  0.34397736913E+02 -0.51264391980E+03  0.59417351200E+03  0.17300747907E+03 0.  0.
        -24    2    3    3    0    0  0.18868062363E+03  0.63734616380E+02 -0.47609338851E+03  0.52215984316E+03  0.79520488982E+02 0.  0.
          6    2    1    2  501    0 -0.24315341193E+03 -0.34397736913E+02 -0.22142857880E+03  0.37251566693E+03  0.17155325867E+03 0.  0.
         24    2    5    5    0    0 -0.39582187417E+02 -0.16461814295E+02 -0.98759705220E+02  0.13411960296E+03  0.79980295278E+02 0.  0.
          5    1    5    5  501    0 -0.20357122451E+03 -0.17935922618E+02 -0.12266887358E+03  0.23839606397E+03  0.47000000000E+01 0. -1.
        -11    1    6    6    0    0  0.49116245186E+01 -0.22422591257E+02  0.27579430527E+01  0.23119318847E+02  0.00000000000E+00 0.  1.
         12    1    6    6    0    0 -0.44493811936E+02  0.59607769619E+01 -0.10151764827E+03  0.11100028411E+03  0.00000000000E+00 0. -1.
         -5    1    3    3    0  503  0.54472788302E+02 -0.29336879468E+02 -0.36550531296E+02  0.72013668844E+02  0.47000000000E+01 0.  1.
         11    1    4    4    0    0  0.90513686051E+02  0.44334007411E+02 -0.33026038139E+03  0.34529719242E+03  0.00000000000E+00 0. -1.
        -12    1    4    4    0    0  0.98166937577E+02  0.19400608969E+02 -0.14583300711E+03  0.17686265074E+03  0.00000000000E+00 0.  1.
</event>
<event>
12    1  0.8219652E-002  0.2856132E+03  0.7818608E-02  0.1092685E+00
         21   -1    0    0  503  502  0.00000000000E+00  0.00000000000E+00  0.10169527711E+04  0.10169527711E+04  0.00000000000E+00 0.  1.
         21   -1    0    0  501  503 -0.00000000000E+00 -0.00000000000E+00 -0.80582760768E+02  0.80582760768E+02  0.00000000000E+00 0.  1.
          6    2    1    2  501    0 -0.26697270931E+02  0.22587614714E+03  0.42893271830E+03  0.51532336552E+03  0.17274870798E+03 0.  0.
         24    2    3    3    0    0 -0.48087137344E+02  0.23641709999E+03  0.34719464751E+03  0.43004827955E+03  0.78689144985E+02 0.  0.
         -6    2    1    2    0  502  0.26697270931E+02 -0.22587614714E+03  0.50743729204E+03  0.58221216635E+03  0.17246919485E+03 0.  0.
        -24    2    5    5    0    0  0.73131567704E+02 -0.20586070224E+03  0.40192575399E+03  0.46511589565E+03  0.84033503673E+02 0.  0.
          5    1    3    3  501    0  0.21389866413E+02 -0.10540952847E+02  0.81738070791E+02  0.85275085979E+02  0.47000000000E+01 0. -1.
        -13    1    4    4    0    0 -0.39706048048E+02  0.84679653243E+02  0.81934413286E+02  0.12434010618E+03  0.00000000000E+00 0.  1.
         14    1    4    4    0    0 -0.83810892965E+01  0.15173744674E+03  0.26526023422E+03  0.30570817336E+03  0.00000000000E+00 0. -1.
         -5    1    5    5    0  502 -0.46434296773E+02 -0.20015444900E+02  0.10551153805E+03  0.11709627071E+03  0.47000000000E+01 0. -1.
         11    1    6    6    0    0 -0.11037029595E+02 -0.70248558730E+02  0.16236429039E+03  0.17725360030E+03  0.00000000000E+00 0. -1.
        -12    1    6    6    0    0  0.84168597299E+02 -0.13561214351E+03  0.23956146360E+03  0.28786229535E+03  0.00000000000E+00 0.  1.
</event>
<event>
12    1  0.8219652E-002  0.1952995E+03  0.7818608E-02  0.1153960E+00
         21   -1    0    0  501  502  0.00000000000E+00  0.00000000000E+00  0.91670364690E+03  0.91670364690E+03  0.00000000000E+00 0.  1.
         21   -1    0    0  502  503 -0.00000000000E+00 -0.00000000000E+00 -0.72386839013E+02  0.72386839013E+02  0.00000000000E+00 0.  1.
         -6    2    1    2    0  503  0.88500909546E+02  0.25690185874E+02  0.99240927319E+02  0.21906773686E+03  0.17219034537E+03 0.  0.
        -24    2    3    3    0    0  0.10242616657E+03  0.65799167771E+02  0.10017407034E+03  0.17634064981E+03  0.78997027339E+02 0.  0.
          6    2    1    2  501    0 -0.88500909546E+02 -0.25690185874E+02  0.74507588056E+03  0.77002274905E+03  0.17118577514E+03 0.  0.
         24    2    5    5    0    0 -0.10553161349E+03  0.28806543381E+02  0.57725532931E+03  0.59269320893E+03  0.78069112357E+02 0.  0.
          5    1    5    5  501    0  0.17030703942E+02 -0.54496729255E+02  0.16782055125E+03  0.17732954012E+03  0.47000000000E+01 0. -1.
        -11    1    6    6    0    0 -0.27660387801E+02  0.41514968501E+02  0.14621103263E+03  0.15448707300E+03  0.00000000000E+00 0.  1.
         12    1    6    6    0    0 -0.77871225687E+02 -0.12708425120E+02  0.43104429668E+03  0.43820613592E+03  0.00000000000E+00 0. -1.
         -5    1    3    3    0  503 -0.13925257027E+02 -0.40108981897E+02 -0.93314302230E+00  0.42727087052E+02  0.47000000000E+01 0.  1.
         13    1    4    4    0    0  0.55681440128E+02  0.73599844396E+02  0.87750869739E+02  0.12734824306E+03  0.00000000000E+00 0. -1.
        -14    1    4    4    0    0  0.46744726444E+02 -0.78006766248E+01  0.12423200603E+02  0.48992406752E+02  0.00000000000E+00 0.  1.
</event>
<event>
12    1  0.8219652E-002  0.1776482E+03  0.7818608E-02  0.1170888E+00
         21   -1    0    0  503  502  0.00000000000E+00  0.00000000000E+00  0.92271433071E+02  0.92271433071E+02  0.00000000000E+00 0.  1.
         21   -1    0    0  501  503 -0.00000000000E+00 -0.00000000000E+00 -0.49501473374E+03  0.49501473374E+03  0.00000000000E+00 0.  1.
          6    2    1    2  501    0  0.19406521449E+02  0.21730563817E+02 -0.36906308001E+03  0.40959299975E+03  0.17524279711E+03 0.  0.
         24    2    3    3    0    0 -0.41740595718E+02  0.11178290936E+02 -0.10866141656E+03  0.14185910812E+03  0.80308602201E+02 0.  0.
         -6    2    1    2    0  502 -0.19406521449E+02 -0.21730563817E+02 -0.33680220657E+02  0.17769316706E+03  0.17202230634E+03 0.  0.
        -24    2    5    5    0    0  0.29683655915E+02 -0.65725262880E+02 -0.41613766985E+02  0.11113184033E+03  0.73604692259E+02 0.  0.
          5    1    3    3  501    0  0.61147117167E+02  0.10552272880E+02 -0.26040166345E+03  0.26773389163E+03  0.47000000000E+01 0. -1.
        -13    1    4    4    0    0  0.50285319940E+01  0.21580961602E+02 -0.86090821295E+02  0.88896870299E+02  0.00000000000E+00 0.  1.
         14    1    4    4    0    0 -0.46769127712E+02 -0.10402670666E+02 -0.22570595264E+02  0.52962237817E+02  0.00000000000E+00 0. -1.
         -5    1    5    5    0  502 -0.49090177364E+02  0.43994699063E+02  0.79335463285E+01  0.66561326735E+02  0.47000000000E+01 0.  1.
         11    1    6    6    0    0  0.13988194833E+02  0.14014313657E+02  0.58771907223E-01  0.19800859479E+02  0.00000000000E+00 0. -1.
        -12    1    6    6    0    0  0.15695461082E+02 -0.79739576537E+02 -0.41672538893E+02  0.91330980848E+02  0.00000000000E+00 0.  1.
</event>
<event>
12    1  0.8219652E-002  0.1744824E+03  0.7818608E-02  0.1173401E+00
         21   -1    0    0  501  502  0.00000000000E+00  0.00000000000E+00  0.26077092600E+02  0.26077092600E+02  0.00000000000E+00 0. -1.
         21   -1    0    0  502  503 -0.00000000000E+00 -0.00000000000E+00 -0.16198363878E+04  0.16198363878E+04  0.00000000000E+00 0. -1.
         -6    2    1    2    0  503 -0.19095552412E+02 -0.18994824793E+02 -0.12346369262E+04  0.12469051440E+04  0.17239099449E+03 0.  0.
        -24    2    3    3    0    0  0.27869522820E+02 -0.37461244317E+02 -0.38968289161E+03  0.40043238153E+03  0.79456157967E+02 0.  0.
          6    2    1    2  501    0  0.19095552412E+02  0.18994824793E+02 -0.35912236894E+03  0.39900833640E+03  0.17179445028E+03 0.  0.
         24    2    5    5    0    0 -0.37547754524E+02  0.17935420825E+02 -0.31444502123E+03  0.32670521090E+03  0.78288634325E+02 0.  0.
          5    1    5    5  501    0  0.56643306937E+02  0.10594039681E+01 -0.44677347718E+02  0.72303125497E+02  0.47000000000E+01 0. -1.
        -11    1    6    6    0    0  0.24396337387E+02  0.47703002008E+01 -0.10457000222E+03  0.10748405653E+03  0.00000000000E+00 0.  1.
         12    1    6    6    0    0 -0.61944091912E+02  0.13165120624E+02 -0.20987501900E+03  0.21922115437E+03  0.00000000000E+00 0. -1.
         -5    1    3    3    0  503 -0.46965075232E+02  0.18466419524E+02 -0.84495403463E+03  0.84647276245E+03  0.47000000000E+01 0.  1.
         11    1    4    4    0    0  0.34489299850E+02 -0.31590339455E+01 -0.63045639324E+02  0.71932217659E+02  0.00000000000E+00 0. -1.
        -12    1    4    4    0    0 -0.66197770301E+01 -0.34302210372E+02 -0.32663725228E+03  0.32850016387E+03  0.00000000000E+00 0.  1.
</event>
<event>
12    1  0.8219652E-002  0.2251547E+03  0.7818608E-02  0.1130574E+00
         21   -1    0    0  503  502  0.00000000000E+00  0.00000000000E+00  0.23956339771E+03  0.23956339771E+03  0.00000000000E+00 0.  1.
         21   -1    0    0  501  503 -0.00000000000E+00 -0.00000000000E+00 -0.25625426578E+03  0.25625426578E+03  0.00000000000E+00 0. -1.
          6    2    1    2  501    0  0.14011721823E+03  0.23654587810E+02  0.97973745334E+02  0.24314666552E+03  0.17125732630E+03 0.  0.
         24    2    3    3    0    0  0.94966196203E+02  0.59677407024E+02  0.11819420392E+03  0.18176902106E+03  0.80561379370E+02 0.  0.
         -6    2    1    2    0  502 -0.14011721823E+03 -0.23654587810E+02 -0.11466461340E+03  0.25267099796E+03  0.17464903456E+03 0.  0.
        -24    2    5    5    0    0 -0.46644482226E+02 -0.72677844163E+02 -0.38504910049E+02  0.12242959726E+03  0.77772755090E+02 0.  0.
          5    1    3    3  501    0  0.45151022030E+02 -0.36022819214E+02 -0.20220458586E+02  0.61377644464E+02  0.47000000000E+01 0. -1.
        -11    1    4    4    0    0  0.67045741295E+02 -0.23686817978E+01  0.39957030389E+02  0.78085250572E+02  0.00000000000E+00 0.  1.
         12    1    4    4    0    0  0.27920454908E+02  0.62046088822E+02  0.78237173531E+02  0.10368377049E+03  0.00000000000E+00 0. -1.
         -5    1    5    5    0  502 -0.93472736007E+02  0.49023256353E+02 -0.76159703353E+02  0.13024140069E+03  0.47000000000E+01 0.  1.
         13    1    6    6    0    0 -0.53840341866E+02 -0.14198591342E+02 -0.28890798336E+02  0.62730061668E+02  0.00000000000E+00 0. -1.
        -14    1    6    6    0    0  0.71958596401E+01 -0.58479252821E+02 -0.96141117138E+01  0.59699535597E+02  0.00000000000E+00 0.  1.
</event>
<event>
12    1  0.8219652E-002  0.2991270E+03  0.7818608E-02  0.1085695E+00
         21   -1    0    0  501  502  0.00000000000E+00  0.00000000000E+00  0.37814628317E+03  0.37814628317E+03  0.00000000000E+00 0.  1.
         21   -1    0    0  502  503 -0.00000000000E+00 -0.00000000000E+00 -0.27977271677E+03  0.27977271677E+03  0.00000000000E+00 0.  1.
         -6    2    1    2    0  503 -0.50615887815E+02  0.23922664587E+03 -0.80177471861E+02  0.30955509704E+03  0.17205980041E+03 0.  0.
        -24    2    3    3    0    0  0.48255113940E+01  0.19005313937E+03 -0.10068421225E+03  0.23252004730E+03  0.88231402887E+02 0.  0.
          6    2    1    2  501    0  0.50615887815E+02 -0.23922664587E+03  0.17855103826E+03  0.34836390290E+03  0.17229503588E+03 0.  0.
         24    2    5    5    0    0  0.76687140254E+02 -0.23892922593E+03  0.13114900934E+03  0.29406067088E+03  0.79394729193E+02 0.  0.
          5    1    5    5  501    0 -0.26071252439E+02 -0.29741993400E+00  0.47402028915E+02  0.54303232018E+02  0.47000000000E+01 0. -1.
        -11    1    6    6    0    0  0.72953809830E+02 -0.97789795503E+02  0.61321600382E+02  0.13654831067E+03  0.00000000000E+00 0.  1.
         12    1    6    6    0    0  0.37333304240E+01 -0.14113943043E+03  0.69827408960E+02  0.15751236021E+03  0.00000000000E+00 0. -1.
         -5    1    3    3    0  503 -0.55441399209E+02  0.49173506497E+02  0.20506740386E+02  0.77035049742E+02  0.47000000000E+01 0.  1.
         13    1    4    4    0    0  0.14393876260E+02  0.29229069398E+02 -0.56900352658E+02  0.65568073818E+02  0.00000000000E+00 0. -1.
        -14    1    4    4    0    0 -0.95683648658E+01  0.16082406997E+03 -0.43783859589E+02  0.16695197348E+03  0.00000000000E+00 0.  1.
</event>
<event>
12    1  0.8219652E-002  0.2887190E+03  0.7818608E-02  0.1091070E+00
         21   -1    0    0  501  502  0.00000000000E+00  0.00000000000E+00  0.82055576088E+02  0.82055576088E+02  0.00000000000E+00 0. -1.
         21   -1    0    0  502  503 -0.00000000000E+00 -0.00000000000E+00 -0.10731504132E+04  0.10731504132E+04  0.00000000000E+00 0.  1.
         -6    2    1    2    0  503 -0.40732344236E+02  0.22789160748E+03 -0.63085747094E+03  0.69378659133E+03  0.17252529390E+03 0.  0.
        -24    2    3    3    0    0  0.32588338445E+01  0.15953175728E+03 -0.55507877740E+03  0.58255353301E+03  0.76126001582E+02 0.  0.
          6    2    1    2  501    0  0.40732344236E+02 -0.22789160748E+03 -0.36023736615E+03  0.46141939794E+03  0.17188133172E+03 0.  0.
         24    2    5    5    0    0 -0.48486996534E+01 -0.99333211531E+02 -0.26436054911E+03  0.29462807089E+03  0.83836766583E+02 0.  0.
          5    1    5    5  501    0  0.45581043890E+02 -0.12855839595E+03 -0.95876817041E+02  0.16679132705E+03  0.47000000000E+01 0. -1.
        -11    1    6    6    0    0 -0.92029478080E+01  0.76051368498E+00 -0.11136607627E+03  0.11174826877E+03  0.00000000000E+00 0.  1.
         12    1    6    6    0    0  0.43542481545E+01 -0.10009372522E+03 -0.15299447283E+03  0.18287980212E+03  0.00000000000E+00 0. -1.
         -5    1    3    3    0  503 -0.43991178081E+02  0.68359850208E+02 -0.75778693541E+02  0.11123305832E+03  0.47000000000E+01 0.  1.
         11    1    4    4    0    0 -0.12721165277E+01  0.10936870698E+03 -0.24359350263E+03  0.26702233403E+03  0.00000000000E+00 0. -1.
        -12    1    4    4    0    0  0.45309503721E+01  0.50163050291E+02 -0.31148527478E+03  0.31553119898E+03  0.00000000000E+00 0.  1.
</event>
<event>
12    1  0.8219652E-002  0.1733224E+03  0.7818608E-02  0.1174617E+00
         21   -1    0    0  501  502  0.00000000000E+00  0.00000000000E+00  0.73975024603E+02  0.73975024603E+02  0.00000000000E+00 0.  1.
         21   -1    0    0  502  503 -0.00000000000E+00 -0.00000000000E+00 -0.48651530630E+03  0.48651530630E+03  0.00000000000E+00 0.  1.
         -6    2    1    2    0  503  0.29279852659E+01  0.12578087860E+02 -0.32181544894E+03  0.36552134257E+03  0.17284064136E+03 0.  0.
        -24    2    3    3    0    0  0.32534295148E+02  0.29322716744E+02 -0.80602482763E+02  0.12187672179E+03  0.80242588504E+02 0.  0.
          6    2    1    2  501    0 -0.29279852659E+01 -0.12578087860E+02 -0.90724832756E+02  0.19496898833E+03  0.17209046964E+03 0.  0.
         24    2    5    5    0    0 -0.58032388812E+02 -0.30797255463E+02 -0.10042803490E+03  0.13593784833E+03  0.63852011086E+02 0.  0.
          5    1    5    5  501    0  0.55104403546E+02  0.18219167603E+02  0.97032021397E+01  0.59031140003E+02  0.47000000000E+01 0. -1.
        -11    1    6    6    0    0 -0.19574279617E+02 -0.18974250728E+02  0.52104046863E+00  0.27266207958E+02  0.00000000000E+00 0.  1.
         12    1    6    6    0    0 -0.38458109195E+02 -0.11823004735E+02 -0.10094907536E+03  0.10867164037E+03  0.00000000000E+00 0. -1.
         -5    1    3    3    0  503 -0.29606309882E+02 -0.16744628884E+02 -0.24121296618E+03  0.24364462078E+03  0.47000000000E+01 0.  1.
         11    1    4    4    0    0  0.25917956417E+02  0.42894926567E+02 -0.90760836096E+02  0.10367856364E+03  0.00000000000E+00 0. -1.
        -12    1    4    4    0    0  0.66163387314E+01 -0.13572209824E+02  0.10158353333E+02  0.18198158152E+02  0.00000000000E+00 0.  1.
</event>
<event>
12    1  0.8219652E-002  0.2252112E+03  0.7818608E-02  0.1130161E+00
         21   -1    0    0  501  502  0.00000000000E+00  0.00000000000E+00  0.84515780614E+02  0.84515780614E+02  0.00000000000E+00 0. -1.
         21   -1    0    0  502  503 -0.00000000000E+00 -0.00000000000E+00 -0.61063150911E+03  0.61063150911E+03  0.00000000000E+00 0. -1.
         -6    2    1    2    0  503  0.13450684026E+03  0.55512881670E+02 -0.31153778200E+03  0.38407854240E+03  0.17113376935E+03 0.  0.
        -24    2    3    3    0    0  0.12796181474E+03  0.87587392590E+02 -0.30340482810E+03  0.35002202248E+03  0.80094626139E+02 0.  0.
          6    2    1    2  501    0 -0.13450684026E+03 -0.55512881670E+02 -0.21457794650E+03  0.31106874733E+03  0.17189037300E+03 0.  0.
         24    2    5    5    0    0 -0.14138846748E+03 -0.92555932635E+01 -0.11287384654E+03  0.19902898888E+03  0.82435844374E+02 0.  0.
          5    1    5    5  501    0  0.68816272178E+01 -0.46257288407E+02 -0.10170409997E+03  0.11203975845E+03  0.47000000000E+01 0. -1.
        -11    1    6    6    0    0 -0.27536581790E+02  0.57725923905E+01 -0.71715072188E+02  0.77036599993E+02  0.00000000000E+00 0.  1.
         12    1    6    6    0    0 -0.11385188569E+03 -0.15028185654E+02 -0.41158774348E+02  0.12199238888E+03  0.00000000000E+00 0. -1.
         -5    1    3    3    0  503  0.65450255252E+01 -0.32074510919E+02 -0.81329538980E+01  0.34056519918E+02  0.47000000000E+01 0.  1.
         11    1    4    4    0    0  0.99455065114E+02  0.67277626558E+02 -0.28751846484E+03  0.31158378751E+03  0.00000000000E+00 0. -1.
        -12    1    4    4    0    0  0.28506749624E+02  0.20309766032E+02 -0.15886363257E+02  0.38438234974E+02  0.00000000000E+00 0.  1.
</event>
<event>
12    1  0.8219652E-002  0.1897391E+03  0.7818608E-02  0.1158778E+00
         21   -1    0    0  503  502  0.00000000000E+00  0.00000000000E+00  0.12948193598E+03  0.12948193598E+03  0.00000000000E+00 0. -1.
         21   -1    0    0  501  503 -0.00000000000E+00 -0.00000000000E+00 -0.32039332623E+03  0.32039332623E+03  0.00000000000E+00 0. -1.
          6    2    1    2  501    0  0.78550941285E+02  0.45993635628E+01 -0.17782353209E+03  0.26004255885E+03  0.17265433481E+03 0.  0.
         24    2    3    3    0    0 -0.11437141457E+02  0.33274945888E+02 -0.12249828585E+03  0.15048382150E+03  0.80009501129E+02 0.  0.
         -6    2    1    2    0  502 -0.78550941285E+02 -0.45993635628E+01 -0.13087858159E+02  0.18983270335E+03  0.17226072886E+03 0.  0.
        -24    2    5    5    0    0 -0.70254868453E+02  0.53575375630E+02  0.22401318092E+02  0.12102357070E+03  0.79616695475E+02 0.  0.
          5    1    3    3  501    0  0.89988082742E+02 -0.28675582326E+02 -0.55325246244E+02  0.10955873735E+03  0.47000000000E+01 0. -1.
        -11    1    4    4    0    0 -0.69900577020E+01  0.58788407925E+02 -0.99839054245E+02  0.11607228164E+03  0.00000000000E+00 0.  1.
         12    1    4    4    0    0 -0.44470837546E+01 -0.25513462036E+02 -0.22659231601E+02  0.34411539863E+02  0.00000000000E+00 0. -1.
         -5    1    5    5    0  502 -0.82960728320E+01 -0.58174739193E+02 -0.35489176251E+02  0.68809132646E+02  0.47000000000E+01 0.  1.
         13    1    6    6    0    0 -0.75340767856E+02  0.34258918713E+02  0.42197761702E+02  0.92900785277E+02  0.00000000000E+00 0. -1.
        -14    1    6    6    0    0  0.50858994025E+01  0.19316456917E+02 -0.19796443610E+02  0.28122785427E+02  0.00000000000E+00 0.  1.
</event>
<event>
12    1  0.8219652E-002  0.1836416E+03  0.7818608E-02  0.1164358E+00
         21   -1    0    0  503  502  0.00000000000E+00  0.00000000000E+00  0.26566307028E+03  0.26566307028E+03  0.00000000000E+00 0. -1.
         21   -1    0    0  501  503 -0.00000000000E+00 -0.00000000000E+00 -0.24743703454E+03  0.24743703454E+03  0.00000000000E+00 0. -1.
          6    2    1    2  501    0  0.64371170034E+02  0.81334082219E+01 -0.16998976686E+03  0.25013733539E+03  0.17164604819E+03 0.  0.
         24    2    3    3    0    0 -0.11222840685E+02  0.43552278885E+02 -0.50062620299E+02  0.10394034042E+03  0.79212216650E+02 0.  0.
         -6    2    1    2    0  502 -0.64371170034E+02 -0.81334082219E+01  0.18821580259E+03  0.26296276943E+03  0.17179764230E+03 0.  0.
        -24    2    5    5    0    0  0.32033363430E+02  0.24640091636E+02  0.11387236680E+03  0.13680028368E+03  0.64141493641E+02 0.  0.
          5    1    3    3  501    0  0.75594010719E+02 -0.35418870663E+02 -0.11992714656E+03  0.14619699497E+03  0.47000000000E+01 0. -1.
        -13    1    4    4    0    0  0.64716493735E+01  0.63838849529E+02 -0.34795124291E+02  0.72993024525E+02  0.00000000000E+00 0.  1.
         14    1    4    4    0    0 -0.17694490058E+02 -0.20286570644E+02 -0.15267496007E+02  0.30947315897E+02  0.00000000000E+00 0. -1.
         -5    1    5    5    0  502 -0.96404533463E+02 -0.32773499858E+02  0.74343435795E+02  0.12616248575E+03  0.47000000000E+01 0.  1.
         11    1    6    6    0    0  0.42874920203E+02  0.38653665255E+01  0.10160846397E+03  0.11035161889E+03  0.00000000000E+00 0. -1.
        -12    1    6    6    0    0 -0.10841556773E+02  0.20774725110E+02  0.12263902825E+02  0.26448664790E+02  0.00000000000E+00 0.  1.
</event>
<event>
12    1  0.8219652E-002  0.2347020E+03  0.7818608E-02  0.1123385E+00
         21   -1    0    0  501  502  0.00000000000E+00  0.00000000000E+00  0.12634083078E+04  0.12634083078E+04  0.00000000000E+00 0.  1.
         21   -1    0    0  502  503 -0.00000000000E+00 -0.00000000000E+00 -0.56650499275E+02  0.56650499275E+02  0.00000000000E+00 0. -1.
         -6    2    1    2    0  503  0.16536704593E+02  0.15848481437E+03  0.28650602109E+03  0.37036565101E+03  0.17231980832E+03 0.  0.
        -24    2    3    3    0    0 -0.54551806332E+02  0.76892866559E+02  0.17858763226E+03  0.21746277013E+03  0.80672805165E+02 0.  0.
          6    2    1    2  501    0 -0.16536704593E+02 -0.15848481437E+03  0.92025178742E+03  0.94969315606E+03  0.17222903187E+03 0.  0.
         24    2    5    5    0    0  0.86126923493E+01 -0.83263759381E+02  0.26241944634E+03  0.28708001232E+03  0.80894595363E+02 0.  0.
          5    1    5    5  501    0 -0.25149396943E+02 -0.75221054991E+02  0.65783234108E+03  0.66261314374E+03  0.47000000000E+01 0. -1.
        -11    1    6    6    0    0  0.28645122935E+02 -0.55078318007E+02  0.23467065700E+03  0.24274365375E+03  0.00000000000E+00 0.  1.
         12    1    6    6    0    0 -0.20032430586E+02 -0.28185441374E+02  0.27748789343E+02  0.44336358563E+02  0.00000000000E+00 0. -1.
         -5    1    3    3    0  503  0.71088510925E+02  0.81591947813E+02  0.10791838883E+03  0.15290288088E+03  0.47000000000E+01 0.  1.
         11    1    4    4    0    0  0.14789916636E+02  0.31958251960E+02  0.88352729952E+02  0.95111915091E+02  0.00000000000E+00 0. -1.
        -12    1    4    4    0    0 -0.69341722968E+02  0.44934614599E+02  0.90234902309E+02  0.12235085504E+03  0.00000000000E+00 0.  1.
</event>
<event>
12    1  0.8219652E-002  0.1772365E+03  0.7818608E-02  0.1173192E+00
         21   -1    0    0  501  502  0.00000000000E+00  0.00000000000E+00  0.35257262191E+02  0.35257262191E+02  0.00000000000E+00 0.  1.
         21   -1    0    0  502  503 -0.00000000000E+00 -0.00000000000E+00 -0.35389140595E+04  0.35389140595E+04  0.00000000000E+00 0.  1.
         -6    2    1    2    0  503  0.30243529851E+02 -0.28261780374E+02 -0.32999343871E+04  0.33041424635E+04  0.16148393259E+03 0.  0.
        -24    2    3    3    0    0 -0.35616452325E+02 -0.10738620466E+02 -0.24486777493E+04  0.24501491662E+04  0.76317541333E+02 0.  0.
          6    2    1    2  501    0 -0.30243529851E+02  0.28261780374E+02 -0.20372241026E+03  0.27002885827E+03  0.17233503569E+03 0.  0.
         24    2    5    5    0    0 -0.31282226345E+02 -0.48709892404E+02 -0.12729022831E+03  0.16144853897E+03  0.80694468264E+02 0.  0.
          5    1    5    5  501    0  0.10386964944E+01  0.76971672778E+02 -0.76432181956E+02  0.10858031930E+03  0.47000000000E+01 0. -1.
        -13    1    6    6    0    0 -0.28749781761E+02  0.14079853315E+02 -0.22040823672E+02  0.38866310975E+02  0.00000000000E+00 0.  1.
         14    1    6    6    0    0 -0.25324445844E+01 -0.62789745719E+02 -0.10524940464E+03  0.12258222799E+03  0.00000000000E+00 0. -1.
         -5    1    3    3    0  503  0.65859982176E+02 -0.17523159908E+02 -0.85125663781E+03  0.85399329728E+03  0.47000000000E+01 0.  1.
         11    1    4    4    0    0 -0.69196982388E+01 -0.15655953114E+02 -0.11292045563E+03  0.11421042155E+03  0.00000000000E+00 0. -1.
        -12    1    4    4    0    0 -0.28696754087E+02  0.49173326485E+01 -0.23357572937E+04  0.23359387446E+04  0.00000000000E+00 0.  1.
</event>
<event>
12    1  0.8219652E-002  0.2123387E+03  0.7818608E-02  0.1140185E+00
         21   -1    0    0  503  502  0.00000000000E+00  0.00000000000E+00  0.18114023272E+03  0.18114023272E+03  0.00000000000E+00 0.  1.
         21   -1    0    0  501  503 -0.00000000000E+00 -0.00000000000E+00 -0.24676469079E+03  0.24676469079E+03  0.00000000000E+00 0.  1.
          6    2    1    2  501    0  0.77499814758E+02 -0.95062944363E+02 -0.22258806234E+02  0.21118323750E+03  0.17046911939E+03 0.  0.
         24    2    3    3    0    0  0.65816475156E+02 -0.11349217973E+03 -0.57591856993E+02  0.16939027617E+03  0.90354636885E+02 0.  0.
         -6    2    1    2    0  502 -0.77499814758E+02  0.95062944363E+02 -0.43365651842E+02  0.21672168601E+03  0.17333356498E+03 0.  0.
        -24    2    5    5    0    0 -0.61932243000E+02  0.96316031756E+02 -0.90922974355E+02  0.16644536511E+03  0.79527929723E+02 0.  0.
          5    1    3    3  501    0  0.11683339602E+02  0.18429235370E+02  0.35333050758E+02  0.41792961327E+02  0.47000000000E+01 0. -1.
        -13    1    4    4    0    0  0.71557076893E+02 -0.69554289145E+02 -0.40260758795E+01  0.99872036522E+02  0.00000000000E+00 0.  1.
         14    1    4    4    0    0 -0.57406017371E+01 -0.43937890587E+02 -0.53565781113E+02  0.69518239649E+02  0.00000000000E+00 0. -1.
         -5    1    5    5    0  502 -0.15567571758E+02 -0.12530873939E+01  0.47557322513E+02  0.50276320898E+02  0.47000000000E+01 0.  1.
         11    1    6    6    0    0  0.16910114594E+02  0.25492088299E+02 -0.35447661052E+02  0.46822379430E+02  0.00000000000E+00 0. -1.
        -12    1    6    6    0    0 -0.78842357594E+02  0.70823943457E+02 -0.55475313303E+02  0.11962298568E+03  0.00000000000E+00 0.  1.
</event>
<event>
12    1  0.8219652E-002  0.2642203E+03  0.7818608E-02  0.1104848E+00
         21   -1    0    0  501  502  0.00000000000E+00  0.00000000000E+00  0.11052090667E+04  0.11052090667E+04  0.00000000000E+00 0.  1.
         21   -1    0    0  502  503 -0.00000000000E+00 -0.00000000000E+00 -0.19067188499E+03  0.19067188499E+03  0.00000000000E+00 0. -1.
         -6    2    1    2    0  503  0.16759073870E+03 -0.10799756502E+03 -0.73716714669E+02  0.27291559342E+03  0.17116844733E+03 0.  0.
        -24    2    3    3    0    0  0.19193746302E+03 -0.97657068348E+02 -0.45978202637E+02  0.23429948400E+03  0.80033495338E+02 0.  0.
          6    2    1    2  501    0 -0.16759073870E+03  0.10799756502E+03  0.98825389640E+03  0.10229653583E+04  0.17338463247E+03 0.  0.
         24    2    5    5    0    0 -0.74769494179E+02  0.11936070509E+03  0.50281582408E+03  0.52857976340E+03  0.82069227776E+02 0.  0.
          5    1    5    5  501    0 -0.92821244521E+02 -0.11363140068E+02  0.48543807232E+03  0.49438559489E+03  0.47000000000E+01 0. -1.
        -11    1    6    6    0    0 -0.36956583759E+01  0.67000952262E+02  0.14104100328E+03  0.15619010884E+03  0.00000000000E+00 0.  1.
         12    1    6    6    0    0 -0.71073835803E+02  0.52359752830E+02  0.36177482080E+03  0.37238965456E+03  0.00000000000E+00 0. -1.
         -5    1    3    3    0  503 -0.24346724323E+02 -0.10340496676E+02 -0.27738512032E+02  0.38616109417E+02  0.47000000000E+01 0.  1.
         13    1    4    4    0    0  0.76644550496E+02 -0.74357471483E+02 -0.46997814206E+02  0.11667139849E+03  0.00000000000E+00 0. -1.
        -14    1    4    4    0    0  0.11529291253E+03 -0.23299596866E+02  0.10196115681E+01  0.11762808551E+03  0.00000000000E+00 0.  1.
</event>
<event>
12    1  0.8219652E-002  0.2672104E+03  0.7818608E-02  0.1103110E+00
         21   -1    0    0  501  502  0.00000000000E+00  0.00000000000E+00  0.27213078049E+03  0.27213078049E+03  0.00000000000E+00 0. -1.
         21   -1    0    0  502  503 -0.00000000000E+00 -0.00000000000E+00 -0.47235732131E+03  0.47235732131E+03  0.00000000000E+00 0.  1.
         -6    2    1    2    0  503 -0.14108540512E+03  0.14817222593E+03  0.14912044526E+03  0.30466460936E+03  0.16948013726E+03 0.  0.
        -24    2    3    3    0    0 -0.96981813100E+02  0.43667397221E+02  0.24756475607E+02  0.13627555686E+03  0.81521964292E+02 0.  0.
          6    2    1    2  501    0  0.14108540512E+03 -0.14817222593E+03 -0.34934698608E+03  0.43982349243E+03  0.17187579161E+03 0.  0.
         24    2    5    5    0    0  0.57626632227E+02 -0.14049534541E+01 -0.11636073237E+03  0.15205503784E+03  0.79108228766E+02 0.  0.
          5    1    5    5  501    0  0.83458772897E+02 -0.14676727248E+03 -0.23298625370E+03  0.28776845459E+03  0.47000000000E+01 0. -1.
        -13    1    6    6    0    0  0.15331056316E+02 -0.16171825831E+02 -0.10288833354E+03  0.10527382589E+03  0.00000000000E+00 0.  1.
         14    1    6    6    0    0  0.42295575911E+02  0.14766872377E+02 -0.13472398832E+02  0.46781211952E+02  0.00000000000E+00 0. -1.
         -5    1    3    3    0  503 -0.44103592023E+02  0.10450482871E+03  0.12436396965E+03  0.16838905250E+03  0.47000000000E+01 0.  1.
         11    1    4    4    0    0 -0.42846992994E+02  0.62436929202E+02  0.22243659469E+02  0.78924111166E+02  0.00000000000E+00 0. -1.
        -12    1    4    4    0    0 -0.54134820106E+02 -0.18769531981E+02  0.25128161379E+01  0.57351445698E+02  0.00000000000E+00 0.  1.
</event>
<event>
12    1  0.8219652E-002  0.2395335E+03  0.7818608E-02  0.1120293E+00
         21   -1    0    0  503  502  0.00000000000E+00  0.00000000000E+00  0.13727236804E+04  0.13727236804E+04  0.00000000000E+00 0.  1.
         21   -1    0    0  501  503 -0.00000000000E+00 -0.00000000000E+00 -0.47830862050E+02  0.47830862050E+02  0.00000000000E+00 0. -1.
          6    2    1    2  501    0 -0.43208550987E+02 -0.15842504160E+03  0.40746339231E+03  0.47265496714E+03  0.17438700986E+03 0.  0.
         24    2    3    3    0    0  0.45054070423E+02 -0.75321870703E+02  0.21783585678E+03  0.24753917564E+03  0.78229978340E+02 0.  0.
         -6    2    1    2    0  502  0.43208550987E+02  0.15842504160E+03  0.91742942601E+03  0.94789957527E+03  0.17283338918E+03 0.  0.
        -24    2    5    5    0    0  0.81130468973E+02  0.16289501780E+03  0.72898443166E+03  0.75556741872E+03  0.79667325836E+02 0.  0.
          5    1    3    3  501    0 -0.88262621410E+02 -0.83103170899E+02  0.18962753554E+03  0.22511579150E+03  0.47000000000E+01 0. -1.
        -13    1    4    4    0    0  0.25116488703E+02 -0.35994133303E+02  0.19087619863E+03  0.19585744520E+03  0.00000000000E+00 0.  1.
         14    1    4    4    0    0  0.19937581720E+02 -0.39327737400E+02  0.26959658146E+02  0.51681730440E+02  0.00000000000E+00 0. -1.
         -5    1    5    5    0  502 -0.37921917986E+02 -0.44699762014E+01  0.18844499435E+03  0.19233215656E+03  0.47000000000E+01 0.  1.
         11    1    6    6    0    0  0.61782845730E+02  0.49536054419E+02  0.22190377440E+03  0.23561032619E+03  0.00000000000E+00 0. -1.
        -12    1    6    6    0    0  0.19347623243E+02  0.11335896338E+03  0.50708065726E+03  0.51995709253E+03  0.00000000000E+00 0.  1.
</event>
<event>
12    1  0.8219652E-002  0.1865892E+03  0.7818608E-02  0.1162649E+00
         21   -1    0    0  503  502  0.00000000000E+00  0.00000000000E+00  0.33702885042E+03  0.33702885042E+03  0.00000000000E+00 0. -1.
         21   -1    0    0  501  503 -0.00000000000E+00 -0.00000000000E+00 -0.10694738522E+03  0.10694738522E+03  0.00000000000E+00 0.  1.
          6    2    1    2  501    0 -0.61259485148E+02 -0.10949555042E+01  0.60361123281E+02  0.19174512876E+03  0.17137329357E+03 0.  0.
         24    2    3    3    0    0 -0.82944189583E+02  0.32987969817E+02  0.72226511924E+00  0.11955956505E+03  0.79536301079E+02 0.  0.
         -6    2    1    2    0  502  0.61259485148E+02  0.10949555042E+01  0.16972034192E+03  0.25223110689E+03  0.17624305199E+03 0.  0.
        -24    2    5    5    0    0  0.76743467980E+02 -0.59411498055E+02  0.98032415016E+02  0.15703639322E+03  0.75038579574E+02 0.  0.
          5    1    3    3  501    0  0.21684704435E+02 -0.34082925321E+02  0.59638858161E+02  0.72185563707E+02  0.47000000000E+01 0. -1.
        -11    1    4    4    0    0 -0.10993077237E+02  0.35350970857E+02  0.23740814468E+02  0.43979144595E+02  0.00000000000E+00 0.  1.
         12    1    4    4    0    0 -0.71951112346E+02 -0.23630010398E+01 -0.23018549349E+02  0.75580420454E+02  0.00000000000E+00 0. -1.
         -5    1    5    5    0  502 -0.15483982833E+02  0.60506453559E+02  0.71687926903E+02  0.95194713668E+02  0.47000000000E+01 0.  1.
         13    1    6    6    0    0  0.15836749314E+02  0.17731965496E+02  0.25632083098E+02  0.34960390632E+02  0.00000000000E+00 0. -1.
        -14    1    6    6    0    0  0.60906718666E+02 -0.77143463551E+02  0.72400331918E+02  0.12207600259E+03  0.00000000000E+00 0.  1.
</event>
<event>
12    1  0.8219652E-002  0.1743436E+03  0.7818608E-02  0.1173680E+00
         21   -1    0    0  503  502  0.00000000000E+00  0.00000000000E+00  0.16054041422E+04  0.16054041422E+04  0.00000000000E+00 0. -1.
         21   -1    0    0  501  503 -0.00000000000E+00 -0.00000000000E+00 -0.34244597052E+02  0.34244597052E+02  0.00000000000E+00 0. -1.
          6    2    1    2  501    0 -0.23466414032E+02 -0.16873728840E+01  0.23378722045E+03  0.29096032490E+03  0.17160398131E+03 0.  0.
         24    2    3    3    0    0 -0.51138379195E+02 -0.57158196611E+02  0.14244746752E+03  0.18047145484E+03  0.79977945345E+02 0.  0.
         -6    2    1    2    0  502  0.23466414032E+02  0.16873728840E+01  0.13373723247E+04  0.13486884144E+04  0.17274890548E+03 0.  0.
        -24    2    5    5    0    0 -0.29238744666E+02 -0.34283169958E+02  0.10656964895E+04  0.10695798994E+04  0.79132253131E+02 0.  0.
          5    1    3    3  501    0  0.27671965164E+02  0.55470823727E+02  0.91339752932E+02  0.11048887006E+03  0.47000000000E+01 0. -1.
        -11    1    4    4    0    0  0.40446215867E+01  0.94083830481E+01  0.60439822931E+02  0.61301295511E+02  0.00000000000E+00 0.  1.
         12    1    4    4    0    0 -0.55183000782E+02 -0.66566579659E+02  0.82007644590E+02  0.11917015933E+03  0.00000000000E+00 0. -1.
         -5    1    5    5    0  502  0.52705158698E+02  0.35970542842E+02  0.27167583522E+03  0.27910851501E+03  0.47000000000E+01 0.  1.
         13    1    6    6    0    0  0.15628747331E+02  0.13921894119E+01  0.62175694252E+03  0.62195489507E+03  0.00000000000E+00 0. -1.
        -14    1    6    6    0    0 -0.44867491997E+02 -0.35675359370E+02  0.44393954701E+03  0.44762500433E+03  0.00000000000E+00 0.  1.
</event>
<event>
12    1  0.8219652E-002  0.1752515E+03  0.7818608E-02  0.1173287E+00
         21   -1    0    0  501  502  0.00000000000E+00  0.00000000000E+00  0.10231776364E+04  0.10231776364E+04  0.00000000000E+00 0. -1.
         21   -1    0    0  502  503 -0.00000000000E+00 -0.00000000000E+00 -0.30021750492E+02  0.30021750492E+02  0.00000000000E+00 0. -1.
         -6    2    1    2    0  503  0.35778774105E+02 -0.12525042708E+01  0.56329172165E+03  0.58898359854E+03  0.16829268025E+03 0.  0.
        -24    2    3    3    0    0  0.39063460168E+02  0.37172517959E+02  0.52975314782E+03  0.53765916547E+03  0.74372243288E+02 0.  0.
          6    2    1    2  501    0 -0.35778774105E+02  0.12525042708E+01  0.42986416429E+03  0.46421578839E+03  0.17155584805E+03 0.  0.
         24    2    5    5    0    0 -0.59083022579E+02 -0.45103357957E+02  0.19719281600E+03  0.22578340746E+03  0.81043346085E+02 0.  0.
          5    1    5    5  501    0  0.23304248473E+02  0.46355862228E+02  0.23267134829E+03  0.23843238093E+03  0.47000000000E+01 0. -1.
        -13    1    6    6    0    0 -0.38251799355E+02 -0.85590245750E+01  0.17273218717E+03  0.17712387061E+03  0.00000000000E+00 0.  1.
         14    1    6    6    0    0 -0.20831223223E+02 -0.36544333382E+02  0.24460628831E+02  0.48659536847E+02  0.00000000000E+00 0. -1.
         -5    1    3    3    0  503 -0.32846860625E+01 -0.38425022230E+02  0.33538573830E+02  0.51324433074E+02  0.47000000000E+01 0.  1.
         11    1    4    4    0    0 -0.22348048335E+02  0.68748799981E+01  0.13274549513E+03  0.13478896734E+03  0.00000000000E+00 0. -1.
        -12    1    4    4    0    0  0.61411508503E+02  0.30297637961E+02  0.39700765270E+03  0.40287019813E+03  0.00000000000E+00 0.  1.
</event>
<event>
12    1  0.8219652E-002  0.2706760E+03  0.7818608E-02  0.1100986E+00
         21   -1    0    0  501  502  0.00000000000E+00  0.00000000000E+00  0.11843311722E+03  0.11843311722E+03  0.00000000000E+00 0.  1.
         21   -1    0    0  502  503 -0.00000000000E+00 -0.00000000000E+00 -0.63756652318E+03  0.63756652318E+03  0.00000000000E+00 0. -1.
         -6    2    1    2    0  503  0.20753567841E+03 -0.25105944045E+02 -0.32692228503E+03  0.42401979995E+03  0.17091882302E+03 0.  0.
        -24    2    3    3    0    0  0.18352960949E+03  0.32096154454E+02 -0.27257160246E+03  0.34140952145E+03  0.86901681121E+02 0.  0.
          6    2    1    2  501    0 -0.20753567841E+03  0.25105944045E+02 -0.19221112093E+03  0.33197984044E+03  0.17194223801E+03 0.  0.
         24    2    5    5    0    0 -0.22438877794E+03 -0.12184544530E+01 -0.17584247881E+03  0.29638456878E+03  0.81064338383E+02 0.  0.
          5    1    5    5  501    0  0.16853099534E+02  0.26324398498E+02 -0.16368642124E+02  0.35595271668E+02  0.47000000000E+01 0. -1.
        -13    1    6    6    0    0 -0.18047983103E+03  0.23218066280E+02 -0.16352161112E+03  0.24464538686E+03  0.00000000000E+00 0.  1.
         14    1    6    6    0    0 -0.43908946915E+02 -0.24436520733E+02 -0.12320867691E+02  0.51739181916E+02  0.00000000000E+00 0. -1.
         -5    1    3    3    0  503  0.24006068922E+02 -0.57202098499E+02 -0.54350682571E+02  0.82610278499E+02  0.47000000000E+01 0.  1.
         13    1    4    4    0    0  0.13816924051E+03 -0.13362549252E+02 -0.21010968888E+03  0.25182410152E+03  0.00000000000E+00 0. -1.
        -14    1    4    4    0    0  0.45360368982E+02  0.45458703706E+02 -0.62461913585E+02  0.89585419938E+02  0.00000000000E+00 0.  1.
</event>
<event>
12    1  0.8219652E-002  0.1857816E+03  0.7818608E-02  0.1162687E+00
         21   -1    0    0  503  502  0.00000000000E+00  0.00000000000E+00  0.76293015134E+03  0.76293015134E+03  0.00000000000E+00 0. -1.
         21   -1    0    0  501  503 -0.00000000000E+00 -0.00000000000E+00 -0.73936209316E+02  0.73936209316E+02  0.00000000000E+00 0. -1.
          6    2    1    2  501    0 -0.97308439277E+01  0.64505849838E+02  0.60601535056E+03  0.63339580778E+03  0.17227869924E+03 0.  0.
         24    2    3    3    0    0 -0.53098266794E+01  0.15048108079E+02  0.14466348489E+03  0.16935567205E+03  0.86597805850E+02 0.  0.
         -6    2    1    2    0  502  0.97308439277E+01 -0.64505849838E+02  0.82978591463E+02  0.20347055287E+03  0.17395150261E+03 0.  0.
        -24    2    5    5    0    0 -0.15657327027E+02 -0.98093756066E+02  0.35956786056E+02  0.14017879312E+03  0.92139387387E+02 0.  0.
          5    1    3    3  501    0 -0.44210172483E+01  0.49457741759E+02  0.46135186567E+03  0.46404013573E+03  0.47000000000E+01 0. -1.
        -13    1    4    4    0    0 -0.35116815651E+02 -0.20961385090E+02  0.59374466722E+02  0.72096447242E+02  0.00000000000E+00 0.  1.
         14    1    4    4    0    0  0.29806988971E+02  0.36009493169E+02  0.85289018167E+02  0.97259224805E+02  0.00000000000E+00 0. -1.
         -5    1    5    5    0  502  0.25388170955E+02  0.33587906228E+02  0.47021805408E+02  0.63291759756E+02  0.47000000000E+01 0.  1.
         11    1    6    6    0    0 -0.54935234648E+01  0.16082274179E+02 -0.61339940466E+01  0.18067767593E+02  0.00000000000E+00 0. -1.
        -12    1    6    6    0    0 -0.10163803562E+02 -0.11417603025E+03  0.42090780102E+02  0.12211102553E+03  0.00000000000E+00 0.  1.
</event>
<event>
12    1  0.8219652E-002  0.2138280E+03  0.7818608E-02  0.1138646E+00
         21   -1    0    0  501  502  0.00000000000E+00  0.00000000000E+00  0.16490307904E+03  0.16490307904E+03  0.00000000000E+00 0. -1.
         21   -1    0    0  502  503 -0.00000000000E+00 -0.00000000000E+00 -0.43182754922E+03  0.43182754922E+03  0.00000000000E+00 0. -1.
         -6    2    1    2    0  503 -0.12356349546E+03  0.31078829034E+02 -0.31233596008E+03  0.37851838959E+03  0.17172241633E+03 0.  0.
        -24    2    3    3    0    0 -0.25090871036E+02  0.36985637814E+02 -0.23694807805E+03  0.25427197754E+03  0.80699180001E+02 0.  0.
          6    2    1    2  501    0  0.12356349546E+03 -0.31078829034E+02  0.45411489896E+02  0.21821223868E+03  0.17123243463E+03 0.  0.
         24    2    5    5    0    0  0.12363455779E+03 -0.40547157793E+02 -0.18443943477E+02  0.15348774045E+03  0.79301522883E+02 0.  0.
          5    1    5    5  501    0 -0.71062332528E-01  0.94683287585E+01  0.63855433373E+02  0.64724498226E+02  0.47000000000E+01 0. -1.
        -13    1    6    6    0    0  0.10696493294E+02 -0.32700190858E+02 -0.20890726897E+02  0.40250961742E+02  0.00000000000E+00 0.  1.
         14    1    6    6    0    0  0.11293806450E+03 -0.78469669353E+01  0.24467834195E+01  0.11323677871E+03  0.00000000000E+00 0. -1.
         -5    1    3    3    0  503 -0.98472624425E+02 -0.59068087800E+01 -0.75387882026E+02  0.12424641205E+03  0.47000000000E+01 0.  1.
         13    1    4    4    0    0  0.23220328872E+02  0.37029042543E+02 -0.12154190434E+03  0.12916179069E+03  0.00000000000E+00 0. -1.
        -14    1    4    4    0    0 -0.48311199908E+02 -0.43404728360E-01 -0.11540617372E+03  0.12511018684E+03  0.00000000000E+00 0.  1.
</event>
<event>
12    1  0.8219652E-002  0.1813360E+03  0.7818608E-02  0.1167830E+00
         21   -1    0    0  503  502  0.00000000000E+00  0.00000000000E+00  0.28510271613E+03  0.28510271613E+03  0.00000000000E+00 0. -1.
         21   -1    0    0  501  503 -0.00000000000E+00 -0.00000000000E+00 -0.12141958397E+03  0.12141958397E+03  0.00000000000E+00 0. -1.
          6    2    1    2  501    0  0.15332995262E+02  0.42100001412E+02  0.13751485311E+03  0.22330783658E+03  0.17014271713E+03 0.  0.
         24    2    3    3    0    0  0.64793790292E+02 -0.47197193270E+01  0.96100087555E+02  0.14345967254E+03  0.84409358527E+02 0.  0.
         -6    2    1    2    0  502 -0.15332995262E+02 -0.42100001412E+02  0.26168279058E+02  0.18321446351E+03  0.17571354515E+03 0.  0.
        -24    2    5    5    0    0 -0.39449788770E+02  0.64737945978E+01 -0.40725340383E+02  0.96971320540E+02  0.78400815094E+02 0.  0.
          5    1    3    3  501    0 -0.49460795030E+02  0.46819720739E+02  0.41414765551E+02  0.79848164041E+02  0.47000000000E+01 0. -1.
        -11    1    4    4    0    0 -0.22232485971E+01  0.17235259388E+02 -0.68435923620E+01  0.18677038227E+02  0.00000000000E+00 0.  1.
         12    1    4    4    0    0  0.67017038889E+02 -0.21954978715E+02  0.10294367992E+03  0.12478263432E+03  0.00000000000E+00 0. -1.
         -5    1    5    5    0  502  0.24116793508E+02 -0.48573796010E+02  0.66893619441E+02  0.86243142973E+02  0.47000000000E+01 0.  1.
         13    1    6    6    0    0  0.11133048940E+02  0.26670635965E+02  0.10366676329E+00  0.28901182472E+02  0.00000000000E+00 0. -1.
        -14    1    6    6    0    0 -0.50582837710E+02 -0.20196841367E+02 -0.40829007146E+02  0.68070138068E+02  0.00000000000E+00 0.  1.
</event>
<event>
12    1  0.8219652E-002  0.2311185E+03  0.7818608E-02  0.1126702E+00
         21   -1    0    0  503  502  0.00000000000E+00  0.00000000000E+00  0.21442413404E+04  0.21442413404E+04  0.00000000000E+00 0.  1.
         21   -1    0    0  501  503 -0.00000000000E+00 -0.00000000000E+00 -0.18906948463E+03  0.18906948463E+03  0.00000000000E+00 0.  1.
          6    2    1    2  501    0 -0.12491679866E+03 -0.77985175850E+02 -0.10986882618E+03  0.25590410234E+03  0.17812876351E+03 0.  0.
         24    2    3    3    0    0 -0.10269907013E+03  0.54267820477E+01 -0.10854562573E+03  0.16944588677E+03  0.79707005395E+02 0.  0.
         -6    2    1    2    0  502  0.12491679866E+03  0.77985175850E+02  0.20650406820E+04  0.20774067227E+04  0.17187140276E+03 0.  0.
        -24    2    5    5    0    0  0.73425499922E+01  0.17303360329E+02  0.51554378363E+03  0.52226405572E+03  0.81369722514E+02 0.  0.
          5    1    3    3  501    0 -0.22217728535E+02 -0.83411957898E+02 -0.13232004527E+01  0.86458215579E+02  0.47000000000E+01 0. -1.
        -13    1    4    4    0    0 -0.94932348474E+01 -0.29053305298E+02 -0.29285148818E+02  0.42330083840E+02  0.00000000000E+00 0.  1.
         14    1    4    4    0    0 -0.93205835279E+02  0.34480087346E+02 -0.79260476911E+02  0.12711580293E+03  0.00000000000E+00 0. -1.
         -5    1    5    5    0  502  0.11757424867E+03  0.60681815521E+02  0.15494968983E+04  0.15551426670E+04  0.47000000000E+01 0.  1.
         13    1    6    6    0    0 -0.19771273040E+02  0.41000613026E+02  0.23021262301E+03  0.23466956619E+03  0.00000000000E+00 0. -1.
        -14    1    6    6    0    0  0.27113823032E+02 -0.23697252697E+02  0.28533116062E+03  0.28759448953E+03  0.00000000000E+00 0.  1.
</event>
<event>
12    1  0.8219652E-002  0.2833471E+03  0.7818608E-02  0.1096601E+00
         21   -1    0    0  501  502  0.00000000000E+00  0.00000000000E+00  0.13631964388E+04  0.13631964388E+04  0.00000000000E+00 0.  1.
         21   -1    0    0  502  503 -0.00000000000E+00 -0.00000000000E+00 -0.29640657857E+03  0.29640657857E+03  0.00000000000E+00 0.  1.
         -6    2    1    2    0  503 -0.11239403785E+03 -0.18487752330E+03 -0.21905005024E+03  0.34291403708E+03  0.15098011110E+03 0.  0.
        -24    2    3    3    0    0 -0.45627075521E+02 -0.15719633882E+03 -0.19491497959E+03  0.26656833079E+03  0.79210521745E+02 0.  0.
          6    2    1    2  501    0  0.11239403785E+03  0.18487752330E+03  0.12858399105E+04  0.13166889803E+04  0.18295758273E+03 0.  0.
         24    2    5    5    0    0  0.85659768852E+02  0.18848633280E+03  0.12587317339E+04  0.12781573325E+04  0.80099282461E+02 0.  0.
          5    1    5    5  501    0  0.26734268994E+02 -0.36088094982E+01  0.27108176606E+02  0.38531647818E+02  0.47000000000E+01 0. -1.
        -13    1    6    6    0    0  0.34351229678E+02  0.12853581281E+03  0.96016333146E+03  0.96933744652E+03  0.00000000000E+00 0.  1.
         14    1    6    6    0    0  0.51308539175E+02  0.59950519984E+02  0.29856840239E+03  0.30881988593E+03  0.00000000000E+00 0. -1.
         -5    1    3    3    0  503 -0.66766962325E+02 -0.27681184482E+02 -0.24135070652E+02  0.76345706283E+02  0.47000000000E+01 0.  1.
         13    1    4    4    0    0  0.13021468047E+02 -0.35691963501E+02 -0.13154009893E+02  0.40205756614E+02  0.00000000000E+00 0. -1.
        -14    1    4    4    0    0 -0.58648543569E+02 -0.12150437532E+03 -0.18176096970E+03  0.22636257418E+03  0.00000000000E+00 0.  1.
</event>
<event>
12    1  0.8219652E-002  0.2153002E+03  0.7818608E-02  0.1139610E+00
         21   -1    0    0  503  502  0.00000000000E+00  0.00000000000E+00  0.88814782028E+03  0.88814782028E+03  0.00000000000E+00 0. -1.
         21   -1    0    0  501  503 -0.00000000000E+00 -0.00000000000E+00 -0.87220754799E+02  0.87220754799E+02  0.00000000000E+00 0.  1.
          6    2    1    2  501    0  0.94335252501E+02  0.55298839463E+02  0.74057972828E+02  0.21728358620E+03  0.17254121821E+03 0.  0.
         24    2    3    3    0    0  0.62702822963E+02 -0.97447423654E+01  0.98411515545E+02  0.14082141792E+03  0.78225579837E+02 0.  0.
         -6    2    1    2    0  502 -0.94335252501E+02 -0.55298839463E+02  0.72686909265E+03  0.75808498888E+03  0.18546447370E+03 0.  0.
        -24    2    5    5    0    0 -0.84862475895E+02  0.14381332468E+02  0.27312912018E+03  0.29890407412E+03  0.85648506699E+02 0.  0.
          5    1    3    3  501    0  0.31632429538E+02  0.65043581829E+02 -0.24353542716E+02  0.76462168282E+02  0.47000000000E+01 0. -1.
        -13    1    4    4    0    0  0.17483892433E+02  0.25073016049E+01 -0.11680498235E+02  0.21175625020E+02  0.00000000000E+00 0.  1.
         14    1    4    4    0    0  0.45218930530E+02 -0.12252043970E+02  0.11009201378E+03  0.11964579290E+03  0.00000000000E+00 0. -1.
         -5    1    5    5    0  502 -0.94727766066E+01 -0.69680171931E+02  0.45373997248E+03  0.45918091476E+03  0.47000000000E+01 0.  1.
         13    1    6    6    0    0 -0.63739372694E+02 -0.14374628557E+01  0.26303217953E+03  0.27064866783E+03  0.00000000000E+00 0. -1.
        -14    1    6    6    0    0 -0.21123103200E+02  0.15818795324E+02  0.10096940650E+02  0.28255406293E+02  0.00000000000E+00 0.  1.
</event>
<event>
12    1  0.8219652E-002  0.1972473E+03  0.7818608E-02  0.1152367E+00
         21   -1    0    0  501  502  0.00000000000E+00  0.00000000000E+00  0.27386915530E+03  0.27386915530E+03  0.00000000000E+00 0. -1.
         21   -1    0    0  502  503 -0.00000000000E+00 -0.00000000000E+00 -0.26016801380E+03  0.26016801380E+03  0.00000000000E+00 0. -1.
         -6    2    1    2    0  503  0.27792891482E+02  0.89080508512E+02 -0.17379105508E+03  0.26189782802E+03  0.17227698535E+03 0.  0.
        -24    2    3    3    0    0  0.36025836451E+02  0.10924989448E+03 -0.18866010456E+03  0.23510670737E+03  0.80306465859E+02 0.  0.
          6    2    1    2  501    0 -0.27792891482E+02 -0.89080508512E+02  0.18749219658E+03  0.27213934108E+03  0.17377777583E+03 0.  0.
         24    2    5    5    0    0  0.33557345161E+01  0.18850326050E+02  0.55017425874E+02  0.98383889871E+02  0.79283522185E+02 0.  0.
          5    1    5    5  501    0 -0.31148625998E+02 -0.10793083456E+03  0.13247477071E+03  0.17375545121E+03  0.47000000000E+01 0. -1.
        -11    1    6    6    0    0 -0.19694950361E+02  0.38718215313E+02  0.52069323534E+02  0.67810070933E+02  0.00000000000E+00 0.  1.
         12    1    6    6    0    0  0.23050684877E+02 -0.19867889263E+02  0.29481023401E+01  0.30573818938E+02  0.00000000000E+00 0. -1.
         -5    1    3    3    0  503 -0.82329449692E+01 -0.20169385970E+02  0.14869049484E+02  0.26791120653E+02  0.47000000000E+01 0.  1.
         11    1    4    4    0    0  0.12585366677E+02  0.10237097988E+03 -0.10196186505E+03  0.14503251670E+03  0.00000000000E+00 0. -1.
        -12    1    4    4    0    0  0.23440469775E+02  0.68789146006E+01 -0.86698239515E+02  0.90074190667E+02  0.00000000000E+00 0.  1.
</event>
<event>
12    1  0.8219652E-002  0.2019029E+03  0.7818608E-02  0.1148410E+00
         21   -1    0    0  501  502  0.00000000000E+00  0.00000000000E+00  0.46618164390E+02  0.46618164390E+02  0.00000000000E+00 0. -1.
         21   -1    0    0  502  503 -0.00000000000E+00 -0.00000000000E+00 -0.98888651068E+03  0.98888651068E+03  0.00000000000E+00 0. -1.
         -6    2    1    2    0  503 -0.67595735943E+02  0.80953903738E+02 -0.65276754286E+03  0.68327904151E+03  0.17216871235E+03 0.  0.
        -24    2    3    3    0    0 -0.49401527440E+01  0.80094537516E+02 -0.55799443982E+03  0.56956672170E+03  0.81295236972E+02 0.  0.
          6    2    1    2  501    0  0.67595735943E+02 -0.80953903738E+02 -0.28950080343E+03  0.35222563356E+03  0.17067355888E+03 0.  0.
         24    2    5    5    0    0  0.99553116513E+02 -0.10191086713E+03 -0.23843683429E+03  0.28827184218E+03  0.77148449108E+02 0.  0.
          5    1    5    5  501    0 -0.31957380570E+02  0.20956963392E+02 -0.51063969138E+02  0.63953791378E+02  0.47000000000E+01 0. -1.
        -13    1    6    6    0    0  0.37804602827E+02 -0.17537696640E+02 -0.13464738722E+03  0.14094920249E+03  0.00000000000E+00 0.  1.
         14    1    6    6    0    0  0.61748513686E+02 -0.84373170490E+02 -0.10378944708E+03  0.14732263969E+03  0.00000000000E+00 0. -1.
         -5    1    3    3    0  503 -0.62655583199E+02  0.85936622190E+00 -0.94773103039E+02  0.11371231981E+03  0.47000000000E+01 0.  1.
         13    1    4    4    0    0  0.34568772527E+01  0.38828567815E+01 -0.30879411776E+03  0.30883787615E+03  0.00000000000E+00 0. -1.
        -14    1    4    4    0    0 -0.83970299967E+01  0.76211680735E+02 -0.24920032205E+03  0.26072884556E+03  0.00000000000E+00 0.  1.
</event>
<event>
12    1  0.8219652E-002  0.1840362E+03  0.7818608E-02  0.1164113E+00
         21   -1    0    0  501  502  0.00000000000E+00  0.00000000000E+00  0.26021104335E+03  0.26021104335E+03  0.00000000000E+00 0.  1.
         21   -1    0    0  502  503 -0.00000000000E+00 -0.00000000000E+00 -0.28455950342E+03  0.28455950342E+03  0.00000000000E+00 0.  1.
         -6    2    1    2    0  503  0.17438662770E+02  0.62357453619E+02 -0.21311641580E+03  0.28113693311E+03  0.17154244225E+03 0.  0.
        -24    2    3    3    0    0  0.31164726034E+02  0.82878837196E+02 -0.73628171131E+02  0.13940270155E+03  0.78561210596E+02 0.  0.
          6    2    1    2  501    0 -0.17438662770E+02 -0.62357453619E+02  0.18876795572E+03  0.26363361366E+03  0.17226950445E+03 0.  0.
         24    2    5    5    0    0 -0.63641684316E+01  0.32329938901E+02  0.10971836543E+03  0.13970107373E+03  0.79953378295E+02 0.  0.
          5    1    5    5  501    0 -0.11074494339E+02 -0.94687392520E+02  0.79049590296E+02  0.12393253993E+03  0.47000000000E+01 0. -1.
        -11    1    6    6    0    0 -0.22778676797E+02 -0.16793120931E+02  0.66405624246E+02  0.72184374755E+02  0.00000000000E+00 0.  1.
         12    1    6    6    0    0  0.16414508366E+02  0.49123059833E+02  0.43312741183E+02  0.67516698979E+02  0.00000000000E+00 0. -1.
         -5    1    3    3    0  503 -0.13726063264E+02 -0.20521383577E+02 -0.13948824467E+03  0.14173423156E+03  0.47000000000E+01 0.  1.
         13    1    4    4    0    0  0.46164944269E+02  0.79899652644E+02 -0.80668695681E+02  0.12256669627E+03  0.00000000000E+00 0. -1.
        -14    1    4    4    0    0 -0.15000218235E+02  0.29791845520E+01  0.70405245492E+01  0.16836005275E+02  0.00000000000E+00 0.  1.
</event>
<event>
12    1  0.8219652E-002  0.2278019E+03  0.7818608E-02  0.1128302E+00
         21   -1    0    0  501  502  0.00000000000E+00  0.00000000000E+00  0.85383893195E+02  0.85383893195E+02  0.00000000000E+00 0. -1.
         21   -1    0    0  502  503 -0.00000000000E+00 -0.00000000000E+00 -0.66579877086E+03  0.66579877086E+03  0.00000000000E+00 0. -1.
         -6    2    1    2    0  503  0.11714637156E+03 -0.93378733408E+02 -0.17817010211E+03  0.28920282562E+03  0.17161243788E+03 0.  0.
        -24    2    3    3    0    0  0.99129992266E+01 -0.95070343245E+02 -0.10602218919E+03  0.15986115010E+03  0.71960023575E+02 0.  0.
          6    2    1    2  501    0 -0.11714637156E+03  0.93378733408E+02 -0.40224477555E+03  0.46197983844E+03  0.17082637805E+03 0.  0.
         24    2    5    5    0    0 -0.12216493201E+02  0.67483039917E+02 -0.11105704548E+03  0.15134621106E+03  0.76608125339E+02 0.  0.
          5    1    5    5  501    0 -0.10492987836E+03  0.25895693491E+02 -0.29118773007E+03  0.31063362738E+03  0.47000000000E+01 0. -1.
        -11    1    6    6    0    0 -0.28503815664E+01  0.83504668125E+02 -0.97259148726E+02  0.12822049869E+03  0.00000000000E+00 0.  1.
         12    1    6    6    0    0 -0.93661116347E+01 -0.16021628208E+02 -0.13797896755E+02  0.23125712367E+02  0.00000000000E+00 0. -1.
         -5    1    3    3    0  503  0.10723337234E+03  0.16916098376E+01 -0.72147912917E+02  0.12934167551E+03  0.47000000000E+01 0.  1.
         11    1    4    4    0    0 -0.92062452844E+01  0.80808338220E+01 -0.25535230892E+01  0.12513005541E+02  0.00000000000E+00 0. -1.
        -12    1    4    4    0    0  0.19119244511E+02 -0.10315117707E+03 -0.10346866610E+03  0.14734814456E+03  0.00000000000E+00 0.  1.
</event>
<event>
12    1  0.8219652E-002  0.1966434E+03  0.7818608E-02  0.1152648E+00
         21   -1    0    0  501  502  0.00000000000E+00  0.00000000000E+00  0.92675436876E+02  0.92675436876E+02  0.00000000000E+00 0. -1.
         21   -1    0    0  502  503 -0.00000000000E+00 -0.00000000000E+00 -0.56217034032E+03  0.56217034032E+03  0.00000000000E+00 0. -1.
         -6    2    1    2    0  503 -0.93772361389E+02  0.15883565702E+02 -0.40115348704E+03  0.44666513085E+03  0.17187226517E+03 0.  0.
        -24    2    3    3    0    0 -0.74477407866E+02  0.23753930009E+02 -0.11486548564E+03  0.15958126225E+03  0.78491821207E+02 0.  0.
          6    2    1    2  501    0  0.93772361389E+02 -0.15883565702E+02 -0.68341416398E+02  0.20818064634E+03  0.17211359300E+03 0.  0.
         24    2    5    5    0    0  0.93091361309E+02 -0.41174252273E+02 -0.10285193067E+03  0.16513243867E+03  0.79554271146E+02 0.  0.
          5    1    5    5  501    0  0.68100008058E+00  0.25290686571E+02  0.34510514272E+02  0.43048207671E+02  0.47000000000E+01 0. -1.
        -11    1    6    6    0    0  0.97410091956E+01  0.28323260832E+01  0.12545873466E+02  0.16134071780E+02  0.00000000000E+00 0.  1.
         12    1    6    6    0    0  0.83350352113E+02 -0.44006578357E+02 -0.11539780414E+03  0.14899836689E+03  0.00000000000E+00 0. -1.
         -5    1    3    3    0  503 -0.19294953523E+02 -0.78703643064E+01 -0.28628800140E+03  0.28708386860E+03  0.47000000000E+01 0.  1.
         13    1    4    4    0    0 -0.90580659912E+02  0.13894492678E+02 -0.90965479417E+02  0.12912254382E+03  0.00000000000E+00 0. -1.
        -14    1    4    4    0    0  0.16103252045E+02  0.98594373305E+01 -0.23900006225E+02  0.30458718431E+02  0.00000000000E+00 0.  1.
</event>
<event>
12    1  0.8219652E-002  0.3194842E+03  0.7818608E-02  0.1076027E+00
         21   -1    0    0  503  502  0.00000000000E+00  0.00000000000E+00  0.11696625489E+04  0.11696625489E+04  0.00000000000E+00 0. -1.
         21   -1    0    0  501  503 -0.00000000000E+00 -0.00000000000E+00 -0.11229892390E+03  0.11229892390E+03  0.00000000000E+00 0.  1.
          6    2    1    2  501    0 -0.10168228617E+03 -0.24938442954E+03  0.83253240428E+03  0.89129637681E+03  0.16960880321E+03 0.  0.
         24    2    3    3    0    0 -0.13173887188E+02 -0.11079182827E+03  0.51455814119E+03  0.53328608673E+03  0.84708849139E+02 0.  0.
         -6    2    1    2    0  502  0.10168228617E+03  0.24938442954E+03  0.22483122074E+03  0.39066509600E+03  0.17186697879E+03 0.  0.
        -24    2    5    5    0    0  0.65466128648E+02  0.17871570119E+03  0.23271837493E+03  0.31072776785E+03  0.78541631161E+02 0.  0.
          5    1    3    3  501    0 -0.88508398978E+02 -0.13859260127E+03  0.31797426309E+03  0.35801029008E+03  0.47000000000E+01 0. -1.
        -11    1    4    4    0    0  0.16309823648E+02  0.67331153690E+01  0.93051438750E+02  0.94709637542E+02  0.00000000000E+00 0.  1.
         12    1    4    4    0    0 -0.29483710836E+02 -0.11752494364E+03  0.42150670244E+03  0.43857644919E+03  0.00000000000E+00 0. -1.
         -5    1    5    5    0  502  0.36216157518E+02  0.70668728348E+02 -0.78871541951E+01  0.79937328157E+02  0.47000000000E+01 0.  1.
         11    1    6    6    0    0  0.33069352184E+02  0.14610291256E+03  0.13058518351E+03  0.19872627723E+03  0.00000000000E+00 0. -1.
        -12    1    6    6    0    0  0.32396776464E+02  0.32612788632E+02  0.10213319143E+03  0.11200149061E+03  0.00000000000E+00 0.  1.
</event>
<event>
12    1  0.8219652E-002  0.1968193E+03  0.7818608E-02  0.1154114E+00
         21   -1    0    0  503  502  0.00000000000E+00  0.00000000000E+00  0.18863542705E+04  0.18863542705E+04  0.00000000000E+00 0. -1.
         21   -1    0    0  501  503 -0.00000000000E+00 -0.00000000000E+00 -0.81596520613E+02  0.81596520613E+02  0.00000000000E+00 0. -1.
          6    2    1    2  501    0 -0.61894843791E+02 -0.73545738296E+02  0.41515053806E+02  0.19375727025E+03  0.16302893232E+03 0.  0.
         24    2    3    3    0    0  0.20302562534E+02 -0.29402405895E+02  0.41555293183E+02  0.10033811257E+03  0.84048788960E+02 0.  0.
         -6    2    1    2    0  502  0.61894843791E+02  0.73545738296E+02  0.17632426961E+04  0.17741935209E+04  0.17174951782E+03 0.  0.
        -24    2    5    5    0    0  0.48362533728E+02  0.26831748748E+02  0.46827037105E+03  0.47829972396E+03  0.80216009203E+02 0.  0.
          5    1    3    3  501    0 -0.82197406324E+02 -0.44143332401E+02 -0.40239376632E-01  0.93419157677E+02  0.47000000000E+01 0. -1.
        -11    1    4    4    0    0  0.91344580876E+01 -0.14613722848E+02  0.66819336497E+02  0.69005963147E+02  0.00000000000E+00 0.  1.
         12    1    4    4    0    0  0.11168104446E+02 -0.14788683047E+02 -0.25264043314E+02  0.31332149428E+02  0.00000000000E+00 0. -1.
         -5    1    5    5    0  502  0.13532310062E+02  0.46713989548E+02  0.12949723250E+04  0.12958937969E+04  0.47000000000E+01 0.  1.
         11    1    6    6    0    0  0.21492875482E+02 -0.22007788562E+02  0.28721312530E+03  0.28885578719E+03  0.00000000000E+00 0. -1.
        -12    1    6    6    0    0  0.26869658246E+02  0.48839537310E+02  0.18105724575E+03  0.18944393677E+03  0.00000000000E+00 0.  1.
</event>
<event>
12    1  0.8219652E-002  0.2209475E+03  0.7818608E-02  0.1134719E+00
         21   -1    0    0  503  502  0.00000000000E+00  0.00000000000E+00  0.67937467941E+02  0.67937467941E+02  0.00000000000E+00 0. -1.
         21   -1    0    0  501  503 -0.00000000000E+00 -0.00000000000E+00 -0.75223796251E+03  0.75223796251E+03  0.00000000000E+00 0. -1.
          6    2    1    2  501    0 -0.12455098472E+03  0.63329199230E+02 -0.45195228896E+03  0.49954558358E+03  0.16050353052E+03 0.  0.
         24    2    3    3    0    0 -0.43347800033E+02  0.90771611298E+02 -0.25552297062E+03  0.28517765154E+03  0.76914154993E+02 0.  0.
         -6    2    1    2    0  502  0.12455098472E+03 -0.63329199230E+02 -0.23234820561E+03  0.32062984687E+03  0.17115570334E+03 0.  0.
        -24    2    5    5    0    0  0.11993504770E+03 -0.99013497260E+02 -0.22204321185E+03  0.28290771945E+03  0.80904273637E+02 0.  0.
          5    1    3    3  501    0 -0.81203184688E+02 -0.27442412068E+02 -0.19642931834E+03  0.21436793204E+03  0.47000000000E+01 0. -1.
        -13    1    4    4    0    0 -0.61136765066E+02  0.52025604784E+02 -0.13189001602E+03  0.15439994793E+03  0.00000000000E+00 0.  1.
         14    1    4    4    0    0  0.17788965033E+02  0.38746006515E+02 -0.12363295460E+03  0.13077770361E+03  0.00000000000E+00 0. -1.
         -5    1    5    5    0  502  0.46159370236E+01  0.35684298030E+02 -0.10304993762E+02  0.37722127418E+02  0.47000000000E+01 0.  1.
         11    1    6    6    0    0  0.41700737001E+02 -0.65154818456E+02 -0.53569613429E+02  0.94094661471E+02  0.00000000000E+00 0. -1.
        -12    1    6    6    0    0  0.78234310696E+02 -0.33858678804E+02 -0.16847359842E+03  0.18881305798E+03  0.00000000000E+00 0.  1.
</event>
<event>
12    1  0.8219652E-002  0.2010041E+03  0.7818608E-02  0.1148969E+00
         21   -1    0    0  503  502  0.00000000000E+00  0.00000000000E+00  0.13625697452E+04  0.13625697452E+04  0.00000000000E+00 0.  1.
         21   -1    0    0  501  503 -0.00000000000E+00 -0.00000000000E+00 -0.29617316070E+02  0.29617316070E+02  0.00000000000E+00 0.  1.
          6    2    1    2  501    0  0.64360199015E+01 -0.10353644651E+03  0.68400527224E+03  0.71292765588E+03  0.17216681432E+03 0.  0.
         24    2    3    3    0    0  0.29113001594E+01 -0.16703834014E+02  0.14362435306E+03  0.16558319938E+03  0.80637134041E+02 0.  0.
         -6    2    1    2    0  502 -0.64360199015E+01  0.10353644651E+03  0.64894715689E+03  0.67925940539E+03  0.17175479403E+03 0.  0.
        -24    2    5    5    0    0 -0.14755944656E+01  0.13122848401E+02  0.49142498847E+03  0.49750531854E+03  0.76410968800E+02 0.  0.
          5    1    3    3  501    0  0.35247197421E+01 -0.86832612498E+02  0.54038091918E+03  0.54734445650E+03  0.47000000000E+01 0. -1.
        -13    1    4    4    0    0  0.21574270458E+02 -0.43471893419E+02  0.99487356446E+02  0.11069321911E+03  0.00000000000E+00 0.  1.
         14    1    4    4    0    0 -0.18662970298E+02  0.26768059405E+02  0.44136996611E+02  0.54889980274E+02  0.00000000000E+00 0. -1.
         -5    1    5    5    0  502 -0.49604254360E+01  0.90413598112E+02  0.15752216841E+03  0.18175408685E+03  0.47000000000E+01 0.  1.
         11    1    6    6    0    0  0.26425049415E+02  0.33515975851E+02  0.24944638119E+03  0.25307133572E+03  0.00000000000E+00 0. -1.
        -12    1    6    6    0    0 -0.27900643881E+02 -0.20393127450E+02  0.24197860729E+03  0.24443398283E+03  0.00000000000E+00 0.  1.
</event>
<event>
12    1  0.8219652E-002  0.2100677E+03  0.7818608E-02  0.1141514E+00
         21   -1    0    0  501  502  0.00000000000E+00  0.00000000000E+00  0.95870253824E+02  0.95870253824E+02  0.00000000000E+00 0. -1.
         21   -1    0    0  502  503 -0.00000000000E+00 -0.00000000000E+00 -0.48075492874E+03  0.48075492874E+03  0.00000000000E+00 0.  1.
         -6    2    1    2    0  503  0.61828708050E+02  0.10452030449E+03 -0.25195093680E+03  0.32802951190E+03  0.17139662462E+03 0.  0.
        -24    2    3    3    0    0  0.26600910521E+02  0.10846279197E+03 -0.93938026991E+02  0.16602114608E+03  0.79163642848E+02 0.  0.
          6    2    1    2  501    0 -0.61828708050E+02 -0.10452030449E+03 -0.13293373811E+03  0.24859567067E+03  0.17140929250E+03 0.  0.
         24    2    5    5    0    0  0.32295147167E+02 -0.42952681856E+02 -0.58905458868E+02  0.11386576157E+03  0.81287447767E+02 0.  0.
          5    1    5    5  501    0 -0.94123855217E+02 -0.61567622630E+02 -0.74028279246E+02  0.13472990910E+03  0.47000000000E+01 0. -1.
        -11    1    6    6    0    0 -0.19934579357E+02 -0.37815736765E+02 -0.14567851587E+02  0.45162370410E+02  0.00000000000E+00 0.  1.
         12    1    6    6    0    0  0.52229726524E+02 -0.51369450909E+01 -0.44337607280E+02  0.68703391160E+02  0.00000000000E+00 0. -1.
         -5    1    3    3    0  503  0.35227797530E+02 -0.39424874871E+01 -0.15801290981E+03  0.16200836581E+03  0.47000000000E+01 0.  1.
         13    1    4    4    0    0  0.32006942013E+02  0.66969793536E+02 -0.13630841272E+02  0.75466531768E+02  0.00000000000E+00 0. -1.
        -14    1    4    4    0    0 -0.54060314926E+01  0.41492998437E+02 -0.80307185719E+02  0.90554614316E+02  0.00000000000E+00 0.  1.
</event>
<event>
12    1  0.8219652E-002  0.2240672E+03  0.7818608E-02  0.1131143E+00
         21   -1    0    0  501  502  0.00000000000E+00  0.00000000000E+00  0.13588582568E+03  0.13588582568E+03  0.00000000000E+00 0.  1.
         21   -1    0    0  502  503 -0.00000000000E+00 -0.00000000000E+00 -0.38369633082E+03  0.38369633082E+03  0.00000000000E+00 0. -1.
         -6    2    1    2    0  503 -0.43591842846E+02  0.13200890552E+03 -0.17746020544E+03  0.28473053482E+03  0.17393318558E+03 0.  0.
        -24    2    3    3    0    0 -0.64493742221E+02  0.11751316343E+03 -0.19776141637E+03  0.25184824321E+03  0.79681700778E+02 0.  0.
          6    2    1    2  501    0  0.43591842846E+02 -0.13200890552E+03 -0.70350299699E+02  0.23485162168E+03  0.17572569431E+03 0.  0.
         24    2    5    5    0    0  0.64590308750E+02 -0.61840219003E+02  0.21756371785E+02  0.11707934536E+03  0.72374807261E+02 0.  0.
          5    1    5    5  501    0 -0.20998465904E+02 -0.70168686519E+02 -0.92106671484E+02  0.11777227632E+03  0.47000000000E+01 0. -1.
        -11    1    6    6    0    0  0.12000014142E+02  0.10764429982E+02  0.22190588317E+02  0.27428005799E+02  0.00000000000E+00 0.  1.
         12    1    6    6    0    0  0.52590294608E+02 -0.72604648985E+02 -0.43421653204E+00  0.89651339561E+02  0.00000000000E+00 0. -1.
         -5    1    3    3    0  503  0.20901899376E+02  0.14495742088E+02  0.20301210930E+02  0.32882291608E+02  0.47000000000E+01 0.  1.
         11    1    4    4    0    0 -0.76363792388E+02  0.72765814217E+02 -0.10865852344E+03  0.15143634710E+03  0.00000000000E+00 0. -1.
        -12    1    4    4    0    0  0.11870050167E+02  0.44747349217E+02 -0.89102892924E+02  0.10041189611E+03  0.00000000000E+00 0.  1.
</event>
<event>
12    1  0.8219652E-002  0.1983573E+03  0.7818608E-02  0.1151572E+00
         21   -1    0    0  501  502  0.00000000000E+00  0.00000000000E+00  0.29177203447E+03  0.29177203447E+03  0.00000000000E+00 0.  1.
         21   -1    0    0  502  503 -0.00000000000E+00 -0.00000000000E+00 -0.13392038372E+03  0.13392038372E+03  0.00000000000E+00 0.  1.
         -6    2    1    2    0  503 -0.67744981730E+02  0.70236731867E+02  0.91003268098E+02  0.21637368647E+03  0.17033319213E+03 0.  0.
        -24    2    3    3    0    0  0.26923153110E+02  0.13057946608E+02  0.37481846787E+02  0.93417996173E+02  0.80166495666E+02 0.  0.
          6    2    1    2  501    0  0.67744981730E+02 -0.70236731867E+02  0.66848382650E+02  0.20931873172E+03  0.17269349765E+03 0.  0.
         24    2    5    5    0    0  0.43874105168E+02 -0.71137294409E+02  0.10951180534E+03  0.16019758152E+03  0.81761713888E+02 0.  0.
          5    1    5    5  501    0  0.23870876562E+02  0.90056254219E+00 -0.42663422688E+02  0.49121150192E+02  0.47000000000E+01 0. -1.
        -13    1    6    6    0    0  0.63047965045E+02 -0.72435070472E+02  0.80037408852E+02  0.12501148806E+03  0.00000000000E+00 0.  1.
         14    1    6    6    0    0 -0.19173859877E+02  0.12977760628E+01  0.29474396486E+02  0.35186093467E+02  0.00000000000E+00 0. -1.
         -5    1    3    3    0  503 -0.94668134840E+02  0.57178785259E+02  0.53521421311E+02  0.12295569030E+03  0.47000000000E+01 0.  1.
         13    1    4    4    0    0 -0.25790379134E+02 -0.56813537347E+01  0.24418366051E+02  0.35967736052E+02  0.00000000000E+00 0. -1.
        -14    1    4    4    0    0  0.52713532244E+02  0.18739300342E+02  0.13063480736E+02  0.57450260120E+02  0.00000000000E+00 0.  1.
</event>
<event>
12    1  0.8219652E-002  0.2565223E+03  0.7818608E-02  0.1109660E+00
         21   -1    0    0  501  502  0.00000000000E+00  0.00000000000E+00  0.34904840904E+03  0.34904840904E+03  0.00000000000E+00 0.  1.
         21   -1    0    0  502  503 -0.00000000000E+00 -0.00000000000E+00 -0.30285506075E+03  0.30285506075E+03  0.00000000000E+00 0.  1.
         -6    2    1    2    0  503  0.17324503121E+03 -0.82289340840E+02 -0.17880112222E+03  0.31268761013E+03  0.17034765561E+03 0.  0.
        -24    2    3    3    0    0  0.13899952359E+03 -0.11228747132E+03 -0.95795441582E+02  0.21790008120E+03  0.79839432507E+02 0.  0.
          6    2    1    2  501    0 -0.17324503121E+03  0.82289340840E+02  0.22499447051E+03  0.33921585965E+03  0.16631148855E+03 0.  0.
         24    2    5    5    0    0 -0.53311827169E+02  0.21520691110E+02  0.16471424140E+03  0.19179605690E+03  0.79684722875E+02 0.  0.
          5    1    5    5  501    0 -0.11993320404E+03  0.60768649730E+02  0.60280229103E+02  0.14741980275E+03  0.47000000000E+01 0. -1.
        -11    1    6    6    0    0 -0.31555448869E+02  0.45257571790E+02  0.56817881002E+02  0.79197637334E+02  0.00000000000E+00 0.  1.
         12    1    6    6    0    0 -0.21756378301E+02 -0.23736880680E+02  0.10789636040E+03  0.11259841957E+03  0.00000000000E+00 0. -1.
         -5    1    3    3    0  503  0.34245507622E+02  0.29998130483E+02 -0.83005680633E+02  0.94787528938E+02  0.47000000000E+01 0.  1.
         11    1    4    4    0    0  0.11122003188E+02 -0.24639653161E+02 -0.48995460157E+02  0.55958614876E+02  0.00000000000E+00 0. -1.
        -12    1    4    4    0    0  0.12787752040E+03 -0.87647818161E+02 -0.46799981426E+02  0.16194146632E+03  0.00000000000E+00 0.  1.
</event>
<event>
12    1  0.8219652E-002  0.1975124E+03  0.7818608E-02  0.1152015E+00
         21   -1    0    0  501  502  0.00000000000E+00  0.00000000000E+00  0.12015136468E+04  0.12015136468E+04  0.00000000000E+00 0. -1.
         21   -1    0    0  502  503 -0.00000000000E+00 -0.00000000000E+00 -0.39401257775E+02  0.39401257775E+02  0.00000000000E+00 0. -1.
         -6    2    1    2    0  503  0.75823036937E+01  0.96313889965E+02  0.84451103607E+03  0.86730044242E+03  0.17227103831E+03 0.  0.
        -24    2    3    3    0    0  0.13798172268E+02  0.48788369224E+02  0.20216720813E+03  0.22315372354E+03  0.79720196676E+02 0.  0.
          6    2    1    2  501    0 -0.75823036937E+01 -0.96313889965E+02  0.31760135291E+03  0.37361446212E+03  0.17141554831E+03 0.  0.
         24    2    5    5    0    0 -0.64664728403E+02 -0.92180566643E+02  0.20280823667E+03  0.24525934103E+03  0.79637802177E+02 0.  0.
          5    1    5    5  501    0  0.57082424709E+02 -0.41333233216E+01  0.11479311624E+03  0.12835512109E+03  0.47000000000E+01 0. -1.
        -13    1    6    6    0    0 -0.41167641371E+02 -0.24128246544E+02  0.14585209220E+03  0.15345937500E+03  0.00000000000E+00 0.  1.
         14    1    6    6    0    0 -0.23497087032E+02 -0.68052320100E+02  0.56956144472E+02  0.91799966030E+02  0.00000000000E+00 0. -1.
         -5    1    3    3    0  503 -0.62158685742E+01  0.47525520741E+02  0.64234382794E+03  0.64414671887E+03  0.47000000000E+01 0.  1.
         11    1    4    4    0    0 -0.26697763981E+02  0.72665307617E+00  0.31590186802E+02  0.41367118928E+02  0.00000000000E+00 0. -1.
        -12    1    4    4    0    0  0.40495936249E+02  0.48061716148E+02  0.17057702133E+03  0.18178660462E+03  0.00000000000E+00 0.  1.
</event>
<event>
12    1  0.8219652E-002  0.2534148E+03  0.7818608E-02  0.1111420E+00
         21   -1    0    0  501  502  0.00000000000E+00  0.00000000000E+00  0.85215383032E+03  0.85215383032E+03  0.00000000000E+00 0. -1.
         21   -1    0    0  502  503 -0.00000000000E+00 -0.00000000000E+00 -0.75603765007E+02  0.75603765007E+02  0.00000000000E+00 0. -1.
         -6    2    1    2    0  503 -0.41816781825E+02 -0.17903952701E+03  0.43255629262E+03  0.50049796037E+03  0.17201589047E+03 0.  0.
        -24    2    3    3    0    0  0.34053358335E+02 -0.10516180495E+03  0.17615650944E+03  0.22305042515E+03  0.80633367209E+02 0.  0.
          6    2    1    2  501    0  0.41816781825E+02  0.17903952701E+03  0.34399377269E+03  0.42725963496E+03  0.17439978366E+03 0.  0.
         24    2    5    5    0    0  0.20884159447E+02  0.34489331119E+02  0.21610487258E+03  0.23306747605E+03  0.77417506805E+02 0.  0.
          5    1    5    5  501    0  0.20932622377E+02  0.14455019589E+03  0.12788890011E+03  0.19419215891E+03  0.47000000000E+01 0. -1.
        -11    1    6    6    0    0 -0.20251425754E+02  0.14187523150E+02  0.20392265792E+02  0.32050749793E+02  0.00000000000E+00 0.  1.
         12    1    6    6    0    0  0.41135585201E+02  0.20301807969E+02  0.19571260679E+03  0.20101672626E+03  0.00000000000E+00 0. -1.
         -5    1    3    3    0  503 -0.75870140160E+02 -0.73877722056E+02  0.25639978318E+03  0.27744753522E+03  0.47000000000E+01 0.  1.
         11    1    4    4    0    0 -0.22146601328E+02 -0.36192262513E+02  0.30070897557E+02  0.52005871747E+02  0.00000000000E+00 0. -1.
        -12    1    4    4    0    0  0.56199959663E+02 -0.68969542437E+02  0.14608561188E+03  0.17104455340E+03  0.00000000000E+00 0.  1.
</event>
<event>
12    1  0.8219652E-002  0.1789134E+03  0.7818608E-02  0.1170000E+00
         21   -1    0    0  501  502  0.00000000000E+00  0.00000000000E+00  0.24157340329E+03  0.24157340329E+03  0.00000000000E+00 0.  1.
         21   -1    0    0  502  503 -0.00000000000E+00 -0.00000000000E+00 -0.12915076730E+03  0.12915076730E+03  0.00000000000E+00 0. -1.
         -6    2    1    2    0  503 -0.98184527902E+01 -0.48121903709E+02  0.58689983152E+02  0.18391628855E+03  0.16723805619E+03 0.  0.
        -24    2    3    3    0    0 -0.58551559912E+02  0.86173825686E+01  0.28457723738E+02  0.10310575800E+03  0.79488432133E+02 0.  0.
          6    2    1    2  501    0  0.98184527902E+01  0.48121903709E+02  0.53732652838E+02  0.18680788204E+03  0.17204030685E+03 0.  0.
         24    2    5    5    0    0  0.59389361501E+02  0.21644780317E+02 -0.10595632902E+02  0.10125946651E+03  0.78394000712E+02 0.  0.
          5    1    5    5  501    0 -0.49570908711E+02  0.26477123392E+02  0.64328285740E+02  0.85548415531E+02  0.47000000000E+01 0. -1.
        -11    1    6    6    0    0 -0.14494645058E+02  0.22552959381E+02 -0.32600993375E+01  0.27006646587E+02  0.00000000000E+00 0.  1.
         12    1    6    6    0    0  0.73884006559E+02 -0.90817906304E+00 -0.73355335648E+01  0.74252819927E+02  0.00000000000E+00 0. -1.
         -5    1    3    3    0  503  0.48733107121E+02 -0.56739286278E+02  0.30232259414E+02  0.80810530541E+02  0.47000000000E+01 0.  1.
         11    1    4    4    0    0 -0.29957278607E+02 -0.99366855609E+01 -0.24617532194E+02  0.40027479970E+02  0.00000000000E+00 0. -1.
        -12    1    4    4    0    0 -0.28594281305E+02  0.18554068130E+02  0.53075255932E+02  0.63078278034E+02  0.00000000000E+00 0.  1.
</event>
<event>
12    1  0.8219652E-002  0.1891489E+03  0.7818608E-02  0.1160986E+00
         21   -1    0    0  503  502  0.00000000000E+00  0.00000000000E+00  0.14719046421E+03  0.14719046421E+03  0.00000000000E+00 0.  1.
         21   -1    0    0  501  503 -0.00000000000E+00 -0.00000000000E+00 -0.58781533502E+03  0.58781533502E+03  0.00000000000E+00 0. -1.
          6    2    1    2  501    0 -0.24687309123E+02 -0.54824833676E+02 -0.50384873675E+03  0.53557018829E+03  0.17133782839E+03 0.  0.
         24    2    3    3    0    0 -0.37374710604E+02 -0.91275495661E+02 -0.26478716491E+03  0.29336749209E+03  0.78893330594E+02 0.  0.
         -6    2    1    2    0  502  0.24687309123E+02  0.54824833676E+02  0.63223865933E+02  0.19943561094E+03  0.17933789356E+03 0.  0.
        -24    2    5    5    0    0  0.29838331345E+02  0.10101768765E+03  0.77060052872E+02  0.15071351269E+03  0.75375141282E+02 0.  0.
          5    1    3    3  501    0  0.12687401481E+02  0.36450661985E+02 -0.23906157184E+03  0.24220269620E+03  0.47000000000E+01 0. -1.
        -11    1    4    4    0    0 -0.35395141965E+01 -0.55950644047E+02 -0.57190642673E+02  0.80086030863E+02  0.00000000000E+00 0.  1.
         12    1    4    4    0    0 -0.33835196408E+02 -0.35324851614E+02 -0.20759652224E+03  0.21328146123E+03  0.00000000000E+00 0. -1.
         -5    1    5    5    0  502 -0.51510222215E+01 -0.46192853978E+02 -0.13836186939E+02  0.48722098247E+02  0.47000000000E+01 0.  1.
         13    1    6    6    0    0 -0.24170223884E+02  0.48507908189E+02  0.32213189588E+02  0.63046859262E+02  0.00000000000E+00 0. -1.
        -14    1    6    6    0    0  0.54008555229E+02  0.52509779466E+02  0.44846863284E+02  0.87666653431E+02  0.00000000000E+00 0.  1.
</event>
<event>
12    1  0.8219652E-002  0.1849333E+03  0.7818608E-02  0.1165015E+00
         21   -1    0    0  503  502  0.00000000000E+00  0.00000000000E+00  0.11056484641E+04  0.11056484641E+04  0.00000000000E+00 0. -1.
         21   -1    0    0  501  503 -0.00000000000E+00 -0.00000000000E+00 -0.65523673805E+02  0.65523673805E+02  0.00000000000E+00 0. -1.
          6    2    1    2  501    0 -0.39444778112E+02 -0.51532824835E+02  0.91780414190E+02  0.20645575462E+03  0.17317277970E+03 0.  0.
         24    2    3    3    0    0 -0.38387964302E+02 -0.92796464286E+02  0.73849108567E+02  0.16120725721E+03  0.10222166773E+03 0.  0.
         -6    2    1    2    0  502  0.39444778112E+02  0.51532824835E+02  0.94834437606E+03  0.96471638325E+03  0.16464847992E+03 0.  0.
        -24    2    5    5    0    0  0.34657536601E+01 -0.11037226240E+02  0.24178409049E+03  0.25446359118E+03  0.78475098028E+02 0.  0.
          5    1    3    3  501    0 -0.10568138100E+01  0.41263639451E+02  0.17931305623E+02  0.45248497406E+02  0.47000000000E+01 0. -1.
        -11    1    4    4    0    0 -0.33597065657E+02  0.12232042397E+02  0.32212706275E+02  0.48125296129E+02  0.00000000000E+00 0.  1.
         12    1    4    4    0    0 -0.47908986453E+01 -0.10502850668E+03  0.41636402292E+02  0.11308196108E+03  0.00000000000E+00 0. -1.
         -5    1    5    5    0  502  0.35979024452E+02  0.62570051075E+02  0.70656028557E+03  0.71025279207E+03  0.47000000000E+01 0.  1.
         13    1    6    6    0    0  0.12645263921E+02  0.32799777857E+01  0.23620306728E+03  0.23656405041E+03  0.00000000000E+00 0. -1.
        -14    1    6    6    0    0 -0.91795102611E+01 -0.14317204025E+02  0.55810232116E+01  0.17899540771E+02  0.00000000000E+00 0.  1.
</event>
<event>
12    1  0.8219652E-002  0.2376076E+03  0.7818608E-02  0.1121690E+00
         21   -1    0    0  501  502  0.00000000000E+00  0.00000000000E+00  0.10444906393E+03  0.10444906393E+03  0.00000000000E+00 0. -1.
         21   -1    0    0  502  503 -0.00000000000E+00 -0.00000000000E+00 -0.67477478999E+03  0.67477478999E+03  0.00000000000E+00 0. -1.
         -6    2    1    2    0  503  0.15914392942E+03 -0.25909934892E+02 -0.46230221360E+03  0.51978908580E+03  0.17452576320E+03 0.  0.
        -24    2    3    3    0    0  0.18536102308E+03 -0.63626514109E+01 -0.42157365028E+03  0.46734541925E+03  0.79298209756E+02 0.  0.
          6    2    1    2  501    0 -0.15914392942E+03  0.25909934892E+02 -0.10802351246E+03  0.25943476812E+03  0.17216040389E+03 0.  0.
         24    2    5    5    0    0 -0.43655012192E+02  0.60350756952E+02 -0.18530479288E+02  0.10925170245E+03  0.77746909081E+02 0.  0.
          5    1    5    5  501    0 -0.11548891723E+03 -0.34440822060E+02 -0.89493033177E+02  0.15018306567E+03  0.47000000000E+01 0. -1.
        -13    1    6    6    0    0  0.58466259338E+01  0.57238161382E+02 -0.15360466308E+02  0.59551104762E+02  0.00000000000E+00 0.  1.
         14    1    6    6    0    0 -0.49501638126E+02  0.31125955698E+01 -0.31700129801E+01  0.49700597689E+02  0.00000000000E+00 0. -1.
         -5    1    3    3    0  503 -0.26217093659E+02 -0.19547283481E+02 -0.40728563320E+02  0.52443666553E+02  0.47000000000E+01 0.  1.
         13    1    4    4    0    0  0.78009225239E+02  0.13282047630E+02 -0.26447449212E+03  0.27605906795E+03  0.00000000000E+00 0. -1.
        -14    1    4    4    0    0  0.10735179784E+03 -0.19644699041E+02 -0.15709915815E+03  0.19128635130E+03  0.00000000000E+00 0.  1.
</event>
<event>
12    1  0.8219652E-002  0.2148193E+03  0.7818608E-02  0.1138020E+00
         21   -1    0    0  501  502  0.00000000000E+00  0.00000000000E+00  0.16383209985E+03  0.16383209985E+03  0.00000000000E+00 0.  1.
         21   -1    0    0  502  503 -0.00000000000E+00 -0.00000000000E+00 -0.32915731116E+03  0.32915731116E+03  0.00000000000E+00 0.  1.
         -6    2    1    2    0  503  0.97020645286E+02 -0.83762136209E+02 -0.17789317117E+03  0.27891451811E+03  0.17238975315E+03 0.  0.
        -24    2    3    3    0    0  0.50673246422E+02 -0.11640012686E+03 -0.90833501159E+02  0.17492030694E+03  0.78927950766E+02 0.  0.
          6    2    1    2  501    0 -0.97020645286E+02  0.83762136209E+02  0.12567959861E+02  0.21407489289E+03  0.17100001484E+03 0.  0.
         24    2    5    5    0    0 -0.83627263082E+02  0.12084106425E+03  0.31192562225E+02  0.17022064105E+03  0.80037545958E+02 0.  0.
          5    1    5    5  501    0 -0.13393382204E+02 -0.37078928037E+02 -0.18624602364E+02  0.43854251840E+02  0.47000000000E+01 0. -1.
        -13    1    6    6    0    0 -0.85487875433E+02  0.85764452801E+02  0.49248891599E+02  0.13072555807E+03  0.00000000000E+00 0.  1.
         14    1    6    6    0    0  0.18606123510E+01  0.35076611445E+02 -0.18056329374E+02  0.39495082976E+02  0.00000000000E+00 0. -1.
         -5    1    3    3    0  503  0.46347398864E+02  0.32637990649E+02 -0.87059670011E+02  0.10399421117E+03  0.47000000000E+01 0.  1.
         11    1    4    4    0    0  0.53005135638E+01 -0.97140545155E+02 -0.43447857894E+02  0.10654622148E+03  0.00000000000E+00 0. -1.
        -12    1    4    4    0    0  0.45372732858E+02 -0.19259581703E+02 -0.47385643265E+02  0.68374085457E+02  0.00000000000E+00 0.  1.
</event>
<event>
12    1  0.8219652E-002  0.2088885E+03  0.7818608E-02  0.1143068E+00
         21   -1    0    0  503  502  0.00000000000E+00  0.00000000000E+00  0.10369845776E+03  0.10369845776E+03  0.00000000000E+00 0. -1.
         21   -1    0    0  501  503 -0.00000000000E+00 -0.00000000000E+00 -0.42331456813E+03  0.42331456813E+03  0.00000000000E+00 0. -1.
          6    2    1    2  501    0  0.21252573679E+02  0.11133504969E+03 -0.12315636599E+03  0.24249106270E+03  0.17546298706E+03 0.  0.
         24    2    3    3    0    0 -0.44906645720E+02  0.35985472617E+02 -0.22007830617E+02  0.99985914429E+02  0.78748189861E+02 0.  0.
         -6    2    1    2    0  502 -0.21252573679E+02 -0.11133504969E+03 -0.19645974439E+03  0.28452196319E+03  0.17178227846E+03 0.  0.
        -24    2    5    5    0    0  0.14712245766E+02 -0.79895521587E+02 -0.19242748706E+03  0.23635287285E+03  0.11061011790E+03 0.  0.
          5    1    3    3  501    0  0.66159219399E+02  0.75349577070E+02 -0.10114853538E+03  0.14250514827E+03  0.47000000000E+01 0. -1.
        -11    1    4    4    0    0 -0.34623755674E+02 -0.15533988227E+02 -0.27928022237E+02  0.47117763882E+02  0.00000000000E+00 0.  1.
         12    1    4    4    0    0 -0.10282890046E+02  0.51519460844E+02  0.59201916205E+01  0.52868150546E+02  0.00000000000E+00 0. -1.
         -5    1    5    5    0  502 -0.35964819445E+02 -0.31439528100E+02 -0.40322573257E+01  0.48169090338E+02  0.47000000000E+01 0.  1.
         11    1    6    6    0    0  0.36192602248E+02 -0.89351649414E+02 -0.92135241396E+02  0.13335113204E+03  0.00000000000E+00 0. -1.
        -12    1    6    6    0    0 -0.21480356481E+02  0.94561278277E+01 -0.10029224567E+03  0.10300174080E+03  0.00000000000E+00 0.  1.
</event>
<event>
12    1  0.8219652E-002  0.1747292E+03  0.7818608E-02  0.1173378E+00
         21   -1    0    0  501  502  0.00000000000E+00  0.00000000000E+00  0.98556922703E+03  0.98556922703E+03  0.00000000000E+00 0. -1.
         21   -1    0    0  502  503 -0.00000000000E+00 -0.00000000000E+00 -0.11217880053E+03  0.11217880053E+03  0.00000000000E+00 0. -1.
         -6    2    1    2    0  503  0.14127980157E+02 -0.32454794195E+02 -0.30528251662E+02  0.17737604023E+03  0.17110631785E+03 0.  0.
        -24    2    3    3    0    0  0.25169864277E+02 -0.72825961836E+02 -0.57932455983E+02  0.12712830599E+03  0.82875170845E+02 0.  0.
          6    2    1    2  501    0 -0.14127980157E+02  0.32454794195E+02  0.90391867816E+03  0.92037198732E+03  0.16959570994E+03 0.  0.
         24    2    5    5    0    0  0.20026784917E+02 -0.95852485744E+01  0.22403047978E+03  0.23831336414E+03  0.78170675759E+02 0.  0.
          5    1    5    5  501    0 -0.34154765075E+02  0.42040042769E+02  0.67988819838E+03  0.68205862319E+03  0.47000000000E+01 0. -1.
        -11    1    6    6    0    0  0.17995426344E+02  0.29854604416E+02  0.58161173618E+02  0.67807484032E+02  0.00000000000E+00 0.  1.
         12    1    6    6    0    0  0.20313585730E+01 -0.39439852990E+02  0.16586930617E+03  0.17050588010E+03  0.00000000000E+00 0. -1.
         -5    1    3    3    0  503 -0.11041884120E+02  0.40371167641E+02  0.27404204322E+02  0.50247734239E+02  0.47000000000E+01 0.  1.
         13    1    4    4    0    0  0.25277376028E+02 -0.88619179292E+02 -0.33536515157E+02  0.98066316981E+02  0.00000000000E+00 0. -1.
        -14    1    4    4    0    0 -0.10751175039E+00  0.15793217456E+02 -0.24395940826E+02  0.29061989010E+02  0.00000000000E+00 0.  1.
</event>
<event>
12    1  0.8219652E-002  0.1990226E+03  0.7818608E-02  0.1150610E+00
         21   -1    0    0  503  502  0.00000000000E+00  0.00000000000E+00  0.14221628231E+03  0.14221628231E+03  0.00000000000E+00 0. -1.
         21   -1    0    0  501  503 -0.00000000000E+00 -0.00000000000E+00 -0.31860730165E+03  0.31860730165E+03  0.00000000000E+00 0.  1.
          6    2    1    2  501    0  0.13109361305E+01 -0.10098582788E+03 -0.17026102196E+03  0.26191376590E+03  0.17149387506E+03 0.  0.
         24    2    3    3    0    0 -0.28228187747E+02 -0.22382341990E+02 -0.23080241721E+02  0.92398752094E+02  0.81896471317E+02 0.  0.
         -6    2    1    2    0  502 -0.13109361305E+01  0.10098582788E+03 -0.61299973824E+01  0.19890981807E+03  0.17125327112E+03 0.  0.
        -24    2    5    5    0    0  0.55490437730E+02  0.10153221570E+03 -0.18554734301E+01  0.14175165009E+03  0.81866403464E+02 0.  0.
          5    1    3    3  501    0  0.29539123877E+02 -0.78603485890E+02 -0.14718078024E+03  0.16951501380E+03  0.47000000000E+01 0. -1.
        -13    1    4    4    0    0 -0.18895082410E+02 -0.37207905774E+02 -0.46933843657E+02  0.62803169281E+02  0.00000000000E+00 0.  1.
         14    1    4    4    0    0 -0.93331053365E+01  0.14825563784E+02  0.23853601935E+02  0.29595582813E+02  0.00000000000E+00 0. -1.
         -5    1    5    5    0  502 -0.56801373860E+02 -0.54638781906E+00 -0.42745239522E+01  0.57158167982E+02  0.47000000000E+01 0.  1.
         13    1    6    6    0    0  0.47522558139E+00  0.18055897242E+02  0.31540715911E+02  0.36346361919E+02  0.00000000000E+00 0. -1.
        -14    1    6    6    0    0  0.55015212148E+02  0.83476318456E+02 -0.33396189341E+02  0.10540528817E+03  0.00000000000E+00 0.  1.
</event>
<event>
12    1  0.8219652E-002  0.1989231E+03  0.7818608E-02  0.1151554E+00
         21   -1    0    0  503  502  0.00000000000E+00  0.00000000000E+00  0.51203561724E+02  0.51203561724E+02  0.00000000000E+00 0.  1.
         21   -1    0    0  501  503 -0.00000000000E+00 -0.00000000000E+00 -0.79992746322E+03  0.79992746322E+03  0.00000000000E+00 0.  1.
          6    2    1    2  501    0  0.21963485172E+02  0.94767827181E+02 -0.46966626724E+03  0.50843062355E+03  0.16867708981E+03 0.  0.
         24    2    3    3    0    0 -0.52971690931E+02  0.48408382464E+02 -0.27229908742E+03  0.29223540528E+03  0.78136851456E+02 0.  0.
         -6    2    1    2    0  502 -0.21963485172E+02 -0.94767827181E+02 -0.27905763425E+03  0.34270040139E+03  0.17351387878E+03 0.  0.
        -24    2    5    5    0    0 -0.38590530020E+02 -0.95116972245E+02 -0.29313154201E+03  0.32041261545E+03  0.78750719379E+02 0.  0.
          5    1    3    3  501    0  0.74935176103E+02  0.46359444717E+02 -0.19736717982E+03  0.21619521827E+03  0.47000000000E+01 0. -1.
        -13    1    4    4    0    0 -0.64275368362E+02  0.35840381253E+02 -0.13375430240E+03  0.15266325464E+03  0.00000000000E+00 0.  1.
         14    1    4    4    0    0  0.11303677431E+02  0.12568001211E+02 -0.13854478502E+03  0.13957215064E+03  0.00000000000E+00 0. -1.
         -5    1    5    5    0  502  0.16627044848E+02  0.34914506387E+00  0.14073907757E+02  0.22287785942E+02  0.47000000000E+01 0.  1.
         11    1    6    6    0    0 -0.54930324644E+02 -0.50176554131E+02 -0.22644421726E+03  0.23835270227E+03  0.00000000000E+00 0. -1.
        -12    1    6    6    0    0  0.16339794624E+02 -0.44940418114E+02 -0.66687324750E+02  0.82059913179E+02  0.00000000000E+00 0.  1.
</event>
<event>
12    1  0.8219652E-002  0.1947224E+03  0.7818608E-02  0.1154367E+00
         21   -1    0    0  503  502  0.00000000000E+00  0.00000000000E+00  0.95939006457E+02  0.95939006457E+02  0.00000000000E+00 0.  1.
         21   -1    0    0  501  503 -0.00000000000E+00 -0.00000000000E+00 -0.11265650466E+04  0.11265650466E+04  0.00000000000E+00 0.  1.
          6    2    1    2  501    0  0.81173517840E+02  0.35953268643E+02 -0.10079077348E+04  0.10264608829E+04  0.17280672674E+03 0.  0.
         24    2    3    3    0    0  0.94405374031E+02  0.72860227857E+02 -0.60583535348E+03  0.62245408167E+03  0.78686852795E+02 0.  0.
         -6    2    1    2    0  502 -0.81173517840E+02 -0.35953268643E+02 -0.22718305350E+02  0.19604317012E+03  0.17330616155E+03 0.  0.
        -24    2    5    5    0    0 -0.70270081631E+02 -0.89596167997E+02 -0.24068336577E+02  0.14108538490E+03  0.79752387519E+02 0.  0.
          5    1    3    3  501    0 -0.13231856190E+02 -0.36906959214E+02 -0.40207238127E+03  0.40400680122E+03  0.47000000000E+01 0. -1.
        -13    1    4    4    0    0  0.38916102081E+01  0.31873310224E+01 -0.22021372464E+03  0.22027116976E+03  0.00000000000E+00 0.  1.
         14    1    4    4    0    0  0.90513763823E+02  0.69672896834E+02 -0.38562162885E+03  0.40218291191E+03  0.00000000000E+00 0. -1.
         -5    1    5    5    0  502 -0.10903436210E+02  0.53642899355E+02  0.13500312265E+01  0.54957785224E+02  0.47000000000E+01 0.  1.
         11    1    6    6    0    0 -0.53518905272E+01 -0.52564725985E+02 -0.37971633706E+02  0.65065644670E+02  0.00000000000E+00 0. -1.
        -12    1    6    6    0    0 -0.64918191103E+02 -0.37031442013E+02  0.13903297129E+02  0.76019740231E+02  0.00000000000E+00 0.  1.
</event>
<event>
12    1  0.8219652E-002  0.1867454E+03  0.7818608E-02  0.1161650E+00
         21   -1    0    0  503  502  0.00000000000E+00  0.00000000000E+00  0.17011331680E+03  0.17011331680E+03  0.00000000000E+00 0. -1.
         21   -1    0    0  501  503 -0.00000000000E+00 -0.00000000000E+00 -0.21585764928E+03  0.21585764928E+03  0.00000000000E+00 0. -1.
          6    2    1    2  501    0  0.90441421635E+01  0.71458598021E+02  0.22378367911E+02  0.18808143859E+03  0.17229541042E+03 0.  0.
         24    2    3    3    0    0 -0.10771431336E+01  0.10967185981E+03  0.42379954840E+02  0.14352981379E+03  0.82314456830E+02 0.  0.
         -6    2    1    2    0  502 -0.90441421635E+01 -0.71458598021E+02 -0.68122700387E+02  0.19788952749E+03  0.17126422582E+03 0.  0.
        -24    2    5    5    0    0 -0.90377910459E+00 -0.64920408441E+02 -0.11234753327E+03  0.15220649697E+03  0.79557358168E+02 0.  0.
          5    1    3    3  501    0  0.10121285297E+02 -0.38213261789E+02 -0.20001586930E+02  0.44551624800E+02  0.47000000000E+01 0. -1.
        -13    1    4    4    0    0  0.20038920327E+02  0.97285712235E+02  0.57784532880E+01  0.99496023314E+02  0.00000000000E+00 0.  1.
         14    1    4    4    0    0 -0.21116063461E+02  0.12386147574E+02  0.36601501552E+02  0.44033790476E+02  0.00000000000E+00 0. -1.
         -5    1    5    5    0  502 -0.81403630590E+01 -0.65381895793E+01  0.44224832887E+02  0.45683030521E+02  0.47000000000E+01 0.  1.
         13    1    6    6    0    0 -0.24448197558E+02  0.82614747404E+01 -0.28936610006E+02  0.38772331983E+02  0.00000000000E+00 0. -1.
        -14    1    6    6    0    0  0.23544418453E+02 -0.73181883182E+02 -0.83410923268E+02  0.11343416499E+03  0.00000000000E+00 0.  1.
</event>
<event>
12    1  0.8219652E-002  0.2099989E+03  0.7818608E-02  0.1141576E+00
         21   -1    0    0  501  502  0.00000000000E+00  0.00000000000E+00  0.91340362127E+03  0.91340362127E+03  0.00000000000E+00 0. -1.
         21   -1    0    0  502  503 -0.00000000000E+00 -0.00000000000E+00 -0.51917046222E+02  0.51917046222E+02  0.00000000000E+00 0. -1.
         -6    2    1    2    0  503  0.20126640814E+02  0.11924436292E+03  0.30277849854E+03  0.36845027923E+03  0.17162892918E+03 0.  0.
        -24    2    3    3    0    0 -0.20472874212E+02  0.41946275134E+02  0.59799270619E+02  0.11021722520E+03  0.79957835065E+02 0.  0.
          6    2    1    2  501    0 -0.20126640814E+02 -0.11924436292E+03  0.55870807651E+03  0.59687038826E+03  0.17168356317E+03 0.  0.
         24    2    5    5    0    0 -0.44510487818E+02 -0.44438513237E+01  0.27004502770E+03  0.28522607946E+03  0.80178975284E+02 0.  0.
          5    1    5    5  501    0  0.24383847003E+02 -0.11480051160E+03  0.28866304880E+03  0.31164430879E+03  0.47000000000E+01 0. -1.
        -11    1    6    6    0    0 -0.60166124567E+02 -0.24967340100E+02  0.17473165285E+03  0.18647917075E+03  0.00000000000E+00 0.  1.
         12    1    6    6    0    0  0.15655636749E+02  0.20523488776E+02  0.95313374858E+02  0.98746908713E+02  0.00000000000E+00 0. -1.
         -5    1    3    3    0  503  0.40599515027E+02  0.77298087788E+02  0.24297922792E+03  0.25823305403E+03  0.47000000000E+01 0.  1.
         13    1    4    4    0    0  0.16872220727E+02  0.42423463833E+02  0.79897404834E+01  0.46349304944E+02  0.00000000000E+00 0. -1.
        -14    1    4    4    0    0 -0.37345094939E+02 -0.47718869911E+00  0.51809530135E+02  0.63867920257E+02  0.00000000000E+00 0.  1.
</event>
<event>
12    1  0.8219652E-002  0.1792645E+03  0.7818608E-02  0.1168680E+00
         21   -1    0    0  503  502  0.00000000000E+00  0.00000000000E+00  0.48407196614E+03  0.48407196614E+03  0.00000000000E+00 0. -1.
         21   -1    0    0  501  503 -0.00000000000E+00 -0.00000000000E+00 -0.71454183555E+03  0.71454183555E+03  0.00000000000E+00 0. -1.
          6    2    1    2  501    0  0.50676809329E+02 -0.76779153251E+00 -0.68611200969E+03  0.70897563784E+03  0.17125430416E+03 0.  0.
         24    2    3    3    0    0  0.12968706048E+02  0.22735081902E+02 -0.17020676430E+03  0.19113917877E+03  0.82938361222E+02 0.  0.
         -6    2    1    2    0  502 -0.50676809329E+02  0.76779153251E+00  0.45564214028E+03  0.48963816385E+03  0.17195069929E+03 0.  0.
        -24    2    5    5    0    0 -0.48358326746E+02 -0.60650864301E+02  0.23346072584E+03  0.25906431978E+03  0.81199483773E+02 0.  0.
          5    1    3    3  501    0  0.37708103281E+02 -0.23502873434E+02 -0.51590524539E+03  0.51783645906E+03  0.47000000000E+01 0. -1.
        -13    1    4    4    0    0  0.31749261607E+02  0.40658712909E+02 -0.14880777751E+03  0.15749571802E+03  0.00000000000E+00 0.  1.
         14    1    4    4    0    0 -0.18780555559E+02 -0.17923631007E+02 -0.21398986794E+02  0.33643460752E+02  0.00000000000E+00 0. -1.
         -5    1    5    5    0  502 -0.23184825822E+01  0.61418655834E+02  0.22218141444E+03  0.23057384407E+03  0.47000000000E+01 0.  1.
         11    1    6    6    0    0  0.36406942649E+01  0.22540389464E+01  0.11574147743E+03  0.11582065854E+03  0.00000000000E+00 0. -1.
        -12    1    6    6    0    0 -0.51999021011E+02 -0.62904903247E+02  0.11771924841E+03  0.14324366124E+03  0.00000000000E+00 0.  1.
</event>
<event>
12    1  0.8219652E-002  0.1886963E+03  0.7818608E-02  0.1159937E+00
         21   -1    0    0  501  502  0.00000000000E+00  0.00000000000E+00  0.17755920160E+03  0.17755920160E+03  0.00000000000E+00 0. -1.
         21   -1    0    0  502  503 -0.00000000000E+00 -0.00000000000E+00 -0.41441960722E+03  0.41441960722E+03  0.00000000000E+00 0. -1.
         -6    2    1    2    0  503  0.12353213326E+02 -0.77118777928E+02 -0.33155541068E+03  0.38085456896E+03  0.17035640452E+03 0.  0.
        -24    2    3    3    0    0  0.50390705241E+02 -0.40131108012E+02 -0.10205846267E+03  0.14525771486E+03  0.80834057918E+02 0.  0.
          6    2    1    2  501    0 -0.12353213326E+02  0.77118777928E+02  0.94695005061E+02  0.21112423986E+03  0.17177424977E+03 0.  0.
         24    2    5    5    0    0  0.66154196458E+01  0.42838787317E+01 -0.62737640129E+01  0.85102361180E+02  0.84504061260E+02 0.  0.
          5    1    5    5  501    0 -0.18968632972E+02  0.72834899196E+02  0.10096876907E+03  0.12602187868E+03  0.47000000000E+01 0. -1.
        -13    1    6    6    0    0 -0.13806912412E+02  0.37835727808E+02 -0.17993388302E+02  0.44112754978E+02  0.00000000000E+00 0.  1.
         14    1    6    6    0    0  0.20422332057E+02 -0.33551849077E+02  0.11719624289E+02  0.40989606202E+02  0.00000000000E+00 0. -1.
         -5    1    3    3    0  503 -0.38037491915E+02 -0.36987669916E+02 -0.22949694801E+03  0.23559685410E+03  0.47000000000E+01 0.  1.
         13    1    4    4    0    0  0.40842454436E+02 -0.28688790683E+01 -0.98448093981E+02  0.10662252933E+03  0.00000000000E+00 0. -1.
        -14    1    4    4    0    0  0.95482508057E+01 -0.37262228943E+02 -0.36103686872E+01  0.38635185535E+02  0.00000000000E+00 0.  1.
</event>
<event>
12    1  0.8219652E-002  0.1885930E+03  0.7818608E-02  0.1159815E+00
         21   -1    0    0  503  502  0.00000000000E+00  0.00000000000E+00  0.43572014244E+03  0.43572014244E+03  0.00000000000E+00 0.  1.
         21   -1    0    0  501  503 -0.00000000000E+00 -0.00000000000E+00 -0.10152152017E+03  0.10152152017E+03  0.00000000000E+00 0. -1.
          6    2    1    2  501    0  0.40518085064E+02  0.68136725981E+02  0.47627213499E+02  0.19418117052E+03  0.17074439046E+03 0.  0.
         24    2    3    3    0    0  0.36874349744E+02  0.98618207544E+02 -0.28154650030E+01  0.13494476837E+03  0.84361692366E+02 0.  0.
         -6    2    1    2    0  502 -0.40518085064E+02 -0.68136725981E+02  0.28657140877E+03  0.34306049209E+03  0.17112276374E+03 0.  0.
        -24    2    5    5    0    0  0.18251839287E+02 -0.47283652196E+02  0.76493304102E+02  0.12387186384E+03  0.83211415548E+02 0.  0.
          5    1    3    3  501    0  0.36437353197E+01 -0.30481481562E+02  0.50442678502E+02  0.59236402151E+02  0.47000000000E+01 0. -1.
        -11    1    4    4    0    0  0.47756098683E+01  0.15892542362E+02  0.34809513245E+02  0.38562696543E+02  0.00000000000E+00 0.  1.
         12    1    4    4    0    0  0.32098739876E+02  0.82725665182E+02 -0.37624978248E+02  0.96382071826E+02  0.00000000000E+00 0. -1.
         -5    1    5    5    0  502 -0.58769924351E+02 -0.20853073786E+02  0.21007810466E+03  0.21918862825E+03  0.47000000000E+01 0.  1.
         11    1    6    6    0    0 -0.11329192676E+02  0.57459817706E+01 -0.11383003448E+02  0.17056954027E+02  0.00000000000E+00 0. -1.
        -12    1    6    6    0    0  0.29581031963E+02 -0.53029633966E+02  0.87876307550E+02  0.10681490982E+03  0.00000000000E+00 0.  1.
</event>
<event>
12    1  0.8219652E-002  0.1935525E+03  0.7818608E-02  0.1155464E+00
         21   -1    0    0  503  502  0.00000000000E+00  0.00000000000E+00  0.33201701658E+03  0.33201701658E+03  0.00000000000E+00 0. -1.
         21   -1    0    0  501  503 -0.00000000000E+00 -0.00000000000E+00 -0.30214668585E+03  0.30214668585E+03  0.00000000000E+00 0.  1.
          6    2    1    2  501    0  0.22917968703E+02  0.86294893557E+02 -0.23633606212E+03  0.30547883056E+03  0.17172809821E+03 0.  0.
         24    2    3    3    0    0  0.39143268518E+02  0.59427080592E+02 -0.24989040773E+03  0.27096868694E+03  0.76909297534E+02 0.  0.
         -6    2    1    2    0  502 -0.22917968703E+02 -0.86294893557E+02  0.26620639286E+03  0.32868487187E+03  0.17086795913E+03 0.  0.
        -24    2    5    5    0    0  0.14022692662E+02 -0.11543900431E+03  0.17061948064E+03  0.22204088733E+03  0.81659958639E+02 0.  0.
          5    1    3    3  501    0 -0.16225299815E+02  0.26867812965E+02  0.13554345608E+02  0.34510143617E+02  0.47000000000E+01 0. -1.
        -13    1    4    4    0    0  0.28415982590E+02 -0.85676597169E+01 -0.12384621850E+03  0.12735289041E+03  0.00000000000E+00 0.  1.
         14    1    4    4    0    0  0.10727285929E+02  0.67994740309E+02 -0.12604418924E+03  0.14361579653E+03  0.00000000000E+00 0. -1.
         -5    1    5    5    0  502 -0.36940661365E+02  0.29144110751E+02  0.95586912215E+02  0.10664398455E+03  0.47000000000E+01 0.  1.
         13    1    6    6    0    0 -0.13338338934E+02 -0.44343512426E+02  0.12487184722E+03  0.13318121717E+03  0.00000000000E+00 0. -1.
        -14    1    6    6    0    0  0.27361031596E+02 -0.71095491882E+02  0.45747633423E+02  0.88859670153E+02  0.00000000000E+00 0.  1.
</event>
<event>
12    1  0.8219652E-002  0.2044572E+03  0.7818608E-02  0.1146103E+00
         21   -1    0    0  501  502  0.00000000000E+00  0.00000000000E+00  0.11989092046E+03  0.11989092046E+03  0.00000000000E+00 0. -1.
         21   -1    0    0  502  503 -0.00000000000E+00 -0.00000000000E+00 -0.35659959752E+03  0.35659959752E+03  0.00000000000E+00 0. -1.
         -6    2    1    2    0  503  0.10226641869E+03  0.39651047201E+02 -0.15527699891E+03  0.25673659332E+03  0.17254595337E+03 0.  0.
        -24    2    3    3    0    0  0.64921435268E+02 -0.24811969591E+02 -0.28867576412E+02  0.10993209606E+03  0.80133028045E+02 0.  0.
          6    2    1    2  501    0 -0.10226641869E+03 -0.39651047201E+02 -0.81431678144E+02  0.21975392466E+03  0.17213379466E+03 0.  0.
         24    2    5    5    0    0 -0.13569325846E+03 -0.40041075736E+02 -0.88488915217E+02  0.18526624085E+03  0.80481946708E+02 0.  0.
          5    1    5    5  501    0  0.33426839772E+02  0.39002853514E+00  0.70572370730E+01  0.34487683809E+02  0.47000000000E+01 0. -1.
        -13    1    6    6    0    0 -0.10134340517E+03 -0.43136158853E+02 -0.24892172744E+02  0.11291959191E+03  0.00000000000E+00 0.  1.
         14    1    6    6    0    0 -0.34349853286E+02  0.30950831177E+01 -0.63596742473E+02  0.72346648944E+02  0.00000000000E+00 0. -1.
         -5    1    3    3    0  503  0.37344983420E+02  0.64463016792E+02 -0.12640942250E+03  0.14680449726E+03  0.47000000000E+01 0.  1.
         13    1    4    4    0    0 -0.98945068278E+01  0.17267657657E+02 -0.89083325941E+01  0.21804395335E+02  0.00000000000E+00 0. -1.
        -14    1    4    4    0    0  0.74815942096E+02 -0.42079627248E+02 -0.19959243818E+02  0.88127700724E+02  0.00000000000E+00 0.  1.
</event>
<event>
12    1  0.8219652E-002  0.1984029E+03  0.7818608E-02  0.1151613E+00
         21   -1    0    0  501  502  0.00000000000E+00  0.00000000000E+00  0.43930726563E+02  0.43930726563E+02  0.00000000000E+00 0.  1.
         21   -1    0    0  502  503 -0.00000000000E+00 -0.00000000000E+00 -0.14487155432E+04  0.14487155432E+04  0.00000000000E+00 0.  1.
         -6    2    1    2    0  503 -0.42271170727E+02 -0.86567697554E+02 -0.11652451187E+04  0.11816109168E+04  0.17066737807E+03 0.  0.
        -24    2    3    3    0    0 -0.90455155091E+02 -0.45012241315E+02 -0.88030430650E+03  0.88961449774E+03  0.79183619498E+02 0.  0.
          6    2    1    2  501    0  0.42271170727E+02  0.86567697554E+02 -0.23953969797E+03  0.31103535299E+03  0.17344424398E+03 0.  0.
         24    2    5    5    0    0 -0.15582786433E+02  0.90233561647E+02 -0.21490269940E+03  0.24787214679E+03  0.82900615581E+02 0.  0.
          5    1    5    5  501    0  0.57853957160E+02 -0.36658640930E+01 -0.24636998573E+02  0.63163206198E+02  0.47000000000E+01 0. -1.
        -11    1    6    6    0    0 -0.21047517306E+02  0.16273904915E+02 -0.75492335678E+01  0.27655540013E+02  0.00000000000E+00 0.  1.
         12    1    6    6    0    0  0.54647308728E+01  0.73959656732E+02 -0.20735346583E+03  0.22021660678E+03  0.00000000000E+00 0. -1.
         -5    1    3    3    0  503  0.48183984364E+02 -0.41555456240E+02 -0.28494081217E+03  0.29199641904E+03  0.47000000000E+01 0.  1.
         11    1    4    4    0    0 -0.42037053140E+02  0.10240485015E+02 -0.16613504353E+03  0.17167653905E+03  0.00000000000E+00 0. -1.
        -12    1    4    4    0    0 -0.48418101951E+02 -0.55252726330E+02 -0.71416926297E+03  0.71793795869E+03  0.00000000000E+00 0.  1.
</event>
<event>
12    1  0.8219652E-002  0.1926440E+03  0.7818608E-02  0.1156369E+00
         21   -1    0    0  503  502  0.00000000000E+00  0.00000000000E+00  0.12255471549E+03  0.12255471549E+03  0.00000000000E+00 0.  1.
         21   -1    0    0  501  503 -0.00000000000E+00 -0.00000000000E+00 -0.62795399849E+03  0.62795399849E+03  0.00000000000E+00 0.  1.
          6    2    1    2  501    0  0.88303612015E+02 -0.27390765422E+00  0.17728269890E+02  0.19345801931E+03  0.17121364070E+03 0.  0.
         24    2    3    3    0    0  0.18439085104E+02  0.57206071213E+02  0.25027819823E+02  0.10257142228E+03  0.79258882531E+02 0.  0.
         -6    2    1    2    0  502 -0.88303612015E+02  0.27390765422E+00 -0.52312755289E+03  0.55705069467E+03  0.16983944455E+03 0.  0.
        -24    2    5    5    0    0 -0.79347991855E+02 -0.47171064413E+02 -0.23903880279E+03  0.26884983340E+03  0.81360128745E+02 0.  0.
          5    1    3    3  501    0  0.69864526911E+02 -0.57479978868E+02 -0.72995499334E+01  0.90886597034E+02  0.47000000000E+01 0. -1.
        -11    1    4    4    0    0  0.26586236294E+02  0.71227860513E+01  0.40994295811E+02  0.49377062798E+02  0.00000000000E+00 0.  1.
         12    1    4    4    0    0 -0.81471511904E+01  0.50083285162E+02 -0.15966475988E+02  0.53194359481E+02  0.00000000000E+00 0. -1.
         -5    1    5    5    0  502 -0.89556201608E+01  0.47444972067E+02 -0.28408875010E+03  0.28820086128E+03  0.47000000000E+01 0.  1.
         11    1    6    6    0    0 -0.39409809244E+02  0.13466874143E+02 -0.43300729592E+02  0.60078639690E+02  0.00000000000E+00 0. -1.
        -12    1    6    6    0    0 -0.39938182610E+02 -0.60637938556E+02 -0.19573807320E+03  0.20877119371E+03  0.00000000000E+00 0.  1.
</event>
<event>
12    1  0.8219652E-002  0.2886547E+03  0.7818608E-02  0.1091253E+00
         21   -1    0    0  501  502  0.00000000000E+00  0.00000000000E+00  0.12676106077E+03  0.12676106077E+03  0.00000000000E+00 0.  1.
         21   -1    0    0  502  503 -0.00000000000E+00 -0.00000000000E+00 -0.11737298363E+04  0.11737298363E+04  0.00000000000E+00 0. -1.
         -6    2    1    2    0  503  0.21798501974E+03  0.72436737955E+02 -0.95546521856E+03  0.99767999528E+03  0.17229927239E+03 0.  0.
        -24    2    3    3    0    0  0.68762787605E+02  0.75576829513E+02 -0.57558547349E+03  0.58950375215E+03  0.75999068362E+02 0.  0.
          6    2    1    2  501    0 -0.21798501974E+03 -0.72436737955E+02 -0.91503556975E+02  0.30281090180E+03  0.17480558192E+03 0.  0.
         24    2    5    5    0    0 -0.41895716576E+02  0.16850181595E+01 -0.37655342086E+02  0.10425814391E+03  0.87713997914E+02 0.  0.
          5    1    5    5  501    0 -0.17608930316E+03 -0.74121756115E+02 -0.53848214889E+02  0.19855275789E+03  0.47000000000E+01 0. -1.
        -13    1    6    6    0    0 -0.43596697099E+02 -0.90952720418E+01  0.17635887308E+02  0.47900109526E+02  0.00000000000E+00 0.  1.
         14    1    6    6    0    0  0.17009805229E+01  0.10780290201E+02 -0.55291229394E+02  0.56358034383E+02  0.00000000000E+00 0. -1.
         -5    1    3    3    0  503  0.14922223213E+03 -0.31400915579E+01 -0.37987974507E+03  0.40817624313E+03  0.47000000000E+01 0.  1.
         11    1    4    4    0    0  0.22978208492E+02  0.31861136162E+02 -0.41555722941E+03  0.41740979981E+03  0.00000000000E+00 0. -1.
        -12    1    4    4    0    0  0.45784579113E+02  0.43715693351E+02 -0.16002824408E+03  0.17209395235E+03  0.00000000000E+00 0.  1.
</event>
<event>
12    1  0.8219652E-002  0.3773891E+03  0.7818608E-02  0.1051922E+00
         21   -1    0    0  501  502  0.00000000000E+00  0.00000000000E+00  0.14850700262E+03  0.14850700262E+03  0.00000000000E+00 0.  1.
         21   -1    0    0  502  503 -0.00000000000E+00 -0.00000000000E+00 -0.10128373411E+04  0.10128373411E+04  0.00000000000E+00 0. -1.
         -6    2    1    2    0  503 -0.33361312847E+03 -0.39903953572E+02 -0.29780385784E+03  0.48073863879E+03  0.17185009771E+03 0.  0.
        -24    2    3    3    0    0 -0.30385099916E+03 -0.50253056768E+02 -0.31287974166E+03  0.44549292202E+03  0.75626790365E+02 0.  0.
          6    2    1    2  501    0  0.33361312847E+03  0.39903953572E+02 -0.56652648060E+03  0.68060570488E+03  0.17141128112E+03 0.  0.
         24    2    5    5    0    0  0.15292395039E+03  0.79425845161E+02 -0.24723290069E+03  0.31157855255E+03  0.79138408745E+02 0.  0.
          5    1    5    5  501    0  0.18068917808E+03 -0.39521891588E+02 -0.31929357991E+03  0.36902715233E+03  0.47000000000E+01 0. -1.
        -13    1    6    6    0    0 -0.72615906480E+01 -0.82424454093E+00 -0.14902440705E+01  0.74586128196E+01  0.00000000000E+00 0.  1.
         14    1    6    6    0    0  0.16018554104E+03  0.80250089702E+02 -0.24574265662E+03  0.30411993973E+03  0.00000000000E+00 0. -1.
         -5    1    3    3    0  503 -0.29762129313E+02  0.10349103195E+02  0.15075883817E+02  0.35245716776E+02  0.47000000000E+01 0.  1.
         11    1    4    4    0    0 -0.80197291263E+02  0.10348821965E+02 -0.11614911758E+03  0.14152498421E+03  0.00000000000E+00 0. -1.
        -12    1    4    4    0    0 -0.22365370790E+03 -0.60601878732E+02 -0.19673062408E+03  0.30396793781E+03  0.00000000000E+00 0.  1.
</event>
<event>
12    1  0.8219652E-002  0.1966132E+03  0.7818608E-02  0.1153362E+00
         21   -1    0    0  503  502  0.00000000000E+00  0.00000000000E+00  0.16720804915E+03  0.16720804915E+03  0.00000000000E+00 0. -1.
         21   -1    0    0  501  503 -0.00000000000E+00 -0.00000000000E+00 -0.40046778575E+03  0.40046778575E+03  0.00000000000E+00 0. -1.
          6    2    1    2  501    0  0.34028793023E+02  0.83978013620E+02 -0.30387675598E+03  0.36193622465E+03  0.17448920415E+03 0.  0.
         24    2    3    3    0    0  0.41791899148E+02  0.11391982612E+03 -0.16767805509E+03  0.22219019044E+03  0.80797654372E+02 0.  0.
         -6    2    1    2    0  502 -0.34028793023E+02 -0.83978013620E+02  0.70617019381E+02  0.20573961025E+03  0.17068028086E+03 0.  0.
        -24    2    5    5    0    0 -0.64393198607E+02 -0.27732326533E+01  0.23180513017E+02  0.10680263176E+03  0.81946879867E+02 0.  0.
          5    1    3    3  501    0 -0.77631061254E+01 -0.29941812503E+02 -0.13619870089E+03  0.13974603421E+03  0.47000000000E+01 0. -1.
        -13    1    4    4    0    0  0.63971786974E+02  0.91914562210E+02 -0.11222269428E+03  0.15853898381E+03  0.00000000000E+00 0.  1.
         14    1    4    4    0    0 -0.22179887825E+02  0.22005263914E+02 -0.55455360806E+02  0.63651206634E+02  0.00000000000E+00 0. -1.
         -5    1    5    5    0  502  0.30364405584E+02 -0.81204780967E+02  0.47436506364E+02  0.98936978498E+02  0.47000000000E+01 0.  1.
         13    1    6    6    0    0  0.15593498504E+02 -0.11827271567E+01  0.21748654270E+02  0.26787310460E+02  0.00000000000E+00 0. -1.
        -14    1    6    6    0    0 -0.79986697111E+02 -0.15905054966E+01  0.14318587466E+01  0.80015321295E+02  0.00000000000E+00 0.  1.
</event>
<event>
12    1  0.8219652E-002  0.2272401E+03  0.7818608E-02  0.1128717E+00
         21   -1    0    0  501  502  0.00000000000E+00  0.00000000000E+00  0.14753594710E+04  0.14753594710E+04  0.00000000000E+00 0. -1.
         21   -1    0    0  502  503 -0.00000000000E+00 -0.00000000000E+00 -0.36020073130E+02  0.36020073130E+02  0.00000000000E+00 0.  1.
         -6    2    1    2    0  503  0.14709014364E+03 -0.11599000013E+02  0.58729508884E+03  0.62972500663E+03  0.17282365417E+03 0.  0.
        -24    2    3    3    0    0  0.55308816453E+02 -0.68147614748E+02  0.32694673221E+03  0.34790074464E+03  0.80234654868E+02 0.  0.
          6    2    1    2  501    0 -0.14709014364E+03  0.11599000013E+02  0.85204430902E+03  0.88165453749E+03  0.17194525811E+03 0.  0.
         24    2    5    5    0    0 -0.16567652444E+03  0.43868218349E+02  0.71973282911E+03  0.74412209143E+03  0.79556334282E+02 0.  0.
          5    1    5    5  501    0  0.18586380799E+02 -0.32269218336E+02  0.13231147991E+03  0.13753244606E+03  0.47000000000E+01 0. -1.
        -13    1    6    6    0    0 -0.84367647400E+02 -0.14552921038E+02  0.26455280089E+03  0.27806091401E+03  0.00000000000E+00 0.  1.
         14    1    6    6    0    0 -0.81308877040E+02  0.58421139388E+02  0.45518002821E+03  0.46606117742E+03  0.00000000000E+00 0. -1.
         -5    1    3    3    0  503  0.91781327189E+02  0.56548614735E+02  0.26034835663E+03  0.28182426199E+03  0.47000000000E+01 0.  1.
         11    1    4    4    0    0  0.63691755845E+02 -0.48283764263E+02  0.31094113308E+03  0.32104882790E+03  0.00000000000E+00 0. -1.
        -12    1    4    4    0    0 -0.83829393919E+01 -0.19863850486E+02  0.16005599132E+02  0.26851916738E+02  0.00000000000E+00 0.  1.
</event>
<event>
12    1  0.8219652E-002  0.1934431E+03  0.7818608E-02  0.1155660E+00
         21   -1    0    0  503  502  0.00000000000E+00  0.00000000000E+00  0.18063026720E+03  0.18063026720E+03  0.00000000000E+00 0.  1.
         21   -1    0    0  501  503 -0.00000000000E+00 -0.00000000000E+00 -0.77219452164E+03  0.77219452164E+03  0.00000000000E+00 0. -1.
          6    2    1    2  501    0  0.53484081917E+01 -0.88409086042E+02 -0.70402398922E+03  0.73011644041E+03  0.17197519356E+03 0.  0.
         24    2    3    3    0    0  0.41885411829E+02 -0.25768651109E+02 -0.18338813894E+03  0.20443349859E+03  0.75785452031E+02 0.  0.
         -6    2    1    2    0  502 -0.53484081917E+01  0.88409086042E+02  0.11245973479E+03  0.22270834842E+03  0.17060786777E+03 0.  0.
        -24    2    5    5    0    0  0.61019013863E+02  0.16963595068E+02  0.75901479141E+02  0.11846014006E+03  0.65273935361E+02 0.  0.
          5    1    3    3  501    0 -0.36537003638E+02 -0.62640434933E+02 -0.52063585028E+03  0.52568294182E+03  0.47000000000E+01 0. -1.
        -13    1    4    4    0    0  0.59761221598E+02 -0.10035825759E+01 -0.11882927044E+03  0.13301430862E+03  0.00000000000E+00 0.  1.
         14    1    4    4    0    0 -0.17875809768E+02 -0.24765068533E+02 -0.64558868496E+02  0.71419189969E+02  0.00000000000E+00 0. -1.
         -5    1    5    5    0  502 -0.66367422055E+02  0.71445490973E+02  0.36558255644E+02  0.10424820836E+03  0.47000000000E+01 0.  1.
         11    1    6    6    0    0  0.13510669803E+02 -0.24056668181E+02  0.17150156130E+02  0.32486756345E+02  0.00000000000E+00 0. -1.
        -12    1    6    6    0    0  0.47508344060E+02  0.41020263250E+02  0.58751323011E+02  0.85973383718E+02  0.00000000000E+00 0.  1.
</event>
<event>
12    1  0.8219652E-002  0.2021800E+03  0.7818608E-02  0.1147979E+00
         21   -1    0    0  503  502  0.00000000000E+00  0.00000000000E+00  0.18848036149E+03  0.18848036149E+03  0.00000000000E+00 0.  1.
         21   -1    0    0  501  503 -0.00000000000E+00 -0.00000000000E+00 -0.21720053729E+03  0.21720053729E+03  0.00000000000E+00 0. -1.
          6    2    1    2  501    0 -0.68078381359E+02  0.81431713313E+02 -0.31075786051E+01  0.20188505911E+03  0.17170361122E+03 0.  0.
         24    2    3    3    0    0  0.24795000812E+02  0.50420496437E+02 -0.31205552719E+02  0.99910813159E+02  0.76494218993E+02 0.  0.
         -6    2    1    2    0  502  0.68078381359E+02 -0.81431713313E+02 -0.25612597196E+02  0.20379583966E+03  0.17207832283E+03 0.  0.
        -24    2    5    5    0    0 -0.19512800184E+01 -0.77781818080E+02 -0.58377845361E+02  0.12625148658E+03  0.80483826433E+02 0.  0.
          5    1    3    3  501    0 -0.92873382171E+02  0.31011216876E+02  0.28097974114E+02  0.10197424595E+03  0.47000000000E+01 0. -1.
        -11    1    4    4    0    0  0.12709456661E+02 -0.19542301189E+02 -0.29564662138E+01  0.23498351364E+02  0.00000000000E+00 0.  1.
         12    1    4    4    0    0  0.12085544151E+02  0.69962797626E+02 -0.28249086505E+02  0.76412461794E+02  0.00000000000E+00 0. -1.
         -5    1    5    5    0  502  0.70029661378E+02 -0.36498952330E+01  0.32765248164E+02  0.77544353084E+02  0.47000000000E+01 0.  1.
         11    1    6    6    0    0  0.30596710334E+02 -0.41549564210E+02 -0.18462762100E+01  0.51632680592E+02  0.00000000000E+00 0. -1.
        -12    1    6    6    0    0 -0.32547990352E+02 -0.36232253871E+02 -0.56531569151E+02  0.74618805989E+02  0.00000000000E+00 0.  1.
</event>
<event>
12    1  0.8219652E-002  0.1910429E+03  0.7818608E-02  0.1157644E+00
         21   -1    0    0  501  502  0.00000000000E+00  0.00000000000E+00  0.96299615122E+02  0.96299615122E+02  0.00000000000E+00 0. -1.
         21   -1    0    0  502  503 -0.00000000000E+00 -0.00000000000E+00 -0.37793983922E+03  0.37793983922E+03  0.00000000000E+00 0. -1.
         -6    2    1    2    0  503  0.60470451298E+02 -0.57101975416E+02 -0.14031750970E+03  0.23660637487E+03  0.17139504668E+03 0.  0.
        -24    2    3    3    0    0 -0.33480530803E+01  0.25542766155E+02 -0.81943859178E+02  0.11688783877E+03  0.79273756277E+02 0.  0.
          6    2    1    2  501    0 -0.60470451298E+02  0.57101975416E+02 -0.14132271440E+03  0.23763307947E+03  0.17198854548E+03 0.  0.
         24    2    5    5    0    0 -0.21047893727E+02 -0.18882049520E+02 -0.12266200668E+03  0.14989470643E+03  0.81381260178E+02 0.  0.
          5    1    5    5  501    0 -0.39422557570E+02  0.75984024936E+02 -0.18660707715E+02  0.87738373037E+02  0.47000000000E+01 0. -1.
        -11    1    6    6    0    0 -0.35590919894E+02 -0.40055490050E+02 -0.10737720630E+03  0.12000425115E+03  0.00000000000E+00 0.  1.
         12    1    6    6    0    0  0.14543026166E+02  0.21173440530E+02 -0.15284800383E+02  0.29890455278E+02  0.00000000000E+00 0. -1.
         -5    1    3    3    0  503  0.63818504378E+02 -0.82644741570E+02 -0.58373650521E+02  0.11971853610E+03  0.47000000000E+01 0.  1.
         13    1    4    4    0    0  0.71710457499E+01 -0.21268818593E+02 -0.60130436328E+02  0.64182987735E+02  0.00000000000E+00 0. -1.
        -14    1    4    4    0    0 -0.10519098830E+02  0.46811584747E+02 -0.21813422850E+02  0.52704851040E+02  0.00000000000E+00 0.  1.
</event>
<event>
12    1  0.8219652E-002  0.1827185E+03  0.7818608E-02  0.1165795E+00
         21   -1    0    0  501  502  0.00000000000E+00  0.00000000000E+00  0.30932145705E+02  0.30932145705E+02  0.00000000000E+00 0.  1.
         21   -1    0    0  502  503 -0.00000000000E+00 -0.00000000000E+00 -0.15875624319E+04  0.15875624319E+04  0.00000000000E+00 0.  1.
         -6    2    1    2    0  503  0.60527601962E+01 -0.52926652313E+02 -0.12391694269E+04  0.12522058268E+04  0.17216474025E+03 0.  0.
        -24    2    3    3    0    0 -0.24579075097E+01 -0.39707720722E+01 -0.11219948119E+04  0.11248437836E+04  0.79870965197E+02 0.  0.
          6    2    1    2  501    0 -0.60527601962E+01  0.52926652313E+02 -0.31746085935E+03  0.36628875082E+03  0.17478039170E+03 0.  0.
         24    2    5    5    0    0  0.19956827325E+01  0.73284452997E+02 -0.32515877908E+03  0.34261248738E+03  0.79249549502E+02 0.  0.
          5    1    5    5  501    0 -0.80484429287E+01 -0.20357800683E+02  0.76979197274E+01  0.23676263438E+02  0.47000000000E+01 0. -1.
        -11    1    6    6    0    0  0.32292375118E+02  0.71720550887E+01 -0.72386270451E+02  0.79586481357E+02  0.00000000000E+00 0.  1.
         12    1    6    6    0    0 -0.30296692385E+02  0.66112397908E+02 -0.25277250863E+03  0.26302600602E+03  0.00000000000E+00 0. -1.
         -5    1    3    3    0  503  0.85106677059E+01 -0.48955880241E+02 -0.11717461495E+03  0.12736204327E+03  0.47000000000E+01 0.  1.
         11    1    4    4    0    0  0.37391209036E+02  0.68259229080E+01 -0.46340370386E+03  0.46495987837E+03  0.00000000000E+00 0. -1.
        -12    1    4    4    0    0 -0.39849116545E+02 -0.10796694980E+02 -0.65859110805E+03  0.65988390518E+03  0.00000000000E+00 0.  1.
</event>
<event>
12    1  0.8219652E-002  0.3678184E+03  0.7818608E-02  0.1055544E+00
         21   -1    0    0  501  502  0.00000000000E+00  0.00000000000E+00  0.70630153164E+03  0.70630153164E+03  0.00000000000E+00 0. -1.
         21   -1    0    0  502  503 -0.00000000000E+00 -0.00000000000E+00 -0.26586266405E+03  0.26586266405E+03  0.00000000000E+00 0.  1.
         -6    2    1    2    0  503 -0.15498231550E+03  0.28582435687E+03  0.47737567419E+03  0.60264241014E+03  0.17197458852E+03 0.  0.
        -24    2    3    3    0    0 -0.18168857646E+03  0.26932748487E+03  0.45264225993E+03  0.56240308931E+03  0.76577976405E+02 0.  0.
          6    2    1    2  501    0  0.15498231550E+03 -0.28582435687E+03 -0.36936806601E+02  0.36952178555E+03  0.17165937556E+03 0.  0.
         24    2    5    5    0    0  0.68858954070E+02 -0.79870546639E+02  0.31734448699E+02  0.13591520038E+03  0.79655550233E+02 0.  0.
          5    1    5    5  501    0  0.86123361430E+02 -0.20595381023E+03 -0.68671255300E+02  0.23360658518E+03  0.47000000000E+01 0. -1.
        -13    1    6    6    0    0  0.70943131942E+02 -0.92968908647E+02  0.20918965594E+02  0.11880130078E+03  0.00000000000E+00 0.  1.
         14    1    6    6    0    0 -0.20841778721E+01  0.13098362008E+02  0.10815483105E+02  0.17113899599E+02  0.00000000000E+00 0. -1.
         -5    1    3    3    0  503  0.26706260956E+02  0.16496871999E+02  0.24733414258E+02  0.40239320830E+02  0.47000000000E+01 0.  1.
         11    1    4    4    0    0 -0.51570798264E+02  0.10029807490E+03  0.21696897366E+03  0.24452972538E+03  0.00000000000E+00 0. -1.
        -12    1    4    4    0    0 -0.13011777819E+03  0.16902940997E+03  0.23567328627E+03  0.31787336393E+03  0.00000000000E+00 0.  1.
</event>
<event>
12    1  0.8219652E-002  0.1775679E+03  0.7818608E-02  0.1170285E+00
         21   -1    0    0  503  502  0.00000000000E+00  0.00000000000E+00  0.21985721691E+03  0.21985721691E+03  0.00000000000E+00 0.  1.
         21   -1    0    0  501  503 -0.00000000000E+00 -0.00000000000E+00 -0.15689756817E+03  0.15689756817E+03  0.00000000000E+00 0.  1.
          6    2    1    2  501    0 -0.16418389774E+02  0.43030311383E+02 -0.24422286566E+02  0.17923949397E+03  0.17149104028E+03 0.  0.
         24    2    3    3    0    0 -0.36492730113E+02  0.90416048053E+02 -0.14563955855E+02  0.12663090281E+03  0.79476384156E+02 0.  0.
         -6    2    1    2    0  502  0.16418389774E+02 -0.43030311383E+02  0.87381935308E+02  0.19751529111E+03  0.17104244030E+03 0.  0.
        -24    2    5    5    0    0  0.51926968132E+02 -0.80581772544E+01  0.10727738031E+03  0.14364667284E+03  0.79778355786E+02 0.  0.
          5    1    3    3  501    0  0.20074340340E+02 -0.47385736670E+02 -0.98583307112E+01  0.52608591164E+02  0.47000000000E+01 0. -1.
        -13    1    4    4    0    0 -0.54488359740E+02  0.45960867716E+02  0.11249260618E+02  0.72165979330E+02  0.00000000000E+00 0.  1.
         14    1    4    4    0    0  0.17995629626E+02  0.44455180337E+02 -0.25813216473E+02  0.54464923475E+02  0.00000000000E+00 0. -1.
         -5    1    5    5    0  502 -0.35508578358E+02 -0.34972134128E+02 -0.19895445003E+02  0.53868618271E+02  0.47000000000E+01 0.  1.
         13    1    6    6    0    0  0.16355685828E+02  0.28576672091E+01  0.10506891264E+03  0.10637269915E+03  0.00000000000E+00 0. -1.
        -14    1    6    6    0    0  0.35571282304E+02 -0.10915844464E+02  0.22084676666E+01  0.37273973689E+02  0.00000000000E+00 0.  1.
</event>
<event>
12    1  0.8219652E-002  0.1933234E+03  0.7818608E-02  0.1155773E+00
         21   -1    0    0  501  502  0.00000000000E+00  0.00000000000E+00  0.18638935894E+03  0.18638935894E+03  0.00000000000E+00 0.  1.
         21   -1    0    0  502  503 -0.00000000000E+00 -0.00000000000E+00 -0.24274806543E+03  0.24274806543E+03  0.00000000000E+00 0.  1.
         -6    2    1    2    0  503 -0.82618398118E+02 -0.28685397539E+02 -0.11895852162E+03  0.22593145889E+03  0.17101240455E+03 0.  0.
        -24    2    3    3    0    0 -0.92082973410E+01  0.38564464047E+02 -0.69541173622E+02  0.11468510586E+03  0.82126049761E+02 0.  0.
          6    2    1    2  501    0  0.82618398118E+02  0.28685397539E+02  0.62599815121E+02  0.20320596549E+03  0.17241019638E+03 0.  0.
         24    2    5    5    0    0 -0.19791469846E+02  0.31774517691E+02  0.27790270612E+02  0.94895679232E+02  0.82653303279E+02 0.  0.
          5    1    5    5  501    0  0.10240986796E+03 -0.30891201525E+01  0.34809544509E+02  0.10831028625E+03  0.47000000000E+01 0. -1.
        -13    1    6    6    0    0  0.29526829220E+02  0.12587535967E+02 -0.52276134267E+01  0.32520880179E+02  0.00000000000E+00 0.  1.
         14    1    6    6    0    0 -0.49318299066E+02  0.19186981724E+02  0.33017884039E+02  0.62374799052E+02  0.00000000000E+00 0. -1.
         -5    1    3    3    0  503 -0.73410100777E+02 -0.67249861586E+02 -0.49417347995E+02  0.11124635303E+03  0.47000000000E+01 0.  1.
         13    1    4    4    0    0  0.33027194577E+02  0.15289569284E+02 -0.93840474332E+01  0.37584928586E+02  0.00000000000E+00 0. -1.
        -14    1    4    4    0    0 -0.42235491918E+02  0.23274894763E+02 -0.60157126189E+02  0.77100177271E+02  0.00000000000E+00 0.  1.
</event>
<event>
12    1  0.8219652E-002  0.1845505E+03  0.7818608E-02  0.1163880E+00
         21   -1    0    0  501  502  0.00000000000E+00  0.00000000000E+00  0.90935966794E+02  0.90935966794E+02  0.00000000000E+00 0.  1.
         21   -1    0    0  502  503 -0.00000000000E+00 -0.00000000000E+00 -0.37183858794E+03  0.37183858794E+03  0.00000000000E+00 0.  1.
         -6    2    1    2    0  503  0.43981763250E+02  0.49400744392E+02 -0.15071517441E+03  0.23692582185E+03  0.17042286295E+03 0.  0.
        -24    2    3    3    0    0  0.27233570777E+02 -0.29787317262E+02 -0.27495387143E+02  0.89425120042E+02  0.74912643349E+02 0.  0.
          6    2    1    2  501    0 -0.43981763250E+02 -0.49400744392E+02 -0.13018744673E+03  0.22584873288E+03  0.17229059699E+03 0.  0.
         24    2    5    5    0    0 -0.49935758021E+02 -0.97570913892E+02 -0.89661556694E+02  0.16244326745E+03  0.79592444512E+02 0.  0.
          5    1    5    5  501    0  0.59539947714E+01  0.48170169500E+02 -0.40525890037E+02  0.63405465432E+02  0.47000000000E+01 0. -1.
        -13    1    6    6    0    0 -0.59095372547E+02 -0.70365441093E+02 -0.96166322173E+02  0.13300947288E+03  0.00000000000E+00 0.  1.
         14    1    6    6    0    0  0.91596145257E+01 -0.27205472799E+02  0.65047654788E+01  0.29433794564E+02  0.00000000000E+00 0. -1.
         -5    1    3    3    0  503  0.16748192473E+02  0.79188061654E+02 -0.12321978727E+03  0.14750070181E+03  0.47000000000E+01 0.  1.
         13    1    4    4    0    0  0.16264873261E+02  0.24494631768E+02 -0.59282193688E+01  0.29994614059E+02  0.00000000000E+00 0. -1.
        -14    1    4    4    0    0  0.10968697515E+02 -0.54281949029E+02 -0.21567167775E+02  0.59430505983E+02  0.00000000000E+00 0.  1.
</event>
<event>
12    1  0.8219652E-002  0.1981021E+03  0.7818608E-02  0.1151803E+00
         21   -1    0    0  501  502  0.00000000000E+00  0.00000000000E+00  0.10785699867E+03  0.10785699867E+03  0.00000000000E+00 0.  1.
         21   -1    0    0  502  503 -0.00000000000E+00 -0.00000000000E+00 -0.36399589552E+03  0.36399589552E+03  0.00000000000E+00 0.  1.
         -6    2    1    2    0  503 -0.22463077262E+02  0.91958810500E+02 -0.10400831501E+03  0.22374578400E+03  0.17402135960E+03 0.  0.
        -24    2    3    3    0    0  0.39465765025E+02  0.54295729731E+02 -0.10752918880E+02  0.10554109684E+03  0.80732428312E+02 0.  0.
          6    2    1    2  501    0  0.22463077262E+02 -0.91958810500E+02 -0.15213058184E+03  0.24810711019E+03  0.17161704905E+03 0.  0.
         24    2    5    5    0    0 -0.13736210253E+02 -0.27169039361E+02 -0.15170728515E+03  0.17374063897E+03  0.79018156712E+02 0.  0.
          5    1    5    5  501    0  0.36199287515E+02 -0.64789771139E+02 -0.42329669115E+00  0.74366471215E+02  0.47000000000E+01 0. -1.
        -13    1    6    6    0    0 -0.35144051288E+02 -0.30821924848E+02 -0.45137992256E+02  0.64981025978E+02  0.00000000000E+00 0.  1.
         14    1    6    6    0    0  0.21407841035E+02  0.36528854867E+01 -0.10656929289E+03  0.10875961299E+03  0.00000000000E+00 0. -1.
         -5    1    3    3    0  503 -0.61928842287E+02  0.37663080769E+02 -0.93255396127E+02  0.11820468716E+03  0.47000000000E+01 0.  1.
         11    1    4    4    0    0  0.11560824644E+02 -0.13660590023E+02  0.19163782407E+02  0.26220506143E+02  0.00000000000E+00 0. -1.
        -12    1    4    4    0    0  0.27904940381E+02  0.67956319755E+02 -0.29916701288E+02  0.79320590695E+02  0.00000000000E+00 0.  1.
</event>
<event>
12    1  0.8219652E-002  0.2269369E+03  0.7818608E-02  0.1130175E+00
         21   -1    0    0  501  502  0.00000000000E+00  0.00000000000E+00  0.11991218956E+03  0.11991218956E+03  0.00000000000E+00 0. -1.
         21   -1    0    0  502  503 -0.00000000000E+00 -0.00000000000E+00 -0.41548373265E+03  0.41548373265E+03  0.00000000000E+00 0. -1.
         -6    2    1    2    0  503 -0.14593038012E+03  0.28581640891E+02 -0.15155374723E+03  0.27288990068E+03  0.17142862526E+03 0.  0.
        -24    2    3    3    0    0 -0.15687556309E+03 -0.80718562579E+01 -0.84625328552E+02  0.19565791825E+03  0.80283731754E+02 0.  0.
          6    2    1    2  501    0  0.14593038012E+03 -0.28581640891E+02 -0.14401779586E+03  0.26250602152E+03  0.16141778023E+03 0.  0.
         24    2    5    5    0    0  0.62960743197E+02 -0.64622717623E+02 -0.51229625190E+02  0.13283468900E+03  0.82948353130E+02 0.  0.
          5    1    5    5  501    0  0.82969636919E+02  0.36041076732E+02 -0.92788170673E+02  0.12967133253E+03  0.47000000000E+01 0. -1.
        -11    1    6    6    0    0  0.46616559108E+02 -0.29613970535E+02 -0.70583597510E+02  0.89622179572E+02  0.00000000000E+00 0.  1.
         12    1    6    6    0    0  0.16344184089E+02 -0.35008747089E+02  0.19353972320E+02  0.43212509425E+02  0.00000000000E+00 0. -1.
         -5    1    3    3    0  503  0.10945182971E+02  0.36653497149E+02 -0.66928418679E+02  0.77231982433E+02  0.47000000000E+01 0.  1.
         11    1    4    4    0    0 -0.13309323479E+03 -0.58393553337E+01 -0.10058595565E+03  0.16692945124E+03  0.00000000000E+00 0. -1.
        -12    1    4    4    0    0 -0.23782328295E+02 -0.22325009242E+01  0.15960627094E+02  0.28728467010E+02  0.00000000000E+00 0.  1.
</event>
<event>
12    1  0.8219652E-002  0.3393707E+03  0.7818608E-02  0.1067172E+00
         21   -1    0    0  501  502  0.00000000000E+00  0.00000000000E+00  0.22791344617E+03  0.22791344617E+03  0.00000000000E+00 0. -1.
         21   -1    0    0  502  503 -0.00000000000E+00 -0.00000000000E+00 -0.87006849495E+03  0.87006849495E+03  0.00000000000E+00 0.  1.
         -6    2    1    2    0  503  0.28953967399E+03  0.40601923845E+02 -0.67752784815E+03  0.75777072205E+03  0.17231002041E+03 0.  0.
        -24    2    3    3    0    0  0.27385899226E+03  0.79583022941E+02 -0.62160463109E+03  0.68766433095E+03  0.71817194908E+02 0.  0.
          6    2    1    2  501    0 -0.28953967399E+03 -0.40601923845E+02  0.35372799370E+02  0.34021121907E+03  0.17032527590E+03 0.  0.
         24    2    5    5    0    0 -0.25342200064E+03 -0.90938685693E+02  0.17233570762E+02  0.27548566356E+03  0.55702781802E+02 0.  0.
          5    1    5    5  501    0 -0.36117673352E+02  0.50336761847E+02  0.18139228608E+02  0.64725555510E+02  0.47000000000E+01 0. -1.
        -13    1    6    6    0    0 -0.18601797535E+02 -0.24145164995E+02  0.61837650944E+01  0.31100720488E+02  0.00000000000E+00 0.  1.
         14    1    6    6    0    0 -0.23482020311E+03 -0.66793520698E+02  0.11049805668E+02  0.24438494307E+03  0.00000000000E+00 0. -1.
         -5    1    3    3    0  503  0.15680681734E+02 -0.38981099095E+02 -0.55923217064E+02  0.70106391100E+02  0.47000000000E+01 0.  1.
         11    1    4    4    0    0  0.17165978545E+03  0.25291759341E+02 -0.30986790422E+03  0.35514063848E+03  0.00000000000E+00 0. -1.
        -12    1    4    4    0    0  0.10219920681E+03  0.54291263600E+02 -0.31173672687E+03  0.33252369247E+03  0.00000000000E+00 0.  1.
</event>
<event>
12    1  0.8219652E-002  0.1952061E+03  0.7818608E-02  0.1154057E+00
         21   -1    0    0  501  502  0.00000000000E+00  0.00000000000E+00  0.52517944978E+02  0.52517944978E+02  0.00000000000E+00 0. -1.
         21   -1    0    0  502  503 -0.00000000000E+00 -0.00000000000E+00 -0.85075261859E+03  0.85075261859E+03  0.00000000000E+00 0. -1.
         -6    2    1    2    0  503  0.33855199171E+00 -0.91304463777E+02 -0.57397513135E+03  0.60595296186E+03  0.17144947027E+03 0.  0.
        -24    2    3    3    0    0 -0.21638022103E+02 -0.84919777571E+02 -0.57004525568E+03  0.58226186754E+03  0.79985725256E+02 0.  0.
          6    2    1    2  501    0 -0.33855199171E+00  0.91304463777E+02 -0.22425954227E+03  0.29731760172E+03  0.17253635637E+03 0.  0.
         24    2    5    5    0    0  0.31556445811E+02  0.11337097385E+03 -0.21341857948E+03  0.25677332683E+03  0.80847166431E+02 0.  0.
          5    1    5    5  501    0 -0.31894997803E+02 -0.22066510075E+02 -0.10840962788E+02  0.40544274884E+02  0.47000000000E+01 0. -1.
        -13    1    6    6    0    0  0.11654928249E+02 -0.11140474578E+02 -0.17588608013E+02  0.23860147907E+02  0.00000000000E+00 0.  1.
         14    1    6    6    0    0  0.19901517562E+02  0.12451144843E+03 -0.19582997147E+03  0.23291317892E+03  0.00000000000E+00 0. -1.
         -5    1    3    3    0  503  0.21976574095E+02 -0.63846862066E+01 -0.39298756612E+01  0.23691094310E+02  0.47000000000E+01 0.  1.
         11    1    4    4    0    0 -0.83822245575E+01 -0.87801075438E+02 -0.32244819306E+03  0.33429347548E+03  0.00000000000E+00 0. -1.
        -12    1    4    4    0    0 -0.13255797546E+02  0.28812978669E+01 -0.24759706262E+03  0.24796839207E+03  0.00000000000E+00 0.  1.
</event>
